QMMM reactant CHA#2 frame 21634
 55680
  38.9827576  51.1645012  44.7470551  39.6886406  51.8844948  44.6883392
  38.0575714  51.5167198  44.9472389  39.2418518  50.5516930  45.5069466
  39.1232719  50.3159752  43.5130081  38.8283730  50.9369316  42.6671066
  40.6617050  49.9850006  43.3553429  41.2010536  50.9283180  43.4411469
  41.0853386  49.2708130  44.0614395  40.8985939  49.3596840  41.9762993
  40.6585579  48.2970772  42.0130272  40.4078712  49.8658371  41.1449738
  42.6850014  49.5265503  41.4790268  42.9042130  51.2713928  41.2295341
  42.4098663  51.7016068  40.3585320  42.6952019  51.7718887  42.1750069
  43.9643288  51.5079536  41.1384506  38.3121796  49.0125160  43.6296844
  38.3898239  48.4287453  44.7134285  37.6299858  48.5136566  42.5704651
  37.5891571  49.0842743  41.7381020  36.9155846  47.2762909  42.4096680
  36.4403419  46.9876289  43.3471718  36.0211449  47.4815063  41.1946182
  35.2506104  48.1624184  41.5561981  36.5322227  48.0359383  40.4075356
  35.2471733  46.3012619  40.7508621  35.8875313  45.5408897  40.3037834
  34.5826378  46.6909561  39.9797401  34.1829147  45.4232597  41.8981705
  33.0798531  44.5698395  40.6888275  33.5902596  43.7739792  40.1464310
  32.8367310  45.2960777  39.9132195  32.1450081  44.2736053  41.1646538
  37.8405533  46.0893898  42.3189812  39.0725708  46.1721191  42.4155235
  37.2702980  44.9120255  42.0134697  36.2609138  44.9358902  41.9875221
  37.8565750  43.6122322  42.1804771  38.9361343  43.6061058  42.3308868
  37.3642082  43.0198097  43.5365105  36.3092918  42.7864990  43.3921814
  38.1563950  41.7053032  43.7669907  38.0955963  40.9681282  42.9663849
  39.2328072  41.8596802  43.8418732  37.7398643  41.1440125  44.6033821
  37.5436287  43.9151192  44.7661247  37.0045166  44.8303719  44.5216408
  37.0153008  43.4832039  45.6160812  38.8984375  44.2594795  45.3141708
  39.4809647  43.3713684  45.5591850  39.3839035  44.9571533  44.6317673
  38.8404198  44.8338051  46.2387695  37.4613380  42.7297325  40.9927826
  36.3029327  42.7714462  40.6329231  38.3276939  41.8600121  40.4177170
  39.2598648  41.8701668  40.8063774  38.0231934  40.8398170  39.4479332
  37.0038071  40.4618797  39.5261421  38.3454628  41.4532013  38.0491600
  39.3561821  41.8608742  38.0678139  38.3409767  40.6868477  37.2740593
  37.1937523  42.3925209  37.6202011  37.0384789  42.2961426  36.5456314
  36.2673416  41.9961014  38.0357895  37.2782135  43.9227295  37.8861771
  37.3659210  44.1882744  38.9396896  38.2016563  44.2612762  37.4163399
  36.1439743  44.6194954  37.3232117  35.2948685  44.0953369  37.1670799
  35.9566536  45.9295044  37.1233253  36.9334488  46.7964630  37.2909966
  36.7655411  47.6662407  36.8058319  37.8453674  46.4896164  37.5981674
  34.8694420  46.5368042  36.6842422  34.1780663  45.8571281  36.4011574
  34.7885742  47.5213356  36.4738655  38.8913879  39.5996628  39.6384506
  40.0206566  39.6147461  40.1650696  38.3686028  38.4701920  39.1499634
  37.4491920  38.4775772  38.7319565  39.0323372  37.1844482  39.3050728
  39.5696335  37.1197472  40.2512398  38.2532959  36.4357338  39.4486694
  39.8487015  36.7650452  38.0495415  39.2350845  36.3839493  37.0879669
  41.1679993  36.7651749  38.0523720  41.6284332  36.8989906  38.9412994
  41.8927917  36.3090363  36.8350945  41.3572083  36.6817245  35.9619637
  43.3546066  36.8925667  36.6768265  43.9559021  36.6219978  37.5447807
  44.0750771  36.2360725  35.4638290  45.0590477  36.6852875  35.3292923
  44.1108513  35.1774330  35.7209511  43.5545082  36.3352509  34.5113220
  43.2705116  38.4397011  36.6351433  43.1779861  38.7471924  35.5935173
  42.4431877  38.8231544  37.2323036  44.5375328  39.1577263  37.2204971
  44.5716057  38.8717957  38.2717743  45.4577751  38.8154793  36.7470779
  44.4628563  40.2215157  36.9949455  41.9297256  34.7114868  36.8745384
  42.3952942  34.1547890  37.9060440  41.4350815  34.1089554  35.7613220
  41.0506783  34.6253319  34.9830627  41.5240479  32.6124420  35.5597229
  41.5306816  32.0351410  36.4842682  40.3275604  32.1523705  34.7137451
  40.2785034  32.7812653  33.8248253  40.5700684  31.1125832  34.4943542
  38.9920998  32.2378502  35.5157204  38.7413559  33.2901917  35.6491585
  38.2113533  31.8118935  34.8855629  38.9194946  31.4960728  36.9500046
  39.3620377  32.1550560  37.6969948  37.9359169  31.2578926  37.3549194
  39.6147232  30.2000313  36.8818321  40.5569077  30.1936913  37.2456284
  39.2620125  29.1121025  36.2253685  38.0659828  28.8624172  35.7780190
  37.3054314  29.4912472  35.9930382  37.8808670  28.0012760  35.2837830
  40.1662712  28.1921921  35.9492989  39.9197845  27.4912052  35.2652206
  41.1533852  28.2936554  36.1374779  42.7717323  32.1181488  34.7911377
  43.2480698  32.8492279  33.9281273  43.1541634  30.8906479  35.0727654
  42.5597267  30.4819012  35.7796402  44.0948830  30.2076778  34.2173309
  43.9249840  30.2875328  33.1436195  45.0797577  30.6744881  34.2027817
  44.0976295  28.7507992  34.3889160  43.3612289  28.2809887  35.2598686
  44.8472824  27.9563904  33.5523300  45.5173874  28.4344311  32.9670639
  45.0599174  26.5248852  33.7025909  45.2638168  26.2111015  34.7263412
  43.8075409  25.8457432  33.3021469  43.9322510  24.8183174  33.6441154
  42.9599113  26.3071690  33.8088074  43.6129303  25.8084679  32.2303085
  46.2438278  26.0940781  32.8783760  46.7071877  26.8064213  31.9606819
  46.6980858  24.8566418  33.0452118  46.2054710  24.3044338  33.7325974
  47.8779564  24.1988773  32.4061890  47.9396515  24.4694004  31.3520947
  49.2341499  24.5986347  33.0412788  49.3404884  25.6824474  33.0876312
  49.5454788  24.1223030  34.4199371  50.5001755  24.5355988  34.7452660
  48.7935600  24.4839706  35.1212997  49.6291389  23.0501194  34.5974922
  50.2684555  24.3519630  32.2217102  50.9534950  24.9755344  32.4736557
  47.7652817  22.6770935  32.4842262  46.9061089  22.1070862  33.2490845
  48.6611519  21.9637451  31.8227596  49.3426208  22.4189148  31.2324028
  48.7506981  20.4939442  31.9149723  48.0975418  20.1178703  32.7024078
  48.2665520  19.7152462  30.6913872  48.3049545  18.6285629  30.7671928
  46.7725334  20.1571922  30.5624866  46.3091965  19.4174309  29.9096699
  46.2250710  20.2067966  31.5037212  46.7271080  21.0994511  30.0164146
  48.8397827  20.1781425  29.4856663  49.6256599  19.6915016  29.2264748
  50.1888275  20.0247231  32.2998009  51.1196632  20.7783604  32.2871933
  50.3072319  18.7003651  32.5653419  49.4444466  18.1775627  32.5165939
  51.6037445  18.0107212  32.8993835  52.4530640  18.6015682  32.5563736
  51.8017654  17.8371868  34.4202499  52.7166977  17.2866554  34.6391296
  52.0102348  19.1130753  35.2664032  52.8086205  19.7883530  34.9586983
  51.0860710  19.6898651  35.3029060  52.3530655  18.8325787  36.2623405
  50.7199287  17.0569592  35.1377945  50.6398392  16.0367355  34.7625198
  51.0368996  17.0258694  36.1802216  49.7829208  17.5500526  34.8789864
  51.6076012  16.6153584  32.2599716  50.5589218  16.0595055  31.9235420
  52.7727318  15.9980316  32.2334061  53.4830513  16.3490200  32.8597908
  52.9994240  14.6191769  31.8499222  52.2256050  14.2288494  31.1889019
  54.3645210  14.4840460  31.1191578  55.0219879  14.9498434  31.8532352
  54.6572151  13.4544411  30.9133835  54.6279449  15.2534523  29.7882767
  55.0104713  16.2185154  30.1205788  55.4537468  14.8097534  29.2321491
  53.4119415  15.4926395  28.8648300  52.7017746  14.5286093  28.5326080
  53.1869087  16.6495247  28.4466152  52.9512978  13.6529160  32.9988670
  52.4169579  12.5145454  32.9537125  53.4189796  14.0011806  34.1639709
  53.6891479  14.9565210  34.3495331  53.7454147  13.0933113  35.2980156
  53.3537140  12.0814104  35.1944427  55.2097931  12.8819685  35.5012665
  55.6967087  13.8111649  35.7972450  55.2751007  12.1468115  36.3033752
  56.0706940  12.3158064  34.3610611  55.7620239  11.2834597  34.1964912
  55.8028679  12.9512882  33.5169449  57.5911064  12.4122791  34.7242012
  57.7434959  11.9404640  35.6949081  58.1095963  11.7041950  34.0777626
  58.2751389  13.7541075  34.7274780  57.8019447  14.6026773  34.4515839
  59.5423164  13.9303102  35.0912056  60.3212700  13.0161057  35.4570351
  61.2083549  13.2973919  35.8495522  60.0180779  12.0632133  35.5990486
  60.1925468  15.0663223  34.8952980  61.1714859  14.9649706  35.1222496
  59.8461647  15.9716539  34.6115799  53.2141685  13.6453724  36.6470070
  53.1464577  14.8856831  36.7839203  52.7323036  12.8011246  37.6062393
  52.8004150  11.8461075  37.2846756  52.2970276  13.1827860  38.9373703
  51.8453102  14.1744795  38.9129486  51.2179565  12.1092548  39.3432465
  50.3992348  12.0291939  38.6281319  51.7342033  11.1897783  39.6192017
  50.6176300  12.6883211  40.6433792  50.6588707  13.8938351  40.9669571
  49.9309616  11.8794889  41.3643112  53.4714966  13.2685223  39.9075737
  53.7974281  12.2341137  40.4936485  54.1824493  14.3685102  39.9728775
  53.9243698  15.0754728  39.2993050  55.3826637  14.6818275  40.8323212
  55.3577957  14.2011595  41.8102989  56.6545525  14.1213017  40.1454277
  56.5695000  13.0540314  40.3498764  56.7345123  14.3715878  38.6957703
  56.6780777  15.4546242  38.5864944  57.6416245  13.9978065  38.2208595
  55.8851471  13.8743935  38.2272911  57.8090286  14.6403894  40.7589798
  58.5965004  14.1809082  40.4583740  55.4671745  16.2478027  40.8311691
  55.0427704  16.9634151  39.8908157  55.9812317  16.7544804  41.9484253
  56.5003738  16.0742474  42.4849586  56.1830406  18.1945534  42.2006569
  55.2150955  18.6835003  42.3107300  56.7735100  18.3603210  43.6355858
  56.0499153  17.9364529  44.3318939  57.7112541  17.8109493  43.7188377
  57.0419540  19.8414555  44.0705757  57.7517891  20.2246933  43.3375244
  56.0685310  20.3163433  43.9479828  57.4952927  19.9714203  45.5530357
  58.5820847  20.5457458  45.7453156  56.8845978  19.4200993  46.5010262
  57.0913315  18.8257999  41.1759262  56.8776703  19.9892387  40.8445435
  57.9697075  18.1225739  40.4612122  58.0369949  17.1311474  40.6418877
  58.8802147  18.5294838  39.3908806  59.3477478  19.4457073  39.7515030
  59.9683151  17.4013176  39.2769814  60.4481888  17.3102875  40.2514229
  59.4764481  16.4877949  38.9428520  61.0811844  17.7437267  38.2683182
  60.5815773  17.8864155  37.3101196  61.4845085  18.7170963  38.5475655
  62.1688309  16.6657066  38.0716743  61.9494820  15.4554577  38.4744606
  63.2997704  16.9169521  37.5803528  58.1720314  19.0045547  38.0755768
  58.7399826  19.7624741  37.2950592  56.8820839  18.8282127  38.0499878
  56.4549866  18.4065685  38.8623390  55.9533234  19.2884750  37.0016289
  56.5495300  19.8740635  36.3018265  55.2979012  18.1720963  36.1473885
  54.5222893  17.6265621  36.6849022  54.8325920  18.6811905  35.3033447
  56.4613152  17.1875114  35.6674805  57.3934059  17.7376690  35.5384941
  56.6204720  16.4648647  36.4678230  56.2053795  16.5497723  34.3379326
  55.0757370  16.5659561  33.8730164  57.1203117  16.1702614  33.6041794
  54.8418312  20.2386513  37.6014290  54.6972809  21.3848991  37.2248497
  54.1695061  19.6759834  38.6585846  54.3827248  18.7281532  38.9347267
  52.9581184  20.3076839  39.1081352  52.3676720  20.5790672  38.2330208
  52.1673203  19.3768997  40.1132545  52.7494125  19.2507801  41.0261421
  50.8349304  20.0053825  40.5711937  50.0400276  19.9446220  39.8278618
  50.3111916  19.5273952  41.3990402  51.0389709  21.0218296  40.9077988
  51.8929062  18.0534172  39.3789558  50.9829292  18.2196350  38.8024025
  52.6710396  17.6955643  38.7047539  51.6949730  17.0032749  40.4024734
  51.8875847  16.0701103  39.8731270  52.4260864  17.1408920  41.1991119
  50.7090454  17.0039577  40.8672752  53.1951370  21.7034512  39.6444244
  52.5712547  22.6701775  39.2554207  54.2167816  21.8706245  40.4993706
  54.7065201  21.0327015  40.7789078  54.6733627  23.0858593  41.1854324
  53.7498474  23.5146065  41.5745392  55.7354012  22.8210773  42.3142357
  55.2642593  22.2320004  43.1010742  56.3910103  22.1041927  41.8199120
  56.4702148  24.1492386  42.7474594  55.8900566  25.0163612  42.4318199
  56.5491638  24.2067566  44.2823906  55.5351753  24.1361084  44.6760063
  57.2018471  23.3844910  44.5756226  56.9876938  25.1688347  44.5473518
  57.8827667  24.3576241  42.2455063  58.5743599  23.5502663  42.4862900
  57.7684402  24.6750755  41.2090454  58.3171501  25.2421093  42.7114449
  55.2689857  24.0571861  40.0943336  54.7956123  25.1169472  39.9011955
  56.2084541  23.5324860  39.3144455  56.4146500  22.5442371  39.2836494
  56.9427567  24.3371773  38.2728310  57.5074806  25.1480389  38.7329254
  57.9839554  23.4154072  37.5577240  57.4603729  22.5519466  37.1473656
  58.3133583  23.8940773  36.6355133  59.1376610  22.9064693  38.4042778
  58.6394501  22.2618237  39.1283798  59.8031654  22.2677097  37.8236008
  60.0258865  23.9885826  39.1128502  60.0066261  25.1066074  38.7918129
  60.7597961  23.6777477  40.1724014  60.5870438  22.7355118  40.4924812
  61.1199188  24.4295349  40.7426949  55.9786339  24.9959202  37.2259521
  55.9934158  26.2132168  37.0321999  55.1161613  24.2263565  36.5689011
  55.0511856  23.2813892  36.9194946  54.2286797  24.8103542  35.6123161
  54.7591057  25.4284935  34.8879852  53.5995216  23.6256790  34.9224472
  53.1769562  22.9051933  35.6227608  52.7704163  23.8446178  34.2495689
  54.5565796  22.7351589  34.0799789  55.2092667  22.2896404  34.8307190
  54.0162315  21.9803658  33.5086441  55.4694061  23.5186176  33.1011086
  54.8853455  24.0917320  32.3810310  56.0793190  24.1797218  33.7167816
  56.3701210  22.6455135  32.1925468  57.1488953  22.2872620  32.8657990
  55.7613144  21.8549366  31.7538643  56.9950752  23.5318222  31.1968822
  57.7416611  23.1772499  30.6163769  56.2852287  23.8211575  30.5392284
  57.4653015  24.3559113  31.5430946  53.1057205  25.6978283  36.2454796
  52.7721863  26.7497864  35.6961555  52.7190323  25.4899483  37.4741020
  53.1559753  24.7238159  37.9662666  51.7863350  26.4344578  38.1552124
  50.9309921  26.5327797  37.4867630  51.1564331  25.7796192  39.3885536
  51.9751472  25.5617867  40.0743790  50.1447372  26.6101189  40.1020584
  50.5493546  27.5694580  40.4246368  49.3313980  26.8391781  39.4134979
  49.7129364  26.0993595  40.9627380  50.5907021  24.5381966  39.0384064
  51.2899323  23.8986053  39.1920242  52.4644852  27.7705822  38.5155067
  51.8373795  28.8560123  38.4704247  53.7502327  27.7558670  38.8499832
  54.0700874  26.8180733  39.0457726  54.5663643  29.0076866  39.1779594
  53.9408760  29.5085392  39.9168854  55.8172607  28.5524292  39.9044113
  55.6088066  28.0077190  40.8252449  56.4302711  27.9886169  39.2012482
  56.5432892  29.7952766  40.3751450  56.7665672  30.4670429  39.5463066
  55.8836555  30.3556499  41.0377007  57.7547073  29.4411793  41.2225227
  58.2172089  30.3654671  41.5687675  57.4791489  28.7679996  42.0343094
  58.7844963  28.6488285  40.3269119  58.3716545  27.6698284  40.0835571
  58.8724365  29.2410145  39.4160423  60.1544838  28.5121841  40.9243164
  60.3751259  27.7908974  41.5960083  60.7804146  28.2535744  40.1750259
  60.3829384  29.4351349  41.2650108  54.7175789  29.8059483  37.8995056
  54.4537010  31.0284252  37.9821777  55.2301826  29.1585751  36.8234367
  55.7736397  28.3163986  36.9479103  55.2556915  29.7018757  35.4404678
  56.0589294  30.4330692  35.3495636  55.4985619  28.5605907  34.4604492
  54.7232590  27.8141518  34.6331749  55.4387436  28.8924179  33.4239082
  56.9420433  28.0982208  34.5845222  57.5797997  28.8414783  34.1060486
  57.2313995  28.1143360  35.6352882  57.3157349  26.8117466  33.9028244
  57.0264473  26.4586620  32.7842216  58.1916656  26.1057587  34.5336571
  58.6238136  25.3353100  34.0440063  58.6566162  26.4753132  35.3505745
  53.8811569  30.3307495  35.0194855  53.8723602  31.4364834  34.5268440
  52.6571770  29.6825371  35.3255539  52.7356606  28.8239212  35.8515968
  51.2893105  30.1063347  35.0983200  51.2242317  30.4424305  34.0634766
  50.3427048  28.8827400  35.3375854  50.7793922  28.1319008  34.6790695
  50.5161171  28.4409866  36.3188515  48.8404732  29.1612625  35.1681366
  48.5737343  30.0240746  35.7784729  48.4504890  29.5724411  33.7869949
  47.3746948  29.7113342  33.6799049  49.0847054  30.3972015  33.4619675
  48.6651306  28.8109303  33.0372391  47.9844780  27.9395542  35.4372673
  48.4522972  27.1027775  34.9185677  48.0422173  27.7178574  36.5029221
  46.9519653  28.0707302  35.1135216  50.9303703  31.3172302  35.9855270
  50.3506470  32.2768745  35.4591331  51.3060341  31.4009399  37.2604599
  51.7019424  30.5448818  37.6217346  51.1131287  32.5794106  38.1194496
  50.0776939  32.9188309  38.1472321  51.5678291  32.1921768  39.5489426
  52.5149918  31.6897678  39.3525391  51.6785889  33.1593742  40.0392075
  50.6389275  31.2555256  40.4126816  50.1446762  30.4171314  39.9218559
  51.3721161  30.8063202  41.6252785  51.4505844  31.5067673  42.4567375
  50.8621025  29.9881783  42.1338348  52.4137077  30.6490364  41.3451843
  49.4492912  32.1419373  40.8321915  49.0501099  32.6493874  39.9539833
  48.6388397  31.6133480  41.3340607  49.8181801  32.8060417  41.6138535
  51.9484177  33.8148422  37.7443085  51.4840469  34.9103661  37.4847450
  53.2088852  33.5801201  37.5061264  53.5644188  32.6412849  37.6169662
  54.1005745  34.5567627  36.9264221  54.1312332  35.3642998  37.6578941
  55.4561005  33.8588562  36.7483559  55.6076202  33.3319664  37.6904449
  55.3190880  33.0321083  36.0513496  56.5929108  34.8142471  36.3138809
  57.3473701  34.1961441  35.8272133  56.2597618  35.5318298  35.5640869
  57.2002144  35.5189552  37.5129204  58.3911819  35.3292999  37.8919678
  56.5227699  36.4165649  38.0935822  53.6640434  35.2294312  35.5907974
  53.6189804  36.4660988  35.4259949  53.1541862  34.4479294  34.6733780
  53.1580963  33.4456139  34.7976723  52.5094032  34.9378433  33.3944855
  53.1549644  35.7243843  33.0037117  52.5975037  33.9333076  32.1794319
  53.5861015  33.4757195  32.2166748  51.8769684  33.1303596  32.3350143
  52.4504547  34.4249687  30.6796112  52.7465210  33.5989799  30.0329380
  51.4022064  34.6241646  30.4569035  53.1869011  35.6685829  30.2902889
  52.6953735  36.5133629  30.7728367  54.2244339  35.5136414  30.5862961
  53.2977257  35.7637787  28.7759876  53.9217949  34.9223633  28.4748955
  52.3201332  35.6115913  28.3185444  53.8311653  37.0764236  28.3362160
  54.6196518  36.9207420  27.7245350  53.1110535  37.6345596  27.9002972
  54.1717911  37.6512108  29.0936432  51.1386604  35.6372719  33.6207962
  50.8627243  36.5841484  32.9037437  50.3122902  35.1362114  34.5484085
  50.5545120  34.2465858  34.9607124  49.0601997  35.8102074  35.1188354
  48.5238342  36.0965996  34.2141876  48.3493423  34.9885406  36.1949081
  49.0409813  34.2825012  36.6545258  47.4535904  35.7197304  37.0885468
  46.9135590  36.4863472  36.5328827  46.6640167  35.0994568  37.5127335
  48.1034546  36.1563492  37.8469238  47.5301437  34.0048752  35.3688087
  46.8527412  34.5028381  34.6750832  48.1577072  33.5396461  34.6086617
  46.8663101  32.8805389  36.2154770  46.0005302  33.2874260  36.7379417
  46.5034218  31.9930649  35.6970139  47.6206551  32.5527039  36.9307327
  49.4691315  37.2270241  35.6228981  48.7599335  38.2125969  35.3958664
  50.6273651  37.3221245  36.2648354  51.0567932  36.5098610  36.6842690
  51.1607285  38.5200157  36.9352379  50.2695160  38.9277077  37.4123535
  52.0995178  38.1698074  38.0826988  52.7925224  37.4646988  37.6237106
  52.9149590  39.4045868  38.6200523  53.6164551  39.0706825  39.3845863
  53.5180321  39.8324203  37.8192024  52.3086090  40.2089653  39.0364799
  51.3774948  37.4299812  39.1953697  50.8616333  38.2004280  39.7684326
  50.6479683  36.6671982  38.9232368  52.3730278  36.6303940  40.0457268
  51.7697754  36.2494507  40.8697853  52.7386131  35.8000565  39.4415817
  53.1308517  37.3007812  40.4511681  51.7944603  39.5898972  35.9604797
  51.4935951  40.7851715  36.1899796  52.4885979  39.1245842  34.9232063
  52.6400795  38.1263962  34.8954773  52.9779587  39.9396629  33.8223915
  53.5051956  40.7583961  34.3120918  54.0343323  39.2125626  33.0203247
  54.7305717  38.8237000  33.7633820  53.6030807  38.3384361  32.5324478
  54.6964302  39.9869957  31.9103966  53.9166336  40.1802025  31.1737194
  54.9695015  40.9919815  32.2321739  55.8018608  39.1144333  31.2823601
  55.7435074  38.8446541  30.0579586  56.8673439  38.8683052  31.8526268
  51.9381676  40.6533470  32.8457527  51.9048042  41.8404655  32.8390427
  51.0427284  39.9383812  32.2147179  51.0329781  38.9454536  32.3994026
  49.9543839  40.4351006  31.2726383  50.4797897  41.0005417  30.5030079
  49.3016586  39.2479553  30.5433197  48.9014702  38.5388069  31.2679291
  48.5133553  39.6844292  29.9299927  50.2401924  38.3538704  29.6706886
  51.1632309  38.2038040  30.2306805  49.8490372  37.3532448  29.4867134
  50.5542641  38.9705086  28.3330803  51.3052521  38.3820610  27.5401936
  49.9962349  40.0348701  27.9850483  48.9988708  41.4548607  31.9831924
  48.7204552  42.5030556  31.3874321  48.7377129  41.2179070  33.2786751
  48.9090004  40.2835541  33.6218262  48.0038338  42.1284027  34.0805740
  47.4894333  42.8442268  33.4394150  46.8757401  41.4159088  34.8815575
  47.4803085  40.8819542  35.6146965  46.2570457  42.2101555  35.2992744
  46.0815582  40.5236244  33.9931946  45.2068024  40.9935951  33.3143501
  46.3403244  39.2039452  33.9654961  45.7644501  38.6202850  33.3757362
  47.0683823  38.7596512  34.5064545  48.8203125  43.0969925  34.9594269
  48.1782684  43.9091225  35.7069664  50.1739769  43.0918198  34.9816475
  50.6303978  42.3535690  34.4651527  51.1010590  44.0718079  35.6771584
  52.1019020  43.7486458  35.3908234  50.8549271  45.4973717  35.1125107
  49.8968964  45.8783226  35.4662781  51.6275978  46.1524887  35.5148735
  50.8922539  45.5754433  33.5771790  51.8843307  45.2189140  32.7536774
  52.7997475  44.9109344  33.0490685  51.4615898  45.3639603  31.4594879
  51.9998322  45.1402168  30.5502930  50.2260475  45.8913460  31.4677563
  49.6426849  46.1782379  30.6947880  49.8725700  45.9866638  32.7742538
  48.9985504  46.4606895  33.1959152  51.0054893  44.1687737  37.2497101
  51.3575554  45.1651917  37.9138947  50.5581627  43.1037750  37.8035393
  50.2279549  42.4734268  37.0867958  50.1511307  42.8136330  39.2071342
  49.4030762  43.5790977  39.4134827  49.4879074  41.4143333  39.2679367
  50.2404022  40.6349335  39.1479607  48.6081123  41.1651039  40.5183601
  47.8323784  41.9283028  40.5804863  48.1992989  40.1667976  40.3623047
  49.1790619  40.9866486  41.4295540  48.5111427  41.1594772  38.2331161
  47.7613068  41.7305298  38.4154358  51.3074150  42.9171028  40.2027779
  52.4682503  42.7048950  39.8584290  50.8915443  43.0851974  41.4710274
  49.9542465  43.3775864  41.7078400  51.6823158  42.8581810  42.6600800
  52.6055450  42.3603439  42.3635902  52.1013680  44.2736206  43.1332359
  52.9224243  44.0982780  43.8283806  52.6536751  44.7635841  42.3313675
  51.1787605  45.3070679  43.7969894  50.3714256  45.7062531  43.1830101
  50.5553055  44.9320908  44.6086540  52.0171700  46.5753899  44.1599693
  52.8741608  46.4352074  44.8187714  52.2161331  47.1800995  43.2751846
  51.2049828  47.4518089  45.1438179  51.0785446  46.9104195  46.0813751
  51.7200432  48.3822632  45.3827171  49.9027176  47.7623405  44.5573463
  49.2660255  46.9902382  44.6936455  49.6010094  48.5954285  45.0421600
  49.9927483  47.9362564  43.5665131  50.9075165  42.0535812  43.7143974
  49.7145500  41.9511223  43.6502800  51.6391678  41.5680122  44.7486267
  52.9947548  41.8687363  45.1001968  52.8382378  42.6739426  45.8180008
  53.5985451  42.2137489  44.2608490  53.5851898  40.6096039  45.7087822
  54.3005028  40.8422661  46.4976387  54.1596146  39.9764862  45.0325317
  52.3923836  39.8698654  46.2293930  52.3425407  39.8778038  47.3182297
  52.3020287  38.8090553  45.9956894  51.1345673  40.5064964  45.6554108
  50.5019035  39.7889557  45.1329346  50.2144089  41.0554886  46.7142830
  49.2429733  40.3901329  47.0531540  50.5120049  42.2601700  47.1332741
  51.3042030  42.7469826  46.7388878  49.6176262  43.0605125  48.0296440
  49.5654945  42.5891876  49.0110893  50.2927437  44.4525490  48.0486221
  50.6102753  44.7990646  47.0651588  49.5001640  45.0943413  48.4333649
  51.4506836  44.5261078  48.9327545  51.0208244  44.4538116  49.9318047
  52.1296082  43.6793671  48.8317909  52.1915398  45.8508301  48.7682037
  53.1653748  45.8203125  47.9824524  51.8039207  46.8302956  49.4809456
  48.1577187  43.2859344  47.5048866  47.2375145  43.6130524  48.1843834
  47.9080963  43.1699638  46.2114258  48.6642494  42.8814621  45.6071968
  46.6321297  43.3804169  45.5581322  46.0795898  44.1943970  46.0274277
  46.8170433  43.7693977  43.9895554  47.3128662  42.9915085  43.4089165
  45.7684669  43.8420906  43.7009201  47.4624443  45.0642662  43.8054199
  47.9953041  45.6733246  44.7716484  47.5025864  45.5021248  42.5890770
  45.6146049  42.2181015  45.6766129  44.4200783  42.5735130  45.5516891
  46.0289955  40.9648438  45.8174858  46.9954453  40.9202538  46.1074677
  45.1113853  39.7723846  45.8979416  44.2788467  39.8303680  45.1967888
  45.7661209  38.4606514  45.4887314  46.6870995  38.3223572  46.0551071
  44.9348831  37.2070770  45.5905724  44.8000450  37.0906754  46.6659164
  43.9919395  37.3158112  45.0547256  45.5330162  36.3424187  45.3029861
  46.1765137  38.4750328  44.0073776  46.8080940  37.6180077  43.7734489
  45.2824402  38.5866470  43.3939629  46.7918587  39.3581657  43.8355446
  44.3729706  39.6764603  47.2283936  44.9468613  39.4121094  48.2889595
  43.0212097  39.5942345  47.2001648  42.6039886  39.5955276  46.2803688
  42.0902710  39.3740730  48.2622108  42.3077126  40.0132790  49.1179199
  40.6761360  39.6454010  47.6003838  40.4839325  38.8461761  46.8845596
  39.6431770  39.4135208  48.6351776  39.6762352  40.2160301  49.3720512
  38.6761322  39.3742676  48.1338043  39.8280907  38.5180321  49.2284889
  40.5550308  40.9978218  46.8909836  41.2619629  41.0914764  46.0666199
  39.5684814  41.1366730  46.4487839  40.8053246  41.8025894  47.5822182
  42.2972488  37.9507179  48.8427925  42.4881897  37.7528534  50.0038414
  42.3490715  36.9960480  47.9565773  42.2517548  37.4056473  47.0385017
  42.3434944  35.5134964  48.1891518  43.2400970  35.2676201  48.7581482
  41.1336479  35.0204697  48.9122849  41.4087029  34.0080032  49.2078514
  40.9872437  35.5914459  49.8291550  39.8550034  35.0351753  48.1115646
  38.9906540  35.3148270  48.7138939  39.9139481  35.8234825  47.3610992
  39.5831718  33.6630821  47.4961472  39.2217255  32.7235222  48.1492577
  39.4632950  33.5776367  46.2288437  39.1853027  32.6678009  45.8896942
  39.4972839  34.3924370  45.6329880  42.5629578  34.8101959  46.8581696
  42.2522125  35.3019943  45.7504616  43.1468582  33.6174850  46.8150749
  43.5008011  33.1741333  47.6506958  43.1885452  32.7667160  45.6455841
  42.3528061  33.0604324  45.0104713  44.4885750  32.9795074  44.8744774
  44.5119820  34.0454178  44.6477890  45.2919960  32.8340187  45.5965958
  44.8530426  32.0320892  43.6487427  45.3538246  31.1070423  43.9344101
  43.9605942  31.6990967  43.1188850  46.0915108  32.7804680  42.5936394
  47.4599419  32.7937126  43.8103065  47.1081238  33.4572296  44.6002922
  47.5430298  31.7394485  44.0743675  48.3588333  33.2206001  43.3654900
  42.9103127  31.2653294  45.9705963  43.0952034  30.8250694  47.1009903
  42.3330650  30.5251389  45.0111084  42.2889938  30.9634991  44.1022606
  41.8572159  29.1690979  44.9806099  42.0493317  28.6854401  45.9383507
  40.3421631  29.1735325  44.7550697  40.2161522  29.9559326  44.0066872
  40.0153770  28.1814995  44.4433327  39.5372734  29.5430889  45.9965591
  39.9396362  30.4914665  46.3526268  38.1009941  29.7396412  45.6670189
  37.9424782  30.4405537  44.8474503  37.5409088  28.8363094  45.4253616
  37.5727081  30.1253147  46.5389519  39.5019341  28.4597530  47.0733757
  39.3778801  27.5202103  46.5348778  40.4584618  28.3230438  47.5778236
  38.6511383  28.6723022  47.7207336  42.5945816  28.4252491  43.8482246
  42.6243858  28.7964859  42.7040062  43.2248535  27.3010540  44.2551384
  43.1287994  26.9486637  45.1967812  43.8174362  26.3230419  43.2194977
  43.7242813  26.7747707  42.2318916  45.2791061  26.1366959  43.4186401
  45.4120255  25.7098656  44.4127502  45.7376747  25.4562683  42.7011223
  46.0869293  27.5185699  43.3372803  45.4250374  28.1855011  42.7848320
  46.3053322  28.1245403  44.7514267  45.3532639  28.5759792  45.0304909
  46.6364746  27.3634796  45.4579926  47.0442009  28.9242191  44.6995773
  47.4129982  27.2953777  42.5660057  47.3401451  26.7441044  41.6285172
  47.8270340  28.2789803  42.3441963  48.0074844  26.6748447  43.2365456
  43.0094070  25.0192375  43.1368790  42.2631264  24.8023243  44.0433807
  43.2936592  24.1572666  42.1470985  44.0323715  24.3903923  41.4989815
  42.8821144  22.7695465  41.9547195  42.9125328  22.3647919  42.9663277
  41.4496346  22.8178501  41.3888741  40.8503418  23.3289490  42.1423531
  41.2987404  23.3613281  40.4561501  40.9293327  21.5690746  41.2855644
  40.8108101  21.2371349  42.1785202  43.7985077  22.0412750  40.9219856
  44.2670212  22.6063251  39.9222298  43.8439217  20.6959705  41.0610466
  43.5040970  20.3243828  41.9365692  44.3442116  19.8015232  40.0342484
  44.2065582  20.2993183  39.0743752  45.8468513  19.4940758  40.2825050
  45.9313049  18.8064880  41.1240501  46.1866379  18.9425697  39.4058685
  46.4239388  20.4104652  40.4062042  43.4577789  18.5096378  40.0839691
  42.6253052  18.2844257  40.9772263  43.5377922  17.7257118  39.0350723
  44.3272934  17.9393711  38.4425049  42.6317635  16.6699104  38.6853409
  41.6054268  16.9986954  38.8485489  42.9076729  16.2753334  37.1653786
  42.4412308  15.3523417  36.8209648  42.3259468  17.3770256  36.2591591
  41.3342438  17.7614269  36.4976196  43.0596924  18.1797676  36.3321075
  42.3564224  17.0442524  35.2216415  44.1993179  16.2198429  36.8258781
  44.4433632  15.2932606  36.8849411  42.8546638  15.4426498  39.6725616
  43.9265137  15.2479372  40.2290306  41.7613602  14.6390285  39.8756981
  40.5926018  14.5667629  39.0322914  40.8241806  13.9514694  38.1628761
  40.1952858  15.5587254  38.8172226  39.5458031  13.8461237  39.9553261
  38.7892227  13.3265085  39.3673706  39.0656776  14.5415468  40.6437759
  40.3873596  12.8516893  40.8471184  40.2750511  11.8470230  40.4395256
  40.1056938  12.9559441  41.8949242  41.8150558  13.3584700  40.7019196
  42.3144264  13.6982479  41.6092644  42.8423691  12.2561741  40.1785812
  42.8976021  11.1811094  40.6757355  43.7004128  12.5607443  39.2566528
  43.7113075  13.4800329  38.8384438  44.9318123  11.7428484  38.8082809
  44.9081955  10.7472334  39.2513313  44.8281021  11.3628893  37.3122215
  45.6689453  10.7087564  37.0815773  43.9622459  10.7413187  37.0840836
  44.7319031  12.5273113  36.2732620  44.5446587  13.7181139  36.6539116
  44.5322914  12.2184706  35.0926399  46.2866859  12.4759626  39.1531372
  47.3472748  11.9916468  38.8770256  46.2287407  13.6017942  39.8407555
  45.3328476  14.0623779  39.9137955  47.3913307  14.2351837  40.4108391
  48.2612038  13.6232796  40.1721077  47.3963318  15.6028004  39.7444992
  46.4097252  16.0657463  39.7247543  48.0620193  16.2379627  40.3289070
  47.8386612  15.5707273  38.2582817  47.2423744  14.9647446  37.5761299
  47.8947105  17.0355110  37.7802315  48.5280342  17.6366959  38.4325981
  48.0756416  16.9726887  36.7071877  46.9065323  17.4810028  37.8948784
  49.2378044  14.9997873  38.0616798  49.9923630  15.4391632  38.7141228
  49.1577187  13.9240732  38.2182846  49.6028137  15.1612310  37.0473785
  47.2150497  14.3523436  41.9165535  46.1352997  14.7981119  42.3842087
  48.2452621  13.9006901  42.6601067  49.0773239  13.5299797  42.2238159
  48.2384682  13.9696980  44.1189232  47.7007904  14.8887529  44.3520355
  47.4532890  12.7877569  44.8235893  48.1692886  11.9680929  44.7636452
  47.1571770  13.0204840  45.8464546  46.2351685  12.2353821  44.2307396
  46.0919456  11.5561161  43.0288200  46.8628044  11.2182379  42.4705086
  44.7917480  11.2622461  42.9655380  44.4560814  10.5121031  42.2648125
  44.1183052  11.6658764  44.0244598  43.1294098  11.5526342  44.1958199
  45.0108948  12.3337078  44.8183022  44.7173347  12.7844448  45.7548180
  49.5958023  14.1546183  44.8903198  49.7359009  14.0409632  46.1054497
  50.7721405  14.4088898  44.1871376  50.7468109  14.4413395  43.1779785
  52.0541191  14.5802164  44.7870712  52.4019547  13.6542768  45.2450485
  53.1165085  14.9203568  43.7214241  53.0051384  15.9297771  43.3254776
  54.0850983  14.8879356  44.2203064  53.1342964  14.0921106  43.0130539
  52.1083298  15.7849159  45.7640419  53.0028992  15.8279057  46.5816193
  51.2918930  16.7907238  45.6256714  50.5817642  16.7113495  44.9118690
  51.5432053  18.1495991  46.1556702  52.0561371  18.0152626  47.1080132
  52.6211891  18.8447628  45.2443352  53.5383797  18.2588634  45.3041801
  52.3388672  18.9479485  43.7234917  52.1202164  17.9290524  43.4038963
  51.5289116  19.6624641  43.5767288  53.2621422  19.1877708  43.1960945
  53.0690498  20.2577248  45.6274033  53.8444672  20.5756073  44.9304276
  52.2887459  20.9827137  45.3958397  53.4258232  20.4371014  46.6416206
  50.2758598  19.0278683  46.2177925  49.4722481  18.8798714  45.3316612
  50.0493202  19.7964172  47.2669411  50.7356186  19.7885303  48.0079079
  49.0915108  20.8867188  47.1935234  48.1179428  20.5051689  46.8858070
  48.8570671  21.5677357  48.6036758  49.8050728  21.9260368  49.0049248
  48.2896881  22.4917774  48.4926376  48.2289658  20.6446514  49.6923370
  46.8022957  20.4898205  49.7736015  46.2695923  21.0003395  48.9849319
  46.2832794  19.6661777  50.7338829  45.2049484  19.6595058  50.7935677
  47.1374474  19.0045624  51.6344910  46.7748871  18.4091892  52.4594002
  48.5320244  19.1819324  51.5435600  49.2648659  18.6533852  52.1351547
  49.0670013  19.9127979  50.4955673  50.1314392  20.0325565  50.3576012
  49.5148811  21.9407940  46.1535645  50.5898743  22.4897575  46.3459167
  48.6673622  22.4406319  45.1895142  47.3044281  21.9667511  44.8414574
  46.6244278  22.7398987  45.1991539  47.1536255  20.9241238  45.1212692
  47.2702980  22.1283779  43.2825623  46.2042160  22.1557102  43.0571327
  47.7446098  21.3465271  42.6894035  48.0702286  23.4133015  43.0547867
  47.5273705  24.3393555  43.2440720  48.4267006  23.4831505  42.0270920
  49.1189995  23.3821812  44.1980782  50.0308151  22.9294300  43.8085785
  49.4627686  24.7800083  44.7195930  50.2827034  25.4245625  44.1091118
  48.9252129  25.0605907  45.9820976  48.4296227  24.3239040  46.4635391
  49.2530670  26.2866173  46.7276802  48.9131660  27.1765690  46.1980057
  48.6237411  26.0187531  48.0896225  49.2213707  25.2421131  48.5668793
  48.8749619  26.8169651  48.7880783  47.5916214  25.6685505  48.1034889
  50.7741890  26.5579891  46.8265381  51.2409782  27.7487831  46.7087021
  51.6224098  25.5078087  46.9816208  51.1942215  24.5941868  46.9363060
  53.0755768  25.6290684  47.2040291  53.3126373  26.1078510  48.1541176
  53.6017342  24.1811028  47.3656807  52.9780617  23.7785091  48.1638412
  53.5354195  23.6065598  46.4417725  55.1194038  24.2315273  47.8231277
  55.7457657  24.8144474  47.1478691  55.2389374  24.6694641  48.8141060
  55.8065720  22.8577137  47.7119141  55.6544418  22.4137955  46.7280998
  56.8723907  22.9888115  47.8988457  55.3845520  21.8852577  48.7953758
  55.1221428  22.4070969  49.7156601  54.4002495  21.5725613  48.4468498
  56.3019295  20.7633953  49.0637589  55.9256477  20.1023083  49.7281990
  56.3692207  20.2630501  48.1889839  57.2089500  21.0583858  49.3960152
  53.8061066  26.4648418  46.1365318  54.7445107  27.2331352  46.5004768
  53.4376411  26.3762722  44.8443489  52.6878281  25.7101250  44.7254906
  54.0145645  27.1998158  43.7359505  55.0575447  26.9673119  43.5209236
  53.1778603  26.7837353  42.4314690  53.3342934  25.7404461  42.1572762
  52.1245117  27.0253143  42.5735931  53.4420509  27.4369240  41.5998154
  53.8135567  28.7507668  44.0344810  54.6421661  29.5493584  43.6324043
  52.7731133  29.2036819  44.8207779  52.0483856  28.5759335  45.1382713
  52.6067009  30.6572971  45.2671776  52.6883049  31.2516766  44.3571472
  51.1656532  30.8663597  45.8347321  51.0421982  30.4314537  46.8265572
  50.7408676  32.3080673  46.1294212  51.3346138  32.7583427  46.9249268
  50.9684105  32.9317436  45.2649269  49.6556282  32.3329163  46.2280960
  50.1014290  30.2768383  44.9089661  49.8365517  31.0893784  44.2324219
  50.4394379  29.3123550  44.5299873  49.2014923  30.1054516  45.4995918
  53.7243309  31.1774483  46.2432327  54.0658112  32.3601570  46.0098877
  54.2012596  30.3945866  47.2337341  53.9098320  29.4286137  47.2791977
  55.1744423  31.0519886  48.2178268  54.8019218  32.0559273  48.4213791
  55.1808891  30.3985405  49.6825333  55.9129906  30.8741646  50.3351479
  54.1755295  30.4989586  50.0915108  55.6089211  28.9205208  49.7680473
  54.9502602  28.4726887  49.0239296  56.6534996  28.8239288  49.4720192
  55.4438553  28.4314156  51.1946335  56.3942642  28.4833870  51.7257805
  54.7425079  29.0310993  51.7747993  55.0438461  27.0389767  51.1818123
  55.7384224  26.3883896  51.5200386  53.8869972  26.5018539  50.8830872
  52.9633980  27.2072430  50.3282738  52.0959702  26.6952477  50.2538948
  52.9692001  28.2158432  50.2754478  53.6410446  25.2323189  51.1535873
  52.7367058  24.8440266  50.9266167  54.4308128  24.6303749  51.3380508
  56.5859871  31.1664124  47.6624832  57.4191322  31.8451214  48.2320480
  56.8137817  30.6367931  46.4586067  56.1543121  29.9309254  46.1637344
  57.9499588  30.7159195  45.5767975  58.7719154  30.7530842  46.2917099
  57.9767189  29.3435917  44.8083038  57.1138382  29.3233395  44.1426277
  58.8463364  29.2691784  44.1553612  58.0582924  28.0513706  45.6786842
  57.2952499  28.0753059  46.4566879  57.9642563  27.1997070  45.0049362
  59.2712555  27.8612518  46.5552139  60.3777046  27.6683960  46.0409584
  59.1076088  27.7136631  47.7939034  58.0900040  31.9226761  44.6572304
  59.1622047  32.0863647  44.0532913  57.0385132  32.7626228  44.5758171
  56.3428001  32.5898438  45.2873192  57.0622025  34.1188698  44.0523224
  57.8902359  34.2985954  43.3666344  55.7970009  34.3964272  43.2050209
  54.9460144  34.1057625  43.8210030  55.6285629  35.4083138  42.8364830
  55.7054176  33.5729256  41.9559288  55.6357689  32.5146637  42.2075958
  54.4475784  33.9362984  41.1622925  53.5780678  33.7764893  41.7998810
  54.5648842  34.9295540  40.7289543  54.4012070  33.1896973  40.3694916
  56.8980446  33.6389122  41.0495033  56.5906487  33.2530518  40.0775375
  57.0972595  34.6884460  40.8329620  57.7640114  33.1139183  41.4527245
  57.2079887  35.1740761  45.1702423  56.6941948  34.8937836  46.2546082
  57.8671608  36.2767944  44.8845711  58.1895065  36.5331688  43.9623604
  58.2954826  37.2215576  45.8903046  58.5425377  36.5386200  46.7031136
  59.6527290  37.8892288  45.4594269  60.1312103  38.4513130  46.2614365
  60.2722702  37.0493546  45.1449699  59.5399971  38.7899513  44.4144173
  59.4643936  38.3237305  43.5786400  57.2473183  38.1884460  46.4635124
  56.5787430  38.7643356  45.6630745  56.9142685  38.1995392  47.7739754
  57.3496208  37.5270081  48.3890190  55.7839470  38.7843513  48.4691010
  56.1453247  38.9668388  49.4811325  55.6357460  39.7811852  48.0538216
  54.4967079  37.9448318  48.5235329  53.6307220  38.2611847  49.3597565
  54.4090157  36.9486313  47.6199532  55.2269859  36.6653442  47.0995941
  53.1896973  36.1665993  47.3763962  52.3449554  36.8485222  47.2789536
  53.4032249  35.5066452  46.0070190  54.4180183  35.1162682  45.9302406
  52.6978951  34.7022095  45.7984581  53.2553825  36.4194450  44.8914261
  54.2596703  37.1115723  44.3118286  55.3062096  36.9945412  44.5515404
  53.6898041  37.8756485  43.2815170  54.2707558  38.3431320  42.6003036
  52.3217239  37.8616638  43.2883224  51.3838005  38.4593735  42.4546356
  51.5903625  39.3009911  41.8101120  50.0099449  38.0705147  42.6081810
  49.1851234  38.4713402  42.0377350  49.6521912  37.1887016  43.5790749
  48.6355209  36.9829636  43.8798294  50.6694565  36.5940514  44.3527374
  50.3396263  36.0527763  45.2271729  52.0440865  36.8268661  44.2308502
  52.8683434  35.1478958  48.4910278  51.7121620  34.7746925  48.5775452
  53.9036026  34.7891922  49.3565483  54.7570648  35.3164330  49.2393913
  53.7286110  33.9637794  50.5757904  53.3311386  33.0099716  50.2288513
  55.0455856  33.7273483  51.3652306  54.7674217  33.0602417  52.1811295
  55.8314819  33.2734985  50.7615013  55.6228943  35.0319481  52.0228767
  54.9299812  35.6886482  52.5489197  56.3569145  34.8576393  52.8096008
  56.3966522  35.9670372  51.0458031  56.4292450  35.8485489  49.8231926
  57.0834503  36.9063148  51.5317154  57.4844704  37.5769768  50.8917999
  57.3822975  36.8852654  52.4962616  52.6354294  34.5294724  51.5735626
  51.8493423  33.7457695  52.1531334  52.5326118  35.8003998  51.6631317
  53.1362495  36.3736343  51.0911865  51.3860092  36.3700333  52.4665451
  51.3491096  35.8670082  53.4328308  51.6544838  37.8181801  52.8235931
  51.7690620  38.4177895  51.9205780  50.8127060  38.2765884  53.3426018
  52.9937172  38.0260696  53.6187820  53.0260162  37.4840469  54.9247742
  52.1666489  37.0117188  55.3773193  54.1847038  37.5908890  55.7210655
  54.1846771  37.1418610  56.7033005  55.3263435  38.2596092  55.2076149
  56.4569321  38.3259277  55.9630775  57.0866470  38.7461433  55.3727570
  55.3423080  38.6402893  53.8254814  56.2412148  39.0095100  53.3542557
  54.1479568  38.5678520  53.0681000  54.1049347  38.9251671  52.0498314
  50.0449791  36.3624878  51.7519493  49.0831261  36.5574951  52.5034294
  49.9539719  36.1608391  50.4464874  50.8090134  35.8252487  50.0265045
  48.6589241  36.0799561  49.7370796  48.0448685  36.9211502  50.0586853
  48.7526283  36.0764198  48.2267418  49.5078468  35.3301964  47.9799614
  47.3591423  35.6951103  47.5860405  46.5763054  36.2375412  48.1161652
  47.4130592  35.8944740  46.5157852  47.1291504  34.6299667  47.5598221
  49.2304802  37.4195633  47.6899796  50.2248077  37.6562576  48.0686378
  49.1863670  37.4230003  46.6008759  48.4920578  38.1792984  47.9461784
  47.9747238  34.7695045  50.2704964  48.5770988  33.7002335  50.2078972
  46.6972733  34.8062477  50.6980858  45.8394585  35.9649467  50.8657570
  45.3621559  36.0743103  49.8919411  46.3870850  36.8759155  51.1072960
  44.8101349  35.5598297  51.9775162  43.8048973  35.8712006  51.6935272
  45.0488815  36.0270920  52.9329071  44.8496056  34.0563164  52.1257248
  43.8601723  33.7435074  51.7921448  44.7712212  33.6233482  53.1229706
  46.0270271  33.5535011  51.2637291  46.6774139  33.0058937  51.9458008
  45.5367165  32.6281815  50.1826096  45.0598106  33.0505905  49.1332474
  45.6339340  31.3128300  50.4390907  45.8900871  31.0021896  51.3653679
  45.3366508  30.1640854  49.5041428  44.6278191  30.5774765  48.7866707
  46.6439362  29.7402840  48.7817154  46.5144386  28.8425617  48.1772118
  46.9970589  30.8286629  47.7395935  46.1071930  30.9035282  47.1145935
  47.2860527  31.7375965  48.2672501  47.8058929  30.3888512  47.1561089
  47.8805618  29.4631424  49.6718292  48.1133614  30.3906384  50.1949615
  47.6252480  28.7158375  50.4231300  48.7914009  29.2079525  49.1302147
  44.6658669  28.9394321  50.1526375  44.8676109  28.6962261  51.3409996
  43.8301125  28.1855488  49.4222183  43.4936333  28.4922409  48.5206490
  43.4223900  26.7848377  49.7481575  44.3309441  26.2776909  50.0728531
  42.3805161  26.6209908  50.8986588  42.3303375  27.5267639  51.5029411
  41.0130386  26.4768047  50.1995430  40.9853210  27.0963726  49.3031807
  41.0058861  25.4067841  49.9919128  40.1979713  26.7656059  50.8631401
  42.5091820  25.5514927  51.7716942  42.4781647  24.7121124  51.3068504
  43.1083794  26.0963650  48.3863029  42.9601021  26.7807655  47.3814659
  43.0118065  24.7967377  48.3381233  43.0286751  24.3773270  49.2567711
  43.0270119  23.9150066  47.1226273  43.1670609  24.5731869  46.2651367
  44.1852837  22.8944168  47.2281265  44.0719681  22.3438911  48.1620331
  44.1850395  22.0675335  46.5179405  45.7660370  23.8269348  47.2194328
  45.5600357  24.2843761  48.4576607  41.7176590  23.0878410  46.9182281
  41.4933777  22.1369057  47.5837135  40.9236946  23.4646931  45.9580002
  41.3115578  24.1581421  45.3344727  39.6655197  22.7966423  45.5801468
  39.0064392  22.7690849  46.4478760  38.9229088  23.5958004  44.5173454
  39.4590302  23.4909172  43.5741196  37.9514618  23.1963634  44.2260437
  38.8015747  25.1102600  44.6997528  37.9938393  25.2659130  45.4149017
  39.6608315  25.5993977  45.1585846  38.4149437  26.1384106  43.2338524
  39.7339363  25.9423065  41.9924622  39.4272537  26.4357605  41.0702171
  40.6416016  26.3393669  42.4469795  39.7954865  24.9002800  41.6786270
  39.9087334  21.4006443  44.9884033  40.7751923  21.2105045  44.1131439
  39.1668167  20.4137020  45.4114571  38.6167755  20.5520611  46.2471657
  39.0189781  19.1253033  44.7031250  40.0164871  18.7423134  44.4877319
  38.3163872  18.1039486  45.5693130  38.9528542  17.9793758  46.4453773
  37.3485641  18.4858913  45.8941956  37.9916687  16.6966496  45.0403328
  37.2879105  16.1397057  45.6589088  37.4741135  16.9792404  44.1236076
  39.1843452  15.8696852  44.6529350  40.2790985  16.1995506  45.1064682
  39.0800056  14.7838182  43.9389458  38.1683655  14.6245794  43.5343933
  39.9277229  14.2561541  43.7871246  38.2934952  19.2843781  43.3626900
  37.1952171  19.8473511  43.3084221  38.8849792  18.8031158  42.2854385
  39.7431450  18.2914982  42.4334145  38.2695808  18.7995491  40.9907341
  38.0038834  19.8131733  40.6906204  39.3330765  18.4321823  39.9729271
  40.1726913  19.0985470  40.1706734  39.6487198  17.4198799  40.2253532
  39.0729446  18.5485363  38.4714813  39.7749138  17.9000931  37.9472084
  38.0539017  18.1616974  38.4712791  39.1476097  19.9818172  38.0179100
  38.7655869  20.8973083  38.7105179  39.5846367  20.2308693  36.8549995
  37.1984558  17.6629276  40.9154015  37.4564590  16.5576706  41.3521271
  36.0007324  18.0031815  40.4709053  35.9352684  18.9154587  40.0424614
  34.9087143  17.0349026  40.1360397  34.6850243  16.4503536  41.0284309
  33.5434761  17.7661896  39.8970108  32.8263550  16.9463177  39.9376869
  33.3456879  18.4809456  40.6958275  33.1606293  18.3429699  38.5602837
  33.6663322  19.3014431  38.4432602  33.3834686  17.5423260  37.8550072
  31.4201946  18.5751534  38.3806152  30.7927837  16.8378506  38.1077232
  31.3802204  16.2296829  37.4198647  30.9355125  16.3571949  39.0755539
  29.7028294  16.8454800  38.1139603  35.2407532  16.1074276  38.9323807
  35.7580986  16.5539532  37.8892326  34.8173332  14.8817959  38.9629860
  34.3653679  14.5274668  39.7938194  35.2065811  13.8912706  38.0257645
  36.2334862  14.0685654  37.7061844  35.2474480  12.5258446  38.6793365
  35.8335419  12.6152773  39.5939941  34.2604599  12.0775957  38.7935410
  35.8351250  11.4704809  37.7490540  36.0644341  10.3506937  38.2570496
  35.9319496  11.6646080  36.5249748  34.2735939  14.0090199  36.7552567
  33.0599785  13.7341194  36.8478584  34.7359123  14.2901220  35.5231171
  35.7393227  14.3385210  35.4185867  33.9641380  14.3483105  34.2851906
  32.9895897  13.8952971  34.4672279  33.6548729  15.8226547  33.8964653
  34.6296883  16.2927494  33.7666702  32.7775803  15.8367205  32.6421280
  32.7055626  16.9031563  32.4285049  33.3625526  15.3672028  31.8512669
  31.7806034  15.4395857  32.8329773  32.9858780  16.5871620  35.0375824
  33.1054192  17.6387730  34.7769623  31.9351654  16.2972488  35.0298386
  33.2871895  16.3406563  36.0556908  34.6229248  13.5617838  33.1408806
  35.8447876  13.7354975  32.8910866  33.8402100  12.8085051  32.3758430
  32.8804703  12.6412077  32.6423187  34.4212379  12.0637808  31.2960052
  35.2494164  11.4303217  31.6137447  33.4219131  11.0829191  30.6271248
  33.9718704  10.4059525  29.9733944  32.7435417  10.1537123  31.6714039
  32.2760887   9.2829027  31.2117481  33.4924583   9.8418293  32.3993835
  32.0020103  10.6385994  32.3063202  32.4934311  11.7000284  29.8548260
  31.8026218  12.1867428  30.3103371  35.1081429  12.8680382  30.2102604
  36.2227859  12.5393400  29.7648144  34.4140167  13.9006052  29.6624565
  33.5162582  14.0635395  30.0955601  34.9427109  14.8917437  28.7303352
  35.4495811  14.4569139  27.8688831  34.0696411  15.4192019  28.3460999
  35.8415565  15.8172150  29.3848553  36.3960419  16.6880074  28.7511559
  36.0925598  15.7344074  30.6675835  35.7128487  14.9352312  31.1546516
  37.1409416  16.5219116  31.3504944  36.9609222  17.5492516  31.0338421
  37.0947876  16.3997402  32.4326439  38.6011963  16.0299320  31.0949039
  38.8996124  14.9025106  30.7178669  39.5462189  16.9771175  31.2196121
  39.2092972  17.8859673  31.5034676  40.9302750  16.7181492  31.0964966
  40.9883804  16.3839798  30.0606117  41.6877823  18.0677814  31.1177406
  41.3879013  18.6529255  31.9870968  42.6699142  17.6714134  31.3754444
  41.8485374  18.9132748  29.8485661  42.3501244  18.3286839  29.0773506
  40.5264320  19.4519501  29.3724594  39.8059464  18.6850052  29.0882053
  40.0624924  20.0174923  30.1805592  40.8302422  20.0530472  28.5154362
  42.6986542  20.1465092  30.2168865  43.6622772  19.7857285  30.5765629
  42.8308372  20.7957191  29.3513508  42.2083168  20.7915897  30.9459553
  41.5153351  15.7127304  32.1996498  41.0053291  15.6548996  33.3204002
  42.5361099  14.9961681  31.8748264  42.6970634  15.0746613  30.8808289
  43.4823151  14.2321014  32.6708527  43.1598930  13.9053974  33.6594925
  43.9458656  12.9704227  31.8472710  44.3045502  13.2755947  30.8642559
  44.7884979  12.5787687  32.4170723  42.9206200  11.8979006  31.5810375
  42.4926872  11.6450834  32.5511208  42.1882858  12.3563080  30.9164639
  43.5777664  10.6751575  30.9269943  44.1746902  11.0668020  30.1033459
  44.2299156  10.1616087  31.6334400  42.6550674   9.6212521  30.3543663
  43.1973495   8.7212210  30.0645790  41.8835487   9.4037256  31.0929737
  41.9740257  10.0691013  29.1021461  41.5483170   9.3157139  28.5812988
  41.2074432  10.7228985  29.1728439  42.6343994  10.4064693  28.4164410
  44.6750984  15.1461010  32.9766197  45.1979294  15.7378588  31.9488144
  45.2038994  15.1673126  34.2241936  44.7252998  14.5720844  34.8850594
  46.5325546  15.7352448  34.6072350  46.5162125  15.6744146  35.6954155
  47.8087692  14.9767189  34.2300415  47.8609505  14.8820763  33.1454124
  48.7356911  15.4554071  34.5459137  47.8023643  13.5383844  34.7579155
  47.6467705  13.5585375  35.8365669  46.9310608  12.9736767  34.4261971
  49.0222092  12.7015810  34.3560257  49.9015083  13.2406368  34.7086601
  48.9529839  11.7513046  34.8854446  49.1408463  12.3945341  32.8409233
  48.1042709  12.2771883  32.5249443  49.6449509  13.2147417  32.3298111
  49.8698387  11.1115198  32.6555595  49.6556473  10.4466953  33.3851013
  49.5884514  10.7478514  31.7562981  50.8691025  11.2569504  32.6761131
  46.5988426  17.2684669  34.2988930  47.5449409  17.6310997  33.5849648
  45.5727158  18.0504055  34.6757660  44.8323669  17.6017189  35.1960220
  45.4981575  19.4362068  34.4577942  46.3228836  19.7837181  33.8355713
  44.1620331  19.7397060  33.7218742  44.2291641  19.1374531  32.8158493
  43.3106689  19.3371334  34.2707024  43.8241348  21.4730644  33.3410645
  45.0069962  22.0652657  33.5282326  45.4742699  20.1474819  35.8575821
  45.2331429  19.4833431  36.8799553  45.8716812  21.4359245  35.8635559
  46.2183609  21.8187580  34.9955978  46.0152893  22.3353233  37.0235863
  45.3922005  21.8739853  37.7897644  47.4752808  22.5501614  37.5031738
  47.8668671  22.9298077  36.5594444  47.5566978  23.5868587  38.6220932
  48.4874001  23.3995571  39.1576462  47.5698776  24.5899773  38.1958542
  46.7593918  23.4179344  39.3458824  48.1515350  21.2493076  38.0012970
  48.4874115  21.2551460  39.0382385  47.3493118  20.5115452  37.9855690
  49.3835640  20.8186874  37.1251221  49.7883911  19.9246197  37.5993233
  49.0502930  20.7644806  36.0887375  50.0928230  21.6390495  37.0153046
  45.3085175  23.6373005  36.7227287  45.6654472  24.1564732  35.6658974
  44.3560867  24.1018257  37.5789299  44.2371559  23.6498241  38.4742813
  43.5487175  25.3101273  37.4568443  43.7329102  25.7334938  36.4694557
  42.1103363  24.9722881  37.3748093  41.8400574  24.4760151  38.3068848
  41.5089264  25.8813610  37.3767509  41.6805649  24.1657677  36.1662369
  42.1352005  24.7719212  35.3826675  42.0929146  23.1666336  36.3069420
  40.2202606  24.0840034  35.9408760  39.9555016  25.1202908  35.7308464
  40.0612564  23.5461826  35.0062294  39.5051079  23.4183941  37.1215172
  39.7674828  22.4762669  37.3738174  38.7269936  24.0641365  37.9800339
  38.2376633  25.2598076  37.7737846  37.7172508  25.6922817  38.5236092
  38.2326012  25.5549355  36.8078804  38.4850082  23.6157398  39.1462975
  37.6885147  23.9509430  39.6691170  38.6344070  22.6175709  39.1842537
  43.9894867  26.3663445  38.4546661  44.3502388  25.9645290  39.5501060
  43.8128738  27.6808929  38.1397858  43.3302650  27.8669167  37.2722664
  44.0187073  28.8378048  39.0669174  44.1536942  28.4938240  40.0923729
  45.3940125  29.5030193  38.6869125  45.3330345  29.8405590  37.6522903
  45.6753387  30.7412376  39.4974327  45.6328087  30.5183430  40.5635490
  46.7013741  31.0640278  39.3209190  44.9718361  31.5707531  39.4260750
  46.5339584  28.5542145  38.8893394  46.3497505  27.6797237  38.2652893
  47.4053802  29.0335999  38.4433403  46.7663956  28.3732529  39.9387779
  42.8198051  29.7760677  39.0785484  42.2529068  29.9444351  37.9621162
  42.4618683  30.3743134  40.2170792  42.8633766  30.0133915  41.0706749
  41.3917923  31.3793240  40.2705803  41.1846695  31.7067699  39.2517662
  40.1163826  30.6548882  40.7337723  39.7199364  30.1132050  39.8749886
  40.2559395  30.0410557  41.6236267  39.0690155  31.6861820  41.2099075
  38.1260567  31.1442032  41.1378822  39.2972069  32.0926743  42.1951942
  38.5931015  32.9713326  40.0000267  36.8906136  32.5311890  39.6818428
  36.4175568  33.1742058  38.9396477  36.9150047  31.5067101  39.3104362
  36.3240700  32.6187553  40.6089172  41.8446999  32.5196686  41.1946068
  41.6508904  32.4081039  42.4048233  42.3992348  33.5960426  40.7050247
  42.3655396  33.6565742  39.6974030  43.0430374  34.6655273  41.4452400
  43.2698174  34.2325668  42.4195175  44.3795242  35.1552658  40.7116699
  44.9976692  34.2825928  40.5008469  44.1501999  35.6257439  39.7555504
  45.1380577  36.1795769  41.5363960  44.5207062  37.0509148  41.7549133
  45.4838104  35.7333221  42.4688187  46.5695381  36.9372864  40.6860504
  47.7322655  35.6475143  40.6717491  48.7128105  36.0358353  40.3963509
  47.7122688  35.0490608  41.5825462  47.3971863  34.9647141  39.8909760
  42.1123657  35.8734436  41.7324295  41.8141785  36.5000038  40.7344627
  41.7202950  36.1629105  42.9776535  42.0492249  35.5571823  43.7158928
  40.9174385  37.3377266  43.2948303  40.3097687  37.5715981  42.4206772
  40.0093803  37.1676216  44.4896545  40.4566803  37.1624908  45.4836349
  38.9618454  38.2659760  44.4167824  38.2380562  38.2308884  45.2310295
  39.4305840  39.2467041  44.3358192  38.3835678  38.2380066  43.4932442
  39.3425827  35.9811020  44.3854599  38.8687363  35.9388771  43.5516205
  41.7637291  38.5593567  43.4723282  42.1811218  38.7800293  44.5657082
  41.9000359  39.4575500  42.4894753  41.5289917  39.3428726  41.5571251
  42.8285561  40.6478424  42.5656891  43.5143433  40.5693359  43.4092712
  43.8131714  40.5630951  41.4193573  44.1657143  39.5363998  41.3208351
  43.2411003  40.9979820  40.0330658  43.9519501  40.7285995  39.2518997
  42.4181557  40.3352203  39.7654648  42.9177322  42.0381279  39.9926796
  45.1296349  41.3399391  41.7161636  45.6520882  40.9388580  42.5846558
  45.8447304  41.3352470  40.8935356  45.0183907  42.4201889  41.8099098
  42.0255280  41.9233894  42.7216759  40.9280014  42.0494690  42.2011948
  42.5983963  42.9968109  43.3427277  43.4470978  42.8931541  43.8803711
  42.0555115  44.3432465  43.2318420  40.9708939  44.4006119  43.1401138
  42.5173187  45.2116051  44.4639206  42.2307053  44.7031555  45.3844833
  43.5994453  45.1188698  44.5561180  42.0860443  46.6412697  44.5085526
  42.1235886  47.0143661  43.4850807  41.0779572  46.6789017  44.9214096
  42.9473267  47.5067482  45.4226646  42.6100006  47.9506645  46.4835434
  44.1492119  47.9440308  44.9802322  44.7127647  48.3949738  45.6867447
  44.5905457  47.6013374  44.1388741  42.4653511  44.8600273  41.8429298
  43.6246910  44.7424011  41.5637741  41.5025940  45.3959236  40.9970093
  40.5501785  45.3752556  41.3325424  41.7851944  46.0602570  39.7099724
  42.5325432  46.8022804  39.9910011  42.4056969  45.1452217  38.6503220
  43.4192543  44.8361740  38.9058495  41.6303406  43.8634605  38.3713188
  42.3333206  43.3011017  37.7567673  41.4093361  43.2708855  39.2590752
  40.6739998  44.0184364  37.8718300  42.3431129  45.8504028  37.4316826
  42.8959846  46.6301117  37.5210724  40.5154686  46.8060303  39.1510696
  39.4230156  46.2136917  39.1239777  40.6891479  48.0402946  38.7362862
  41.5912132  48.4870682  38.8185692  39.6143990  48.8870506  38.0229988
  38.6194038  48.6502647  38.3998528  39.8704796  50.4203110  38.3466377
  39.1294518  51.0691681  37.8797760  39.7141457  50.5258026  39.4201965
  41.1881599  51.0199242  37.9342995  42.0866852  50.2519493  37.4937744
  41.1927147  52.2585678  37.9909325  39.5978775  48.5287704  36.5135002
  38.7164307  49.1303406  35.8749924  40.4315224  47.6174240  36.0178146
  41.0838280  47.1597137  36.6383781  40.2777138  47.0656281  34.6284943
  40.2680893  47.8675041  33.8902550  41.4904861  46.2460747  34.1559334
  41.6516609  45.4208298  34.8495445  41.2094116  45.7191658  32.7427635
  40.4137955  44.9750481  32.7799034  40.8679657  46.4487877  32.0084839
  42.0892677  45.2039070  32.3574638  42.6913910  47.2074928  34.0874138
  43.6120529  46.7253647  33.7587242  42.4887695  48.0267639  33.3976059
  42.8831902  47.5282936  35.1113319  38.9145088  46.3107224  34.5065842
  38.7465553  45.2986526  35.1981125  37.9123688  46.7142487  33.6551743
  38.0610924  47.8687363  32.7374954  39.0331192  47.9236412  32.2473373
  37.8580513  48.8006210  33.2651863  36.9993019  47.5833817  31.7314262
  37.3074074  47.1204987  30.7939243  36.6671753  48.5373955  31.3219643
  35.8753166  46.7130051  32.3962975  35.5400352  46.0669975  31.5849018
  35.1317139  47.4172630  32.7693596  36.6446075  45.9706001  33.4096527
  36.0452499  46.0063057  34.3193741  36.7415733  44.4445724  33.0670815
  37.7985039  44.0896797  32.5200882  35.7452164  43.6290703  33.3403587
  34.9538689  44.0451736  33.8101768  35.6717033  42.2330284  32.9056664
  36.2052040  41.6261711  33.6372414  34.1754036  41.8892517  33.0648193
  33.5299454  42.6802101  32.6828957  33.8918495  41.0224724  32.4678307
  33.7522850  41.5347710  34.4745560  34.3987579  40.7513733  34.8701019
  33.8596573  42.4466972  35.0618896  32.2714386  41.0354118  34.6744423
  31.5169296  40.7184334  33.7317696  31.7866631  40.9363823  35.8726540
  32.3393555  40.9377403  36.7180138  30.8155079  40.6590843  35.8806763
  36.1724663  41.8824348  31.4883747  36.9740753  40.9505463  31.3597794
  35.7791977  42.6448975  30.4487057  35.1089592  43.3881989  30.5842915
  36.2400818  42.3940926  29.0845032  36.3873291  41.3258858  28.9252777
  35.2290497  42.9698257  28.0958424  35.6334724  42.8008995  27.0978413
  34.3224831  42.3804054  28.2330303  34.7405167  44.3821945  28.3128262
  34.3560486  44.8923798  27.2439594  34.5996475  44.9639473  29.4263649
  37.6491089  43.0003242  28.8025093  38.0901718  43.0308685  27.6189976
  38.3319321  43.5734711  29.7633648  37.7928047  43.7097092  30.6065025
  39.7102509  43.9838257  29.7234554  39.9940453  43.8764191  28.6765423
  39.7257919  45.5363579  29.8136883  39.2655945  45.7791481  30.7714844
  40.7778778  45.8184433  29.8542652  39.0868149  46.3209038  28.6796741
  38.0096054  46.1569290  28.6508408  39.1018906  47.3790741  28.9407291
  39.8044701  46.2106438  27.3631573  40.6679916  47.0262184  26.9583035
  39.4921608  45.2831726  26.4679985  38.9780350  44.4834518  26.8089085
  40.1635666  45.1116753  25.7332134  40.7644386  43.2272263  30.6399097
  41.9622955  43.4026794  30.4611092  40.3576927  42.2943726  31.4485168
  39.3561897  42.1668587  31.4775028  41.1797409  41.3127975  32.1349945
  41.9608040  41.7658310  32.7455673  40.3904495  40.5402832  33.2782288
  39.6503983  39.9201279  32.7724304  41.3591995  39.5602875  34.0205040
  42.1699638  40.1356354  34.4674263  40.7672768  39.0386810  34.7726021
  41.6789780  38.8144836  33.2927513  39.7532578  41.4883080  34.3089447
  39.1257935  42.1010551  33.6616974  39.0804634  40.8800278  34.9134636
  40.5855827  42.3558884  35.2852974  39.8867035  43.0830345  35.6987305
  40.9376907  41.7421494  36.1144180  41.4336166  42.8086662  34.7715607
  41.9015617  40.4515762  31.1280041  41.3477821  40.1644287  30.0514355
  43.1974030  40.1241875  31.4143639  43.6659203  40.4775887  32.2363739
  43.9312706  39.2031670  30.5900631  43.5135231  39.0186539  29.6003456
  45.4235191  39.7388077  30.2622910  45.9335442  39.6963310  31.2246666
  45.9156151  39.1496735  29.4884262  45.6345367  41.2096558  29.7281609
  45.3348770  41.9426003  30.4772243  46.7002678  41.4115639  29.6206532
  44.9681129  41.6890411  28.4139996  45.2885437  42.6987915  28.1574287
  45.3418579  41.0167770  27.6416779  43.5162048  41.5548058  28.4197464
  43.1031303  41.2082558  29.2737789  42.6795197  41.8414612  27.4501228
  42.9356728  42.4870033  26.3574257  42.2223778  42.4658470  25.6426773
  43.8652306  42.7772369  26.0894966  41.4175987  41.4939613  27.5863781
  41.1533623  40.9450607  28.3919754  40.8483467  41.5835114  26.7568989
  44.0042152  37.7467346  31.2416840  44.9260330  37.5152626  32.0860329
  43.0263405  36.8614998  30.9725475  42.3606415  37.1956215  30.2904129
  43.0407181  35.4545479  31.4573746  43.2438240  35.5022202  32.5272217
  41.6877441  34.7539139  31.3082447  41.4594536  34.6095428  30.2522430
  41.7178917  33.7965813  31.8285370  40.6977386  35.6263046  32.0747910
  40.3554382  35.5369873  33.4310150  39.3558273  36.3911057  33.6596870
  38.8678894  36.5272675  34.6135101  39.0504379  37.0384560  32.5158081
  38.2702332  37.6752052  32.4387589  39.8705750  36.5366402  31.5445194
  39.8239746  36.7266769  30.4823933  44.1320610  34.7318802  30.7309647
  44.2139740  34.9109459  29.4816914  44.8744278  33.8034554  31.3999195
  44.7450943  33.6075134  32.3822517  46.0808640  33.1866226  30.7914467
  46.0353737  33.4115944  29.7258835  47.3834991  33.6750488  31.4534111
  47.3372803  33.1489220  32.4069099  48.6785507  33.1922646  30.8118229
  49.4382668  33.1326027  31.5911655  48.6323547  32.2633514  30.2434158
  49.0339165  33.9576797  30.1219273  47.5466499  35.2055511  31.8035507
  48.5043144  35.2788239  32.3189316  47.6304283  35.8597908  30.9357605
  46.7270699  35.5238724  32.4477997  46.0037079  31.6295033  30.8273449
  46.1466980  31.0422459  31.9228249  45.8146057  30.9361897  29.6824322
  45.7405777  31.3882923  28.7823067  45.6083603  29.4078217  29.6072483
  45.5484161  28.9726944  30.6048355  44.2225990  29.1603794  28.9263477
  44.1134109  29.9764366  28.2120438  44.2097282  28.1724052  28.4660854
  43.1184082  29.2792969  29.9094143  42.5358315  28.1231899  30.4253674
  42.9019623  27.1610851  30.0987148  41.4241104  28.1851749  31.2284050
  40.9662933  27.3246727  31.6935349  40.9692802  29.4776020  31.6749744
  39.9817162  29.4882107  32.6099548  39.4435463  28.7165966  32.8012276
  41.5892372  30.6715240  31.2807026  41.1926765  31.6297741  31.5821934
  42.6396141  30.5660934  30.3591957  43.0488853  31.4502869  29.8932571
  46.7965317  28.8595924  28.8049850  47.2459373  29.5507202  27.8652744
  47.3542099  27.7267799  29.2200718  46.9327431  27.2996960  30.0325165
  48.6450272  27.2073479  28.7561378  48.8779106  27.8359165  27.8966160
  49.7468262  27.6071854  29.8873672  49.4492226  27.1100101  30.8105946
  50.7206993  27.2221394  29.5850296  49.9071426  29.1744442  30.0608158
  48.9960899  29.7035007  30.3404331  50.9095230  29.5523129  31.1613274
  50.5636635  28.9955482  32.0322418  51.8966522  29.1492176  30.9350700
  51.0287247  30.6116333  31.3887691  50.4509888  29.8486462  28.7821751
  50.4929619  30.9348717  28.8624611  51.4049110  29.4771404  28.4078465
  49.7865105  29.8227501  27.9185219  48.6544189  25.6798725  28.4698505
  47.8060036  24.8689575  28.8844128  49.7369232  25.1563416  27.8192673
  50.5129738  25.7594585  27.5866814  49.8997536  23.7329216  27.4313679
  50.7344666  23.7280998  26.7304115  50.3459167  23.0334435  28.7648811
  49.4635086  23.1100540  29.4001694  50.5101051  21.9718208  28.5802288
  51.6269722  23.5462189  29.5358734  51.3956108  24.5588322  29.8663082
  51.7854614  23.0299797  30.4827003  52.8060226  23.4089317  28.5992126
  53.2994308  24.5176945  28.1659184  53.3359718  22.3231564  28.4322186
  48.6784325  23.0988388  26.8116360  48.1824570  23.6937389  25.8081055
  48.2933121  21.8650494  27.1744328  48.6819077  21.3670979  27.9625549
  47.1187363  21.1750698  26.5182476  47.0456085  21.4731045  25.4723377
  47.4654922  19.6118221  26.5186958  47.1321945  19.2723255  27.4993877
  46.9075432  19.0011272  25.8088779  48.9262314  19.1068516  26.2591209
  49.1867943  19.2829304  25.2154732  49.6906319  19.7250271  26.7299213
  49.1547318  17.7004089  26.7620773  49.2730103  17.6373520  27.8438072
  48.2802734  17.1174107  26.4730568  50.3314629  17.1229267  26.0573444
  50.4544411  16.0522079  26.2202587  50.1809883  17.2802334  24.9893036
  51.6338120  17.7089920  26.4709320  51.6510239  18.7030106  26.6490612
  51.9150696  17.1685867  27.2765102  52.3584404  17.5488949  25.7858181
  45.7892990  21.6425476  26.9907742  44.8684616  21.0288773  26.5191154
  45.6467590  22.6615257  27.8670654  46.5611725  22.9392014  28.1939354
  44.4400787  23.4686852  28.2918205  43.5417976  22.8731728  28.1288490
  44.5984688  23.8293629  29.8324451  44.6865578  22.9317703  30.4445496
  45.5052261  24.4319134  29.8855495  43.7834778  24.4255676  30.2428513
  44.2697525  24.7642097  27.4859200  43.3842430  25.5636063  27.8202515
  45.0092812  24.9771976  26.4068794  45.7164078  24.2778263  26.2309456
  44.7955780  26.1465778  25.5445404  44.8463974  27.0373058  26.1707363
  45.9197693  26.2264004  24.4331341  46.2204361  25.2958870  23.9516315
  45.7081299  27.0692596  23.0633221  44.8937263  26.6356297  22.4829674
  45.4960785  28.0793495  23.4138241  46.6077042  27.1244049  22.4502773
  47.1369057  26.8737183  24.9933338  48.1172867  26.7064075  24.5472965
  46.9729881  27.9463253  25.0969925  47.2092552  26.4634972  26.0005989
  43.4159431  26.0948563  24.8967991  42.8833046  27.1812763  24.5854702
  42.8073120  24.8875389  24.7986393  43.2670670  24.0809269  25.1962681
  41.4292068  24.6612949  24.4355469  41.3098946  25.2881718  23.5518646
  41.2811546  23.1578178  24.0750561  42.1239471  22.8414707  23.4604588
  41.3716660  22.2635937  25.2737942  41.4812279  21.2399063  24.9157906
  42.3327866  22.5382595  25.7084312  40.4863586  22.4414597  25.8842812
  40.0099792  22.7399349  23.3398724  39.6633644  23.4896240  22.6285896
  40.1762772  21.7960243  22.8207569  39.1589890  22.5873318  24.0036697
  40.2765007  25.1174850  25.4606228  39.1028366  25.2698326  25.0929489
  40.7376099  25.4246254  26.7088509  41.6374779  25.0627708  26.9906349
  39.8788109  25.9226055  27.7415714  38.8240547  25.7254219  27.5499649
  40.2068977  25.2153244  29.0471954  41.2502022  25.4905720  29.2016602
  39.6444702  25.7350883  29.8228340  40.0586014  23.6168785  29.2611694
  40.6363258  23.1580811  28.4587669  40.5091934  23.2022934  30.6740742
  41.5979309  23.1742439  30.6298389  40.1465187  23.8892059  31.4387436
  40.1471405  22.2046509  30.9225273  38.6646233  23.0309887  29.0834484
  38.3408241  23.4862823  28.1475163  38.6450653  21.9451332  28.9905167
  37.9861412  23.4313641  29.8367462  39.9143181  27.4795876  27.9435635
  39.0094833  28.0081615  28.6626015  40.8490143  28.2828846  27.3808117
  41.6115646  27.8262939  26.9010696  40.8738174  29.7668381  27.3716888
  41.1209526  30.0171661  28.4033718  41.9891357  30.2268906  26.3717918
  42.4036636  31.1866150  26.6803265  42.8074799  29.5240898  26.5282555
  41.6012840  30.2237282  24.8642483  40.9871597  29.3322411  24.7369595
  40.9324532  31.0744743  24.7338428  42.7523613  30.4152241  23.9254436
  43.2895126  31.3403931  24.1343174  43.4257812  29.5646629  24.0311012
  42.1874466  30.5690536  22.5513611  42.2745781  31.4492855  22.0638180
  41.7210159  29.4915771  21.8623257  41.7272034  28.2688408  22.3381767
  41.9907341  27.9886322  23.2720642  41.4947701  27.5100937  21.7133751
  41.2881622  29.7491360  20.6819324  41.4752731  30.6315880  20.2276554
  41.1537895  28.9576893  20.0690231  39.4826355  30.3029366  27.0492496
  38.9216423  29.6895447  26.1090412  38.9759865  31.4697514  27.5335464
  39.4822350  32.2158737  28.6559563  40.1546326  32.9871407  28.2802868
  39.9363708  31.5183125  29.3597107  38.3084679  33.0325661  29.2125359
  38.6708412  33.9917603  29.5823078  37.6553726  32.4630089  29.8737221
  37.4645576  33.2868233  27.9873390  37.9134483  34.0648842  27.3699150
  36.4198227  33.4409561  28.2572842  37.6719093  31.9649029  27.1908092
  37.0469704  31.1173820  27.4723434  37.3481522  32.1589470  25.7051754
  36.1718826  31.7129383  25.3457184  38.2420502  32.5802269  24.8366833
  39.1637001  32.6831932  25.2367592  38.1208267  32.5945168  23.3308258
  39.0714226  33.0552368  23.0621166  38.1949539  31.2024288  22.7253551
  39.1198311  30.7541847  23.0883789  37.2364998  30.7070923  22.8806038
  38.3331032  31.1746368  21.1370144  38.8809433  32.0803032  20.4513512
  37.8520317  30.2639275  20.4828644  37.0108604  33.4834747  22.8802853
  36.2945061  33.1711769  21.9687176  36.6411476  34.5204391  23.6808586
  37.1886559  34.6603050  24.5179806  35.4197693  35.3040581  23.5414391
  34.6003456  34.6108055  23.3515625  35.1020546  36.1360855  24.7970524
  35.9443054  36.7920609  25.0170708  34.2809029  36.8473740  24.7082882
  34.6967354  35.2829971  25.9992046  35.5481071  34.6412468  26.2259808
  34.4113770  36.1129875  27.2617073  33.6679268  36.8639908  26.9945526
  33.8607597  35.6324348  28.0704041  35.2918701  36.6283607  27.6453991
  33.4346275  34.4469109  25.7502575  33.6626244  33.6633530  25.0276566
  32.5682755  34.9749756  25.3519039  33.1770782  33.8269272  26.6089706
  35.3009605  36.3021011  22.4173470  36.3213806  36.7771721  21.8873730
  34.0791092  36.8018341  22.1433735  33.3579712  36.3578110  22.6937370
  33.6735039  37.9989586  21.2734051  34.5717773  38.6163635  21.2692394
  33.2543678  37.5796738  19.8908329  34.1674423  37.2213631  19.4154243
  32.4024887  36.9005318  19.9249172  32.7800484  38.7323608  19.0719147
  33.5390625  39.2578278  18.8084984  32.5446815  38.7732048  21.8439007
  31.5934410  38.1817856  22.3369503  32.5578308  40.1074562  21.7089691
  33.3844452  40.4046173  21.2104721  31.5542946  41.0299110  22.2022190
  31.4371243  40.9296150  23.2812519  32.0276871  42.4220734  21.8115959
  33.0475464  42.5936623  22.1558990  32.0457191  42.4618683  20.7224712
  31.1202984  43.6199265  22.3052502  30.1085205  43.4458771  21.9390335
  31.1717548  43.5876198  23.8309307  32.1870041  43.6149826  24.2266712
  30.6463928  42.6862717  24.1466236  30.6519966  44.4885979  24.1567955
  31.6049232  44.9035454  21.7018776  32.6034431  45.0165634  22.1241207
  31.6346283  44.7341805  20.6255264  30.9352264  45.7393379  21.9045219
  30.1269035  40.6509972  21.6745949  29.1013680  40.8537216  22.3829231
  30.1289577  40.1557693  20.3758774  31.0571976  39.9256172  20.0510750
  29.0364933  39.9727020  19.4783134  28.3968010  40.8512077  19.5627193
  29.4570827  39.7236443  17.9984684  28.5186062  39.7329674  17.4441395
  30.2238522  40.8660164  17.4058170  29.6338615  41.7815819  17.4477177
  31.2168331  41.0902634  17.7954350  30.3684711  40.5702057  16.3667393
  30.1002026  38.4589310  17.8234711  31.0070705  38.5850525  18.1120605
  28.0766945  38.8608627  19.9972115  26.9749622  38.7514153  19.5192757
  28.5110054  38.1313553  21.0370350  29.4860878  38.2049294  21.2898216
  27.5516262  37.0718880  21.5499706  26.9895878  36.6640472  20.7097988
  28.3136940  35.9123383  22.1876183  28.9572372  36.3835487  22.9305267
  27.6325798  35.2051735  22.6610165  29.2671528  35.1276360  21.2727032
  28.7537060  35.0491409  20.3144169  30.1700993  35.7356529  21.2170258
  29.6033878  33.7144089  21.8460770  30.6227398  33.7982483  22.2228985
  28.9679718  33.3936272  22.6715736  29.6759987  32.5550842  20.7350540
  28.6694069  32.3610687  20.3646049  30.2604828  32.9045677  19.8839703
  30.2595615  31.3291874  21.3019943  29.6641903  31.0002098  22.0485897
  30.2010498  30.6121483  20.5930939  31.2130527  31.5254669  21.5711193
  26.4849339  37.6195564  22.6024857  25.6315575  36.8656883  23.0978184
  26.6175365  38.8289833  23.0893230  27.3352451  39.3651810  22.6229610
  25.6435947  39.6181107  23.9118881  25.2984161  38.9074593  24.6628418
  26.3605404  40.8476677  24.4094505  26.8865585  41.3274193  23.5840759
  25.5711327  41.4153214  24.9021015  27.3875008  40.5641747  25.5303936
  27.7077713  39.4117928  25.8465691  27.9266529  41.5330086  26.2062874
  27.9428062  42.4141922  25.7129745  28.6799107  41.2783279  26.8290577
  24.3627129  40.0580215  23.2051296  24.3730164  40.4166794  22.0339642
  23.2738132  40.1060753  23.9679050  23.2656116  39.8772163  24.9516010
  21.9648571  40.5924187  23.4224224  21.8867493  40.4631500  22.3429356
  20.7262421  39.8929176  24.1344757  19.8075790  40.4094582  23.8563709
  20.5889072  38.3968353  23.7912178  21.4827728  37.8498535  24.0910892
  19.7186756  38.1173248  24.3850784  20.3992558  38.2371292  22.7297916
  20.7924118  40.0237999  25.5034599  20.7196064  40.9569626  25.7167797
  21.7990532  42.1045952  23.5777569  20.9351215  42.7318802  23.0446396
  22.7720261  42.7490654  24.2564144  23.3070564  42.1752968  24.8925209
  22.8765411  44.2745819  24.4090004  21.9465733  44.7397461  24.0820694
  23.1979847  44.4314461  25.9218731  23.9912529  43.7886009  26.3034306
  23.5539665  45.4474373  26.0925579  22.0386276  44.2256203  26.8721771
  22.3090420  44.5218163  27.8857059  21.2771854  44.9285774  26.5342960
  21.5956383  42.7722626  26.9460831  20.4698448  42.3769302  26.5540352
  22.3966331  41.9468613  27.4364910  23.9939842  44.9134598  23.5318966
  24.6088257  45.8635750  24.0271587  24.3584938  44.2623672  22.4203491
  23.7817955  43.5066299  22.0792065  25.4121552  44.7429352  21.4500084
  26.3324318  44.9050331  22.0111847  25.5873203  43.6546440  20.3742771
  25.7734184  42.6841583  20.8343105  24.7143536  43.5917587  19.7246037
  26.7635632  43.8467827  19.3953342  26.6459885  44.7857094  18.8543224
  28.1023598  43.7221870  20.1024780  28.2549248  44.6170692  20.7058067
  28.1066208  42.7523422  20.5999603  28.9099445  43.7791862  19.3726425
  26.8153362  42.6917915  18.4398289  25.9950809  42.7040825  17.7221031
  27.6889191  42.7716293  17.7928524  26.6416092  41.7609100  18.9796200
  25.0319309  46.0671959  20.8584690  25.7875500  47.0777016  20.8894424
  23.8718834  46.0981712  20.3752403  37.4136772  51.0221672  52.5417519
  36.4912300  50.7410812  52.2414398  37.3567085  51.9806175  52.8551712
  37.9166145  51.0809822  51.6678543  37.9984245  49.9584961  53.3737450
  38.9495277  50.4009857  53.6699066  37.2436104  49.6679192  54.6524010
  37.0230446  50.6498032  55.0711555  36.2668114  49.2061653  54.5083694
  38.1010590  49.0127907  55.7468910  38.1737633  47.9561691  55.4892578
  39.1147499  49.4130402  55.7650681  37.5324059  49.0905800  57.4885979
  36.0395775  48.0002899  57.4207344  35.1195488  48.5841217  57.4490051
  36.0696220  47.4529877  56.4785767  36.0386276  47.2927628  58.2498932
  38.1571236  48.6982460  52.4762268  37.1702766  48.1725922  51.9875717
  39.3943481  48.3216820  52.1703644  40.2327271  48.7962189  52.4737473
  39.8195877  47.1439743  51.3218040  39.4414749  47.1948395  50.3007545
  41.3722420  47.1224213  51.3134651  41.6051521  48.0913811  50.8719139
  41.7509956  47.1119232  52.3354912  42.0604362  45.9711761  50.5983658
  43.1486130  46.0100174  50.6479836  41.8514938  45.0197792  51.0875320
  41.6806297  45.8470535  48.8739128  42.7536354  44.3973427  48.5072212
  42.3436012  43.5538979  49.0627098  42.6084595  44.0918198  47.4710350
  43.7281685  44.7318268  48.8628960  39.2010078  45.8352737  51.7780762
  38.9468727  45.7194595  52.9964828  39.2278061  44.7527122  50.9806900
  39.7317467  44.7776413  50.1057472  38.7181892  43.4048538  51.2337532
  38.4228668  43.5743256  52.2692108  37.4330101  43.1075478  50.5220299
  37.0844688  42.1339874  50.8667068  36.3101654  44.1506844  50.8229637
  36.2895622  44.4297523  51.8764343  36.5765724  45.0320320  50.2395706
  35.2905502  43.8399239  50.5951157  37.7218132  42.9240417  49.0177612
  38.0600510  43.9028778  48.6778069  38.5382576  42.2318916  48.8117371
  36.4010773  42.5230560  48.2878532  35.8440666  41.9195442  49.0045280
  35.8478317  43.3933945  47.9349594  36.7455978  42.0383530  47.3743591
  39.8768387  42.3705482  51.0943871  40.7578087  42.3426590  50.2490692
  39.9145851  41.4252396  52.0078735  39.2924500  41.4453278  52.8032608
  40.9084167  40.2951889  52.0284119  41.0926323  40.0185127  50.9903259
  42.1668892  40.7161980  52.8232384  41.8198967  40.9696846  53.8249588
  42.8449440  39.8723106  52.9505043  42.9093285  42.0400047  52.2471809
  43.1787262  41.8113937  51.2160378  42.2341499  42.8940811  52.3000526
  44.1226006  42.3415833  53.0557632  43.8662109  42.4783020  54.1063232
  44.8778419  41.5602264  52.9709587  44.8503189  43.5643616  52.5644493
  44.6899223  44.4086723  53.0950279  45.4483833  43.7211533  51.4012451
  45.7810707  42.7423592  50.6079178  45.6071739  41.7746277  50.8389130
  46.1867485  42.8516350  49.6894493  45.8550110  44.8689003  51.0465240
  46.4475975  44.9671860  50.2345619  45.6181488  45.7211189  51.5340919
  40.3052559  39.0268745  52.6356544  39.2678566  39.0463753  53.3200874
  40.9936714  37.9199142  52.3584061  41.7174873  38.0673981  51.6696129
  40.7713623  36.5771370  52.7188034  39.7183685  36.4006615  52.9382362
  41.1566353  35.9428024  51.9205017  41.4906006  36.1643105  54.0624123
  42.6221695  36.5489235  54.2619438  40.8875008  35.4540749  54.9802856
  39.9079170  35.2623596  54.8261452  41.4202003  34.7884178  56.1709862
  42.4469452  35.1358032  56.2859612  40.6007996  35.2659645  57.4454689
  39.5454102  35.1395531  57.2040749  40.8614426  34.4152145  58.6497345
  41.9029045  34.4921837  58.9620399  40.1782913  34.7199249  59.4425545
  40.6680222  33.3605728  58.4537048  40.7157631  36.7647362  57.8620262
  41.7201424  36.7577057  58.2854347  40.6618996  37.3938866  56.9735641
  39.6561928  37.2442284  58.8001289  38.7158318  37.0788498  58.2743263
  39.7606964  36.7031403  59.7405548  39.8955116  38.2909775  58.9875832
  41.5214500  33.2707825  56.0075302  40.4881248  32.6100616  55.8042488
  42.7298584  32.7398796  56.0741272  43.5115013  33.3527336  56.2572899
  42.9271889  31.2724419  56.2590332  42.1063766  30.6772270  55.8589287
  44.1306534  30.7677040  55.4715538  44.9469528  31.4332981  55.7521629
  44.4261932  29.8082466  55.8960495  43.8593903  30.7654018  53.9462776
  43.7664871  31.7975540  53.6084442  44.7919693  30.3895645  53.5253944
  42.7791176  29.8027039  53.4461136  41.8756981  30.4013424  53.5625877
  42.9178123  29.6568699  52.3748550  42.5787125  28.5038185  54.1202545
  41.7692680  28.3220158  54.6963196  43.4960403  27.5390759  54.2785110
  44.6469154  27.4442730  53.6776733  45.3679733  26.7981434  53.9652367
  45.0228424  28.1095390  53.0172195  43.2985535  26.6689167  55.2403946
  43.9928246  25.9353695  55.2376404  42.4036903  26.5889683  55.7018318
  43.0248070  30.7481556  57.7534523  43.2116547  31.5536976  58.6902695
  42.6676598  29.4753590  57.9412308  42.1726112  29.0390701  57.1765862
  42.9844666  28.6720924  59.1305351  44.0691986  28.7636490  59.1860008
  42.4535027  29.1230869  59.9688530  42.5626831  27.2456379  58.8670120
  41.8612404  26.7964001  57.8760757  42.9443054  26.3463116  59.8385696
  43.4080544  26.7504177  60.6396523  42.8614731  24.8751202  59.6859016
  41.9185028  24.6816711  59.1745453  43.8849068  24.3770351  58.6786766
  44.9268799  24.6190434  58.8880005  43.7359810  23.3070030  58.5339241
  43.6863365  24.7396030  57.6701050  42.9358292  24.1530781  60.9986000
  43.4949417  24.6364632  61.9662666  42.1697273  23.1179333  61.1966667
  41.5864067  22.8408375  60.4201012  42.0810699  22.2895050  62.4341812
  43.0460510  22.2437916  62.9389839  40.9878654  22.8784657  63.4104080
  41.0060539  23.9682598  63.4212952  39.5655594  22.3955479  63.0705757
  39.4317245  21.3246288  63.2232742  38.8313637  22.9441128  63.6606026
  39.3465538  22.5374565  62.0122757  41.2630997  22.2619343  64.6587524
  40.7850723  22.7460079  65.3360748  41.7441444  20.8742924  62.0905876
  41.5359993  20.6103745  60.9246559  41.8083000  19.9334850  63.0695839
  42.0261078  20.3047867  63.9832573  41.6403542  18.4887390  62.9790840
  41.0535851  18.3617191  62.0693207  42.9925346  17.7395096  62.9899292
  42.8533859  16.6704826  63.1509247  43.8170242  17.7545204  61.7743301
  43.3497162  17.1818771  60.9732056  44.0914040  18.7707615  61.4913559
  44.7802467  17.2701626  61.9346352  43.8635139  18.3505096  63.9503975
  43.8390846  17.6659851  64.6230316  40.7942123  17.9011402  64.1542740
  40.8892441  18.3612499  65.2442474  39.9255562  16.9802132  63.7072563
  39.9257965  16.7543259  62.7228394  39.2058830  16.0184860  64.6206512
  39.2306023  16.3401737  65.6618118  37.7333641  15.6653557  64.1849823
  37.3795357  14.7836637  64.7193222  36.7743454  16.8424644  64.3919144
  35.7743149  16.4209671  64.2900543  37.0039673  17.2904835  65.3586884
  36.8370056  17.6265068  63.6372986  37.6627693  15.1906319  62.7191429
  38.0491104  15.8422174  61.9353867  38.1772003  14.2316732  62.6570091
  36.6233559  15.0629930  62.4167557  39.9594345  14.6738672  64.7834091
  40.5519562  14.1570292  63.8587990  40.0119247  14.1307774  65.9820175
  39.4054298  14.5329638  66.6823807  40.3780289  12.7458715  66.1606293
  41.1378174  12.4715986  65.4287796  40.9311028  12.3127003  67.4860153
  40.2216454  12.6147585  68.2564240  41.0940590  11.2356234  67.5242310
  42.2595596  12.9449072  67.8832550  42.0920677  14.0207443  67.9344330
  42.5216103  12.6631279  68.9030762  43.2827911  12.5699530  66.8556290
  43.7631950  13.5010128  66.1350327  43.7427788  11.4191618  66.8343353
  39.2098770  11.8142538  65.7369232  39.4035339  10.6799698  65.3628387
  37.9842834  12.3937893  65.7657928  37.9913025  13.3390779  66.1214371
  36.6617584  11.7332783  65.4580460  36.9251404  10.6892414  65.2885895
  35.8627739  11.7716818  66.8178711  35.5948830  12.8227987  66.9250565
  35.0449829  11.0656118  66.6737289  36.7027435  11.3729753  67.9788895
  37.2529831  10.4909077  67.6513367  37.3327141  12.2305565  68.2151108
  35.9258232  10.9045000  69.2398987  35.3262749  10.0494328  68.9276428
  36.6100273  10.5574102  70.0141678  35.1775246  12.0367794  69.8364487
  35.6702805  12.9125643  69.9378891  33.9751091  11.9852171  70.4814987
  33.3180580  10.8821888  70.5942230  33.6683197  10.0230284  70.1951523
  32.5517883  10.9276533  71.2506256  33.3332596  13.0282288  70.9845123
  33.8747063  13.8808231  70.9794006  32.4526367  13.0185785  71.4789963
  35.9384651  12.2856388  64.2667007  35.4710884  13.3936157  64.3376236
  35.5682106  11.5050449  63.2985840  36.0346222  10.6161890  63.1867599
  34.4204521  11.6908236  62.4148407  34.4765282  12.7335310  62.1022301
  34.7015533  10.9816380  61.1360435  35.6796112  11.2689514  60.7500916
  34.7704849   9.9096842  61.3211632  33.6256943  11.2298288  60.0594063
  33.1047859  12.3237114  59.9145508  33.2614937  10.2927895  59.2980957
  33.0304451  11.4603920  63.1002579  32.4224854  10.4033136  63.0270844
  32.5539360  12.4867401  63.7910652  33.0499840  13.3637886  63.7215691
  31.2536297  12.5143118  64.4260941  30.4875488  11.9589157  63.8850288
  31.3773403  11.8294096  65.8154297  31.5122089  10.7586803  65.6623001
  32.4620132  12.4803867  66.7440338  32.1288376  13.4484968  67.1179962
  32.7119446  11.7510071  67.5145187  33.3460083  12.5993729  66.1175461
  30.2815552  12.0998001  66.5917664  29.4582119  11.7880936  66.2089615
  30.8222084  13.9488573  64.6510620  31.6505299  14.8587999  64.8525238
  29.5128593  14.2146387  64.5950470  28.9561710  13.3928566  64.4083023
  29.0019779  15.5818186  64.7712631  29.5455418  16.2904568  64.1463852
  27.5325928  15.6492987  64.3513870  27.2882481  16.6728611  64.0672836
  27.4018650  15.1744633  63.3789978  26.5888710  15.0688305  65.4286804
  26.7256393  13.9952269  65.5581894  26.6686592  15.5344296  66.4110107
  25.1700134  15.4323311  65.0329514  24.3240490  14.4975519  64.9471130
  24.8777256  16.6105480  64.7568359  29.1301861  15.9902716  66.1902771
  28.8919563  17.1997013  66.5056229  29.4188137  15.0511866  67.1411591
  29.6714344  14.1581087  66.7427902  29.9288712  15.5040112  68.5089874
  29.3105850  16.3400249  68.8359528  29.8270969  14.3301401  69.5303574
  30.3403683  13.4546537  69.1326447  30.2102699  14.6010656  70.5141678
  28.3215847  13.9310694  69.7359467  27.8431053  13.9113922  68.7567749
  28.3938046  12.9252768  70.1497879  27.5420971  14.8715868  70.6896973
  26.3683414  14.6269712  70.8892212  28.0290318  15.9334774  71.1409149
  31.3076401  16.0791988  68.5067139  31.7028866  16.5985374  69.5649872
  32.1163521  16.0721817  67.4132690  31.8845844  15.5380402  66.5879974
  33.4687500  16.6830826  67.4300690  33.5872955  17.2809677  68.3337173
  34.5190620  15.4874420  67.5556564  34.0820160  14.7433996  68.2216110
  34.6105423  15.0982170  66.5416336  35.8170319  16.0011940  68.0791321
  36.3347321  16.7420216  67.4698181  35.5319252  16.5663548  68.9664917
  36.8636665  14.9396248  68.3047333  36.8013573  14.4318829  69.4201508
  37.8166771  14.7906113  67.4799042  33.8385925  17.6219845  66.2648468
  34.5643311  18.5907822  66.4448318  33.3015442  17.3465023  65.0807648
  32.7720947  16.4874191  65.0388184  33.4686546  18.1471424  63.9318199
  34.5424309  18.3067360  63.8336983  32.8416367  17.4724445  62.6339874
  31.8336811  17.0791855  62.7661552  32.8350182  18.4803371  61.4224548
  32.4697990  17.9923153  60.5188255  32.3120232  19.3953609  61.7004929
  33.8520851  18.8278217  61.2410316  33.7239342  16.2537251  62.1703415
  34.7760849  16.5348186  62.1249428  33.6469498  15.5674582  63.0136757
  33.2642784  15.5195045  60.8265228  32.1812286  15.4693394  60.7143440
  33.6872482  16.0324688  59.9627762  33.7170563  14.5285988  60.8612175
  32.9933128  19.5988808  64.1669540  33.5671005  20.5242290  63.5759621
  31.9130173  19.7299843  64.9799271  31.4421101  18.9444103  65.4056244
  31.4923420  21.1053200  65.2317886  31.6668396  21.7163734  64.3462067
  30.0006428  21.1497688  65.4968796  29.8839321  20.9967804  66.5697632
  29.6714916  22.1838493  65.3947067  29.0436172  20.2550259  64.6720505
  29.1087170  19.1823921  64.8545837  27.6789913  20.6194019  64.9839630
  27.0279808  19.9092560  64.4740753  27.4272594  20.4909554  66.0366898
  27.5368214  21.5938015  64.5165939  29.2077618  20.3726273  63.1593246
  30.1552868  20.0182571  62.7534714  28.5597496  19.7217884  62.5723076
  29.1639194  21.4215164  62.8660431  32.2325134  21.8188534  66.3701706
  32.6836052  22.9725437  66.2508469  32.5919762  21.0101509  67.3981018
  32.2048645  20.0844364  67.2827682  33.4550972  21.3190594  68.4917908
  32.9468803  22.0392590  69.1329803  33.8524475  19.9917603  69.2525101
  32.9529495  19.4012241  69.4264908  34.5375862  19.3791180  68.6665421
  34.4497108  20.2613029  70.6445007  35.2565117  20.9892387  70.5591278
  33.6227646  20.6842308  71.2149277  35.1331062  19.0652390  71.3369217
  35.1647034  18.0029545  70.7557297  35.7990417  19.2359924  72.4638748
  35.8560219  20.1348839  72.9208755  36.2944260  18.4235802  72.8025131
  34.7339821  21.9433250  67.9938431  35.0837708  23.0806675  68.3677292
  35.4220238  21.3688965  67.0484772  35.0975838  20.4577122  66.7576370
  36.6679344  21.8176346  66.4648590  37.1855774  22.1865788  67.3503113
  37.5234184  20.6588535  65.8791351  37.0558319  20.1520348  65.0349808
  38.4885635  20.9414005  65.4587097  37.9525757  19.6131668  66.9963913
  37.0846481  19.0891781  67.3966904  38.5322762  18.8318596  66.5048523
  38.7339821  20.1623650  68.1853333  39.7280769  20.4532433  67.8458176
  38.3265419  21.0895309  68.5883942  38.8394547  19.1142960  69.2589569
  37.8454704  18.8739834  69.6362381  39.3086166  18.2535496  68.7823944
  39.6084747  19.6402302  70.3280563  39.2074356  20.4964390  70.6832657
  39.6201935  19.0367928  71.1378860  40.5245018  19.8789711  69.9759216
  36.4612846  23.0313377  65.5759430  37.0834312  24.0513229  65.7865601
  35.4225464  23.0443306  64.7025909  34.9688301  22.2188911  64.3380432
  35.0814590  24.2463818  63.9272690  35.9823647  24.5830536  63.4143181
  33.9458618  23.8215809  62.9268112  33.0606880  23.6053810  63.5249977
  33.5460968  24.8225555  61.8558464  32.8289070  24.3069286  61.2171974
  33.0826645  25.7025394  62.3018951  34.4173355  25.0811615  61.2540436
  34.4254379  22.7131996  62.1142693  34.2140121  21.8787918  62.5393143
  34.6004410  25.4822731  64.7510910  35.1291847  26.5498734  64.4940872
  33.7536964  25.3393841  65.7829971  33.3775024  24.4144917  65.9351501
  33.3779945  26.4432354  66.6414566  32.8844109  27.1730328  65.9996872
  32.3780861  25.9475536  67.7541199  31.7102146  25.2152233  67.3005295
  32.8059349  25.3539505  68.5620041  31.5005627  27.0217609  68.5280304
  31.1980400  27.7431297  67.7689438  30.7234402  26.3794765  68.9423447
  32.2886620  27.6897678  69.7313538  32.8196678  26.9746552  70.3596420
  33.1757469  28.2297611  69.4003067  31.2694683  28.5031471  70.5501022
  30.9753246  29.3754749  69.9664688  30.4357090  27.8092194  70.6569214
  31.9349728  28.9637642  71.8382187  32.7635078  29.5003777  71.6245041
  31.2935715  29.5499191  72.3531265  32.1644745  28.2408047  72.5051193
  34.5870323  27.2181091  67.1406021  34.6438103  28.3937283  66.9162827
  35.5285645  26.5362625  67.8009262  35.5299988  25.5309391  67.8980026
  36.7708092  27.1676407  68.3376236  36.5189400  28.0662861  68.9007416
  37.4881134  26.1459160  69.3098145  36.7714005  25.8923779  70.0909271
  37.6486549  25.2021675  68.7885971  38.8484726  26.6509304  69.9559021
  39.1255836  25.7672329  70.5307007  39.5527992  26.6518936  69.1240234
  38.7642097  27.9763088  70.7235031  37.7139053  28.6508465  70.8839264
  39.7820396  28.2833004  71.4275589  39.6713829  29.0025654  72.1279221
  40.6846886  27.8395557  71.3358231  37.7474136  27.7291698  67.2500610
  38.4542770  28.7155972  67.4824753  37.7671089  27.1312981  66.0500107
  37.1898079  26.3176327  65.8926315  38.4884567  27.6028728  64.8566666
  39.5196342  27.8774815  65.0788574  38.4114189  26.5712109  63.7706299
  38.8293304  25.6390667  64.1508331  37.4009514  26.3131142  63.4536934
  39.1639862  26.8894196  62.4564209  38.6272316  27.6925869  61.9515266
  40.6769180  27.0681286  62.8046570  41.2362823  27.1585636  61.8735161
  40.7859573  27.9169636  63.4797058  41.0778847  26.2045269  63.3352432
  39.0406914  25.8087292  61.3603249  39.4706764  24.8492565  61.6477623
  38.0347176  25.6967602  60.9558754  39.6480141  26.1599426  60.5261154
  37.9107933  28.9603081  64.3791809  38.6394615  29.7899742  63.8798370
  36.6357880  29.2147770  64.5793991  36.1881828  28.4588585  65.0777359
  35.9947968  30.4885006  64.2638931  36.5599213  30.9485741  63.4532967
  34.5883293  30.2717228  63.7784843  34.1683197  29.8134041  64.6738205
  34.1544151  31.2151470  63.4471626  34.4268112  29.3764973  62.5685463
  35.0860329  28.5140762  62.6673241  32.9160805  28.9715385  62.4858360
  32.6865883  28.4162731  63.3952980  32.2307739  29.8165054  62.5527992
  32.8300209  28.4379349  61.5392838  34.8152657  30.0887203  61.2825241
  35.8926697  30.2536659  61.2727203  34.5647354  29.3556023  60.5157967
  34.1929550  30.9668007  61.1098747  36.1625328  31.4580917  65.4025726
  36.5976334  32.5523911  65.2148895  35.9183044  30.9871693  66.6343079
  35.6077995  30.0361805  66.7732697  36.0853729  31.8772087  67.8462906
  35.5071983  32.7880211  67.6906281  35.4531708  31.2586174  69.1195221
  35.6618843  30.2360229  69.4339142  35.7425537  31.7859173  70.0285416
  33.9760818  31.2795601  69.0341034  33.6307716  32.1977882  68.5589981
  33.6687355  30.4261456  68.4296799  33.2823830  31.2142754  70.4020386
  33.8624649  30.8480034  71.4241714  32.0776062  31.5412922  70.4200897
  37.5482483  32.4166565  68.1094971  37.6841965  33.5542068  68.5321655
  38.6152306  31.7124634  67.7373428  38.5521965  30.7138634  67.5997696
  39.9861488  32.2803879  67.7095337  40.1639786  32.7586212  68.6727371
  41.0414772  31.0915298  67.6925125  40.6764565  30.2386894  68.2648087
  41.0098305  30.7085247  66.6725006  42.4122849  31.4714298  68.2377777
  43.0281563  30.6083546  67.9849777  42.7732735  32.3432770  67.6921921
  42.3895760  31.6222229  69.7710190  41.6180229  32.3782463  69.9167328
  42.1458588  30.6598969  70.2211685  43.7880402  32.1505928  70.2010727
  44.6100922  31.5480137  69.8147659  43.8880424  33.1274643  69.7279739
  43.8258972  32.2436180  71.6468353  43.8271790  31.3480530  72.1138077
  44.6731071  32.6928101  71.9639587  43.0491486  32.7789192  72.0076981
  40.1029968  33.2470512  66.6124496  40.6496696  34.2819748  66.7968216
  39.6962128  32.8823166  65.3824234  39.3334808  31.9556198  65.2099075
  39.7068024  33.7645874  64.1935120  40.7535782  34.0410271  64.0672073
  39.2288437  32.9673004  62.9588776  38.4009361  32.3200569  63.2482834
  38.7231178  33.9934998  61.9332924  39.5531311  34.4976082  61.4382629
  38.1486282  33.4936295  61.1534233  38.1491394  34.8616257  62.2573471
  40.3959312  32.1102715  62.3068008  41.0548592  32.7790680  61.7530594
  40.7700806  31.3232517  62.9615593  39.8815079  31.3104362  61.1281090
  39.4399071  31.9715633  60.3824654  40.6840515  30.6611824  60.7781181
  39.0267296  30.6996212  61.4185562  39.0632477  35.0759811  64.3979111
  39.6531105  36.0463486  64.0118179  37.8933525  35.0644455  65.0376740
  37.4771156  34.1559563  65.1842651  37.0792160  36.1844025  65.5484848
  36.7718430  36.7555199  64.6724396  35.8195648  35.6335144  66.2622299
  36.1653709  34.7608757  66.8163223  35.1662979  36.6967316  67.1960678
  34.2175598  36.3336906  67.5912781  35.8275070  36.8419571  68.0503540
  34.9899864  37.5822678  66.5854568  34.9362068  35.1669273  65.1065979
  34.6462784  36.0415916  64.5243530  35.5120125  34.5727539  64.3970184
  33.7300377  34.3615036  65.5112534  32.9756012  35.0302582  65.9256134
  33.3057137  33.8545990  64.6445999  34.0044479  33.5299683  66.1603622
  37.8234711  37.0631409  66.5304871  37.9430656  38.2761459  66.2711411
  38.3422279  36.4468155  67.5690460  38.1502266  35.4725494  67.7535477
  39.2088814  37.1456261  68.5615540  38.5740280  37.8944855  69.0351257
  39.5752411  36.2034874  69.6489334  38.6252518  35.7452583  69.9239731
  40.2582626  35.4922981  69.1844025  40.4859238  36.8324318  70.7318344
  40.6957474  36.0095901  71.4152145  41.3877220  37.1282387  70.1957779
  39.8212471  38.0359879  71.4677811  40.5212517  39.0490685  71.7027817
  38.6142578  38.0565681  71.7712021  40.3214874  37.9484825  67.9292603
  40.4398537  39.1209831  68.2063217  41.1601677  37.3552513  67.1049728
  40.9891090  36.4198074  66.7647018  42.3964500  37.9671097  66.7220612
  42.8241615  38.5233765  67.5561676  43.2768402  36.7997780  66.2928925
  42.7185287  36.1223869  65.6467285  44.1105423  37.2163086  65.7276001
  43.8379250  35.8492393  67.3658447  43.0529938  35.8402557  68.1220856
  43.9703674  34.8617821  66.9237061  45.2166557  36.2994232  67.8628845
  46.1874886  35.4865837  67.8851242  45.4096184  37.5187721  68.2223129
  42.0749741  39.0001640  65.6274490  42.7080116  40.0137672  65.6412735
  41.2128067  38.6929016  64.6366577  40.9788513  37.7104530  64.6240158
  40.9745293  39.4915810  63.4387856  41.8859825  40.0596695  63.2526817
  40.5936089  38.5477867  62.2571297  39.7243347  37.9143982  62.4339867
  40.4087601  39.1186028  61.3471260  41.6953773  37.6496582  61.8453865
  42.6058350  38.1040154  61.1796341  41.6625290  36.3411255  62.0415916
  42.5140076  35.8307266  61.8556252  40.8786888  35.9166031  62.5164375
  39.8780289  40.5714455  63.7142754  39.5580788  41.3567696  62.8374023
  39.1911926  40.5368004  64.9024506  39.4658661  39.7886887  65.5229187
  38.1156616  41.4923019  65.3470459  37.8512383  41.1331215  66.3416214
  38.7289047  42.8626060  65.6610107  38.9731560  43.4120789  64.7518768
  37.8582153  43.3569107  66.0918961  39.8785858  42.8930092  66.6461182
  39.7936707  42.4820862  68.0002975  38.9639854  42.2608604  68.5320740
  40.9625015  42.8175545  68.5332184  41.2564888  42.6556549  69.5597458
  41.8410301  43.2133865  67.5610275  42.8217583  43.4262772  67.6748199
  41.1840782  43.3502045  66.3742371  41.5264435  43.7652092  65.4377747
  36.9157295  41.4631653  64.4232483  36.2188683  42.4058113  64.2554550
  36.6516266  40.2854156  63.8966179  37.2516174  39.4814072  64.0135574
  35.5867195  40.1384926  62.9034576  35.6337624  40.9194679  62.1445312
  35.7333221  38.7708359  62.1568260  35.4410095  37.9425316  62.8022461
  34.9996834  38.7294731  60.8158989  33.9482727  38.4868851  60.9701462
  35.1221619  39.7386971  60.4227486  35.3824310  37.9368172  60.1730156
  37.0508957  38.5775604  61.6719475  37.3276367  39.3317070  61.1463280
  34.1396675  40.2319984  63.4906311  33.8855057  39.6777573  64.5901871
  33.2625160  40.8739395  62.7207947  33.5244141  41.3350182  61.8611908
  31.8502598  40.9901276  63.0255089  31.6809902  40.1342812  63.6789398
  31.5060425  42.2063675  63.8414421  30.5299778  42.1501808  64.3233566
  32.1613312  42.2301712  64.7121506  31.5869980  43.5528717  63.1356812
  32.5967598  43.5606194  62.7252960  30.9629402  43.6550179  62.2478638
  31.4235191  44.7771530  64.0952530  30.5627193  44.5358543  64.7188721
  32.3376884  44.8264809  64.6868362  31.3123589  46.0273819  63.1486702
  30.3976631  45.9912682  62.5569572  31.1564960  46.8181572  63.8824883
  32.5699348  46.2991791  62.4653893  33.3216438  46.3777466  63.1353607
  32.8334541  45.6665268  61.7234955  32.5304565  47.2483139  62.1223297
  30.9918976  40.7927017  61.8557472  31.3871593  41.2020721  60.7375603
  29.8123112  40.0946999  62.0097923  29.1428947  39.8177223  63.2683182
  29.0899220  40.6305580  63.9926033  29.5683002  38.9210701  63.7190399
  27.7354088  39.4292412  62.9449158  27.2285881  40.3862724  62.8211060
  27.3165874  38.7946777  63.7259521  27.9009666  38.7826538  61.5888023
  26.9870205  38.9713097  61.0255852  27.9321098  37.6945724  61.6454964
  29.2033100  39.2889786  60.9575043  29.8450241  38.4146347  60.8487358
  28.9375401  40.0419083  59.6350784  29.2295933  39.4671555  58.5584106
  28.4939346  41.3189278  59.6731873  28.0900326  41.6989441  60.5173111
  28.1033096  42.0749435  58.4842796  27.5650711  41.3836823  57.8357697
  27.0915661  43.2210197  58.8471794  26.7033272  43.7373962  57.9692688
  26.2200699  42.8403473  59.3798027  27.6063881  44.4251709  59.7173615
  28.5323162  44.7497597  59.2425957  26.8832436  45.2193794  59.5319023
  27.7214890  44.2141838  61.1950226  28.1235275  45.1812897  61.9150429
  27.3925476  43.1700668  61.7352486  29.3102779  42.5624008  57.6257935
  29.0796299  43.1520309  56.5616875  30.5523510  42.4339523  58.0960922
  30.6277409  42.0595512  59.0311012  31.7510567  42.6610069  57.3369865
  31.6719151  43.4610748  56.6009636  32.8410187  43.0978088  58.3759766
  32.8612518  42.2791710  59.0953674  33.7903976  43.1545181  57.8434677
  32.5317459  44.4728928  59.0255890  31.9288406  45.3508492  58.3514214
  33.0633202  44.7218285  60.1350479  32.2247200  41.4020348  56.6095390
  32.9598694  41.6263237  55.6907272  31.8230782  40.1781273  56.9839554
  31.0534420  40.0726204  57.6294250  32.0655632  38.9498940  56.1608925
  33.1188049  38.8957901  55.8854675  31.6525574  37.6840363  56.9716644
  30.6005669  37.8215828  57.2216759  31.7598343  36.3981514  56.1404495
  30.8956070  36.3167839  55.4812126  32.7225494  36.4419289  55.6311760
  31.6187134  35.5818901  56.8489037  32.4173851  37.5360680  58.3391953
  32.3285980  38.5382805  58.7584724  31.9084816  36.8041954  58.9664726
  33.4582710  37.2224083  58.2599564  31.2602177  39.0656776  54.8826866
  30.0352707  39.2869530  54.8495026  31.9504490  38.9301605  53.7126541
  32.9005356  38.6047745  53.8201790  31.4974594  38.8138351  52.3133507
  30.6973972  39.5162582  52.0796700  32.6584663  39.1032600  51.3675766
  33.3546715  38.2656784  51.4106522  32.2369308  38.8753471  49.9340363
  31.4005985  39.5395813  49.7161942  33.1127319  39.1585960  49.3502197
  32.0655518  37.8149490  49.7488823  33.2129211  40.5330238  51.5211983
  34.1636505  40.4789619  50.9908295  32.6151772  41.3804092  51.1854210
  33.3929787  40.7306328  52.5779037  30.7725048  37.4399986  52.1220818
  29.5933437  37.2969971  51.8583641  31.5167694  36.3416214  52.3839149
  32.4419060  36.4975166  52.7579689  31.1949196  34.9140015  52.1458893
  30.1684418  34.7533722  52.4754982  31.2525406  34.5884743  50.5774422
  30.9653130  33.5458870  50.4410057  30.5462341  35.3266029  50.1974449
  32.6430283  34.8004646  49.9357185  33.0486794  35.7575493  50.2636375
  33.4287109  34.1169891  50.2577019  32.5554543  34.7965775  48.4473228
  31.6156216  35.2015839  47.7842102  33.5890694  34.3802948  47.7815933
  34.2601624  33.9386826  48.3937302  33.5663567  34.1799507  46.7919197
  32.1681633  34.0261612  52.9189339  33.2585678  34.5377464  53.1610413
  31.7362823  32.8077736  53.2441483  30.7506294  32.6912651  53.0570335
  32.6035538  31.8763809  54.0041847  33.6147003  32.2831039  54.0202827
  32.1506042  31.7895947  55.4520760  32.0825500  32.7498474  55.9633331
  31.2393665  31.1917934  55.4718208  33.0656242  30.9451389  56.2561569
  33.5148392  30.1870441  55.6145973  33.8824005  31.6035919  56.5518303
  32.4408607  30.0309792  57.6991882  31.8240948  31.3993702  58.7833824
  31.0539246  32.0927315  58.4454651  31.4362068  31.0309505  59.7330704
  32.6421318  32.0379257  59.1168022  32.5488396  30.5127754  53.2874374
  31.4938698  29.9161396  53.2306404  33.6640816  30.2034073  52.7543755
  34.4884071  30.7623901  52.9220886  33.9004021  28.9372616  52.1162453
  32.9662094  28.3848572  52.0150604  34.5705414  29.2074184  50.7688141
  33.7821236  29.6102066  50.1330032  35.3218346  29.9603519  51.0070419
  35.2192383  28.0587368  49.9593201  35.8941002  27.5652866  50.6587296
  34.0801086  27.1070614  49.4600525  34.5783997  26.2685070  48.9735985
  33.3923073  26.7521954  50.2275810  33.5018730  27.6173916  48.6897888
  35.9339676  28.6367931  48.7485962  35.1250420  29.0884972  48.1744003
  36.7068825  29.3479347  49.0401077  36.4702263  27.8045063  48.2927208
  34.7105446  28.0637436  53.1527023  35.8640480  28.3145657  53.5339813
  34.0797234  27.0780277  53.8187141  33.1002617  26.9422379  53.6130104
  34.7884979  26.0011501  54.5690804  35.7142715  26.3224850  55.0463524
  33.8487778  25.4628391  55.6620522  33.0054588  24.9337196  55.2182655
  34.4619598  24.7434101  56.2047615  33.2213211  26.5644360  56.5983887
  32.4682159  27.1812916  56.1080589  32.6854744  25.9901581  57.8524208
  31.7340107  25.5278778  57.5895119  33.3026772  25.2430134  58.3513565
  32.3724861  26.7767124  58.5390549  34.5130692  27.4319839  57.0662613
  35.2601852  26.8097591  57.5589600  34.9432526  27.9268608  56.1955490
  34.3349113  28.1369858  57.8782539  35.2323265  24.9508171  53.6285858
  34.8134689  24.9271030  52.4781303  36.1304359  24.0923405  54.0637245
  36.5015602  24.2061348  54.9961510  36.5524521  22.9064331  53.3499756
  35.7419205  22.5723438  52.7022667  37.7373657  23.3047829  52.4260635
  37.5190430  24.1579380  51.7837524  38.5396385  23.6755085  53.0640450
  38.1886559  22.2658195  51.6599083  39.0414886  22.4980392  51.2852707
  36.8009224  21.7508087  54.2832375  37.1733894  21.9973545  55.4555740
  36.7558212  20.5523758  53.7147293  36.4732933  20.5043335  52.7462425
  37.1936493  19.3001595  54.3789062  37.8733330  19.5668945  55.1882133
  35.9206924  18.7533569  55.0321541  36.2126579  17.9374218  55.6932983
  35.3832016  19.4819069  55.6391296  35.2596359  18.2883911  54.3007812
  37.8238335  18.2183037  53.4947624  37.5233688  18.2360744  52.3175087
  38.6688194  17.3662491  54.0745926  38.7423973  17.3786488  55.0818329
  39.2091217  16.1607742  53.4298782  39.4389801  16.4891834  52.4162598
  40.4143867  15.5189714  54.1769638  40.8526649  14.6797352  53.6368752
  41.5637436  16.5361271  54.3961792  42.3101501  16.1324615  55.0803032
  41.9201927  16.7075138  53.3804665  41.1706963  17.4825554  54.7675095
  40.0885849  15.1406040  55.5083504  40.1495781  14.1828423  55.4843826
  38.1893654  14.9542837  53.2343712  37.2152710  14.8742132  53.9453201
  38.4184151  14.0791731  52.2440491  39.5479202  14.0696907  51.3112526
  40.3926315  13.5024891  51.7022133  39.8628998  15.1050892  51.1814957
  38.9555473  13.4818363  50.0379219  39.6296692  12.8987322  49.4105072
  38.4122124  14.2747412  49.5239296  38.0295143  12.3554487  50.6006203
  38.6630898  11.4905577  50.7972031  37.2379608  12.2724619  49.8558655
  37.4777069  12.9457788  51.8961563  36.4765549  13.3277588  51.6964493
  37.1883965  11.8730116  53.0137329  36.1636086  11.2281961  52.8818130
  37.9532166  11.8046875  54.0783386  38.7235107  12.4448948  54.2082710
  37.7564125  10.8571405  55.1362953  37.2115479   9.9652357  54.8268929
  39.0869102  10.4679079  55.8394470  38.8412056  10.2541504  56.8796577
  39.4301796   9.4982786  55.4787712  40.2723999  11.4553528  55.8867149
  41.3416977  11.1634121  56.5124855  40.0455322  12.6340971  55.4275627
  36.7613297  11.3290834  56.2035675  36.2996521  10.4949512  56.9285431
  36.2741699  12.5921640  56.2327232  36.5928879  13.1686573  55.4671021
  35.2075119  13.1426373  57.1238289  35.2845917  12.5170784  58.0131187
  35.5171127  14.5636158  57.4947624  35.3569183  15.2462254  56.6602058
  34.7662048  14.7888126  58.2520714  36.7919273  14.8802414  58.1739578
  37.5593300  14.7627554  57.4088478  36.8226967  16.3278675  58.7767944
  35.9873543  16.5120678  59.4523430  37.7412529  16.6079159  59.2924805
  36.6536064  17.0727310  57.9991798  37.1764030  13.9138279  59.3507881
  36.4623413  13.9524422  60.1734161  37.2712173  12.8848400  59.0039520
  38.1166077  14.2221403  59.8080215  33.8312607  12.9662809  56.4478302
  33.6418495  13.4370270  55.3263550  32.8336868  12.3570786  57.1082382
  33.0184593  11.8941498  57.9866791  31.5224400  12.0575047  56.5486832
  31.2850437  12.6801920  55.6861191  31.3723698  10.6202803  56.0643501
  31.3667278   9.9830837  56.9486847  30.3911953  10.5963831  55.5901947
  32.4154968  10.0239439  55.1438789  32.9080162  10.4303207  53.8411522
  32.6955299  11.2676458  53.3178558  33.7432556   9.5786467  53.3956146
  34.1558342   9.5825081  52.3975334  33.8037300   8.6086979  54.3114281
  34.3726311   7.7805562  54.2083092  33.1077232   8.8833065  55.3980637
  33.1464729   8.2666750  56.2838745  30.3012352  12.4175701  57.3660011
  29.1996593  12.4754553  56.8103180  30.5428677  12.5632296  58.6645737
  31.4289188  12.2845716  59.0612640  29.3809853  12.6798363  59.5211830
  28.7056618  11.8301277  59.4210167  29.9018059  12.8324223  60.9815331
  30.5094109  11.9453344  61.1603966  30.4547310  13.7580528  61.1414680
  29.0071583  12.6979637  61.5895004  28.4265919  13.8588476  59.2779579
  27.2049351  13.7130041  59.3193512  28.9333572  15.0543957  59.1319618
  29.9173183  15.2466211  59.2543144  28.1815186  16.2898808  59.1158028
  27.1881180  16.1982880  58.6766319  27.9842072  16.7702751  60.5369339
  27.6142311  15.9240055  61.1157646  29.2300606  17.2429028  61.1751862
  29.7957478  16.3454094  61.4253922  29.8019905  17.9538727  60.5789337
  29.0568542  17.7307625  62.1343994  26.7742825  17.7107716  60.6238174
  26.5946884  17.9721699  61.6666603  26.9561138  18.6068287  60.0304184
  25.9261112  17.1592979  60.2181282  29.0885143  17.2692337  58.2697983
  30.2908497  17.1553440  58.2271729  28.3973866  18.1758060  57.6157532
  27.3999538  18.0887127  57.4829292  29.0963745  19.3382797  57.0253639
  29.9964867  18.9527721  56.5465240  28.3425331  20.1076813  55.9033813
  27.4808693  20.5358696  56.4155121  28.9662304  20.9490757  55.6014519
  27.9192333  19.2974472  54.7094193  26.6327763  18.9043674  54.6506577
  26.0660381  19.0134373  55.5635185  26.1829185  18.2717838  53.4871521
  25.1942711  17.8397846  53.4386292  27.0391483  18.0691471  52.4058647
  26.6675205  17.4922485  51.5719109  28.3662109  18.4934597  52.4525566
  29.0521965  18.2133045  51.6668472  28.7848644  19.1434135  53.6302605
  29.7726879  19.5793190  53.6545639  29.6007252  20.3561325  58.0173645
  28.7400398  20.8166943  58.8435860  30.8493004  20.8759918  58.0345764
  32.0696640  20.2192249  57.5878639  32.2274284  20.4856377  56.5427628
  31.9851570  19.1329346  57.6183853  33.1861115  20.7723770  58.4229469
  34.1560822  20.8026905  57.9266243  33.2720604  20.1179295  59.2903633
  32.6718292  22.1440639  58.8341255  32.7276230  22.8240643  57.9840736
  33.2300644  22.4526062  59.7180252  31.2679424  21.7683144  59.1504517
  31.1986694  21.2522545  60.1080437  30.4612484  23.0682259  59.3459969
  30.5162106  23.6328201  60.5041618  29.8032379  23.6235371  58.3208847
  29.9769745  23.2400513  57.4028130  28.8254833  24.7783794  58.3645859
  29.3938560  25.5439529  58.8927498  28.4277401  25.1968861  56.9080124
  27.6280537  24.5141792  56.6207542  27.9430122  26.1730614  56.9229164
  29.3202457  25.1997318  56.2822914  27.6057777  24.6325474  59.3014679
  27.0466385  25.6518555  59.6952400  27.3936481  23.4241505  59.8608284
  27.8328705  22.6131172  59.4492340  26.5130138  23.3006287  60.9784813
  25.5567589  23.7501755  60.7109337  26.3524513  21.7892323  61.3268585
  27.3309269  21.3090973  61.3394203  25.9638901  21.7895527  62.3452530
  25.3318596  20.9829865  60.4387894  25.7505894  20.9924450  59.4324722
  25.2119255  19.9624310  60.8023720  23.8890438  21.4880161  60.3967247
  23.5219612  21.5964146  61.4173126  23.8055782  22.4074001  59.8171883
  23.0601139  20.5859642  59.5416489  22.1883411  21.1128349  59.1536827
  23.7101269  20.2299004  58.7423935  22.5141163  19.4436226  60.2799377
  21.8671017  19.6572609  61.0254822  21.9509544  18.8178272  59.7219696
  23.2304802  18.8451900  60.6656837  26.8723564  24.1504650  62.2497330
  25.9396744  24.4857979  62.9644203  28.1571808  24.3884087  62.5390816
  28.9126625  23.9365540  62.0439301  28.6701241  24.8270035  63.8578796
  28.1126709  24.2497215  64.5955048  30.1238995  24.3700981  63.7275734
  30.4482708  24.5075130  64.7590790  30.1022167  23.3217182  63.4300270
  30.6892071  24.9036179  62.9634476  28.4755592  26.3826408  64.0604324
  28.9160156  26.8435822  65.0728760  28.0619793  27.1858730  63.0287514
  27.6600380  26.7975464  62.1874771  28.1217937  28.6769238  62.9384422
  28.9352016  29.0559406  63.5571632  28.3146381  29.0455666  61.4416046
  27.3768482  28.9914532  60.8886833  28.9070435  30.4058952  61.3918495
  28.2209625  31.1687946  61.7597961  29.8980560  30.3827076  61.8451233
  29.1859837  30.7018032  60.3805466  29.3475246  28.1639118  60.7039223
  29.2716427  27.0809708  60.8018799  29.1328869  28.2206001  59.6367683
  30.4006004  28.3336315  60.9282532  26.9201641  29.4366302  63.4964180
  27.0240631  30.6490593  63.8227921  25.7563210  28.7345409  63.7270737
  25.6647472  27.8031979  63.3471832  24.6004753  29.3318043  64.4877777
  24.4508705  30.3536415  64.1391068  23.2187729  28.6078148  64.2930374
  22.3965397  29.0656223  64.8429871  22.8638420  28.7051468  63.2670441
  23.3268623  27.0982819  64.6899261  24.0741997  26.6067810  64.0670242
  23.5356178  26.9151955  65.7439728  22.0080566  26.4060478  64.5132446
  21.3799400  26.6813164  65.3604736  21.5160446  26.6968288  63.5850868
  22.1504631  24.9347782  64.5766525  23.0827847  24.5562515  64.4895020
  21.2294827  24.0666161  64.9213486  19.9274349  24.2862053  64.8617172
  19.5721588  25.1044521  64.3880615  19.2731552  23.5456905  65.0706558
  21.4946594  22.8537369  65.4117432  20.7066765  22.3063869  65.7273254
  22.4168682  22.7005596  65.7940598  24.9382076  29.5257816  65.9753571
  24.1820431  30.1197395  66.6524887  26.1067390  29.0336609  66.4552002
  26.5036354  28.2865982  65.9034119  26.5841846  29.2992249  67.8153305
  25.6981506  29.3210850  68.4498138  27.4749413  28.1764431  68.3226471
  27.0740681  27.2445030  67.9240417  28.4891071  28.3397446  67.9580917
  27.6852608  27.7736416  69.8087845  28.2500019  26.8429489  69.8633652
  28.2979507  28.5152130  70.3214111  26.3428955  27.4739876  70.6105957
  25.9058495  28.3096390  71.4038391  25.7279682  26.4237576  70.4223557
  27.2012634  30.6487122  68.0005722  27.4867420  31.0072002  69.1186523
  27.3987274  31.3532009  66.8649521  27.2660561  30.8361454  66.0075378
  27.8999500  32.7144203  66.8834381  28.3441544  32.7545280  67.8780060
  28.9383736  32.8601303  65.8219910  28.3690281  32.7851372  64.8955383
  29.2395172  33.9050674  65.7476654  30.0897160  31.8345585  65.5873032
  29.6354141  30.8517990  65.4612198  30.9165821  32.2981529  64.3565063
  31.3099270  33.3053055  64.4944153  31.8434429  31.7252064  64.3288956
  30.4197159  31.9988155  63.4336700  30.8879852  31.7048645  66.8357620
  31.2929306  32.6521606  67.1917725  30.2827587  31.2007656  67.5892105
  31.7306995  31.0647774  66.5745697  26.7452068  33.6878281  66.7937088
  26.1006260  33.8535538  65.7453613  26.4747734  34.4790154  67.8323288
  26.8686714  34.2878075  68.7424850  25.4334259  35.4926682  67.8230743
  24.5787907  34.8464966  67.6226578  25.1861839  36.1769562  69.1370621
  25.0779018  35.3833122  69.8763199  26.0019150  36.8866730  69.2748566
  23.9950142  36.9708862  69.1248245  23.1396351  36.5374718  69.1704559
  25.5876827  36.5971794  66.7982864  26.6506634  37.1936531  66.7109680
  24.5119934  36.7831268  66.0174408  23.6743889  36.2537994  66.2132339
  24.4634380  37.7771454  64.9073105  23.4417820  38.0921707  64.6950226
  24.8716030  38.7214508  65.2675781  25.0396900  37.2859840  63.5579147
  24.7842312  37.9620972  62.5742188  25.5603199  36.0527725  63.4566803
  25.5279140  35.5081139  64.3066177  26.1767654  35.5678139  62.1944618
  26.5393009  36.3873024  61.5738907  27.3638897  34.5883064  62.4767990
  27.0753307  33.7181625  63.0664444  27.5501690  34.1438026  61.4991379
  28.6662254  35.1514206  62.9507866  28.8894138  35.9062347  64.0528641
  28.1172810  36.0195961  64.7994308  30.0981750  36.5165405  64.0436325
  30.4772949  37.2021446  64.6810608  30.8278255  36.0053329  62.9534187
  32.2479553  36.1452713  62.5510979  32.9022713  36.6253738  63.2636871
  32.6902657  35.4856949  61.4394798  33.7173805  35.5714607  61.1168747
  31.7573185  34.7150650  60.7027550  32.2039986  34.2719498  59.8249550
  30.4014416  34.6683540  60.9854736  29.7353458  34.1682816  60.2979813
  29.9126301  35.2255363  62.1813316  25.1349735  34.9057274  61.3054123
  25.5247231  34.2929077  60.2475624  23.8454704  34.9145164  61.6359673
  23.6506329  35.4104156  62.4940033  22.7678280  34.1115685  60.9581108
  23.3013325  33.1645966  60.8761406  21.5352859  34.0438156  61.9579659
  20.8575993  33.2058144  61.7948952  21.7992191  33.8749580  63.0019646
  20.6868038  35.3539772  61.9524612  20.9323597  35.8191376  60.9977722
  19.6547165  35.0149765  62.0417709  20.8174458  36.2361946  63.1943016
  21.7633476  36.0811234  63.9049034  19.8797169  37.1042442  63.4507942
  19.1528816  37.1801949  62.7536240  20.0184669  37.8707504  64.0936890
  22.4636841  34.5424232  59.5321655  22.0354118  33.6531219  58.6904068
  22.6663036  35.7987823  59.0911522  23.0077171  36.4062653  59.8222466
  22.5481052  36.2414131  57.6971703  21.7220745  35.7009964  57.2348633
  21.9057522  37.6701927  57.7472267  22.6950321  38.3870621  57.9735794
  21.4487228  37.8807869  56.7803383  20.7710209  37.8800735  58.7414474
  19.5603542  37.1571999  58.5979347  19.3693352  36.4984283  57.7637100
  18.4602528  37.3205681  59.4870720  17.4636497  36.9455566  59.3066521
  18.7363033  38.1419296  60.6268425  17.8104458  38.2914391  61.6059914
  16.8795490  38.1804352  61.3993301  19.9587536  38.7708740  60.7858391
  20.0390339  39.3690186  61.6814804  20.9940777  38.6675186  59.8932762
  21.9212093  39.2097321  60.0065422  23.7816353  36.0225487  56.7957497
  23.6788807  36.2144165  55.5870857  24.9632397  35.7012634  57.3239059
  25.0478592  35.6898384  58.3302917  26.2134380  35.3792038  56.5619965
  26.5057907  36.2677345  56.0024071  27.3831768  35.0619240  57.5245132
  27.0886326  34.2436295  58.1815834  28.6602211  34.5899391  56.7212296
  28.5959587  33.5502129  56.4003868  29.0093098  35.2769394  55.9503441
  29.4598713  34.6634750  57.4582863  27.8015156  36.2107468  58.4287643
  28.1509323  37.0895309  57.8867836  26.8572712  36.4553452  58.9152527
  28.5342712  35.9257812  59.1837234  26.0296593  34.2615318  55.5986862
  25.3773575  33.2599258  55.9798088  26.5607319  34.3333473  54.3628578
  26.9704647  35.4829025  53.6033707  28.0526199  35.6134300  53.6016731
  26.5299339  36.4415627  53.8772507  26.5494976  35.1737633  52.2421455
  27.1145744  35.7859077  51.5392456  25.4972363  35.2807121  51.9786949
  26.6943378  33.6393166  52.0114212  27.7136440  33.4179115  51.6950417
  26.0174618  33.1864700  51.2869339  26.5840359  33.0767899  53.4568481
  25.5867100  32.6487656  53.5580406  27.6238174  32.0579300  53.7656097
  28.8281803  32.3843956  53.7132988  27.3307152  30.8130741  54.0729980
  26.3424606  30.6121464  54.0174484  28.2214260  29.7197628  54.4890594
  29.2781906  29.9789276  54.4243851  28.0243130  29.4109650  55.9656448
  28.6350098  28.5173512  56.0945435  28.5033398  30.4537601  57.0012589
  29.5030346  30.8112373  56.7544441  27.7954350  31.2825089  56.9891396
  28.5521603  29.9712200  57.9774170  26.6620331  29.0201702  56.4740334
  25.9515438  29.8381424  56.5932426  26.2715302  28.1383381  55.9661179
  26.7782650  28.7933998  57.5338326  27.9753437  28.5031738  53.5167084
  26.9285030  28.2621117  52.9479218  29.0674896  27.7635593  53.2665329
  29.9352894  27.9340267  53.7543488  29.1266708  26.6068516  52.4284744
  28.3340721  25.9154644  52.7146034  28.8857594  26.8485355  50.9358826
  27.9310551  27.3700619  50.8676720  29.8739090  27.8153496  50.2696037
  29.6704674  27.8755302  49.2004433  29.7947674  28.8283558  50.6641350
  30.9267635  27.5332413  50.2731361  28.9146633  25.6096878  50.2766571
  28.2515011  25.0384140  50.6709518  30.4689064  25.8268909  52.5876884
  31.4800262  26.4731102  52.7795677  30.4483109  24.5045109  52.4972878
  29.6158714  23.9846287  52.2588234  31.6008015  23.6650829  52.6491776
  32.4263306  24.1723461  53.1484642  31.2494526  22.4173908  53.5257187
  30.3841209  21.9759312  53.0313339  32.1388741  21.7909603  53.4577942
  30.7837925  22.9976482  55.1987381  29.5169888  23.2613926  54.8662529
  32.0589828  23.1047134  51.3066673  31.2035866  22.6624432  50.5100708
  33.3483696  23.1433563  51.0744171  33.9907761  23.4983997  51.7682152
  33.8078232  22.4055786  49.8214951  32.9457512  22.1321735  49.2130737
  34.6112137  23.3568172  48.8608894  34.6897964  22.8692455  47.8891869
  34.1194687  24.3151875  48.6941032  36.0098267  23.7305412  49.3146095
  35.9649506  24.4294701  50.1498260  36.3988762  22.8055954  49.7403107
  36.9488182  24.3958817  47.9500160  38.5078049  24.1700191  48.7809715
  38.5064964  23.0976372  48.9761581  39.3198318  24.5245247  48.1461182
  38.6786003  24.8111000  49.6458092  34.6233253  21.1191463  50.1254425
  34.8138123  20.7806664  51.3549576  35.1909447  20.4034653  49.0822983
  35.0095139  20.6414833  48.1176567  36.1075401  19.3039017  49.3238792
  36.1855927  19.0496216  50.3809280  35.6341820  18.1203518  48.4069862
  34.5666809  17.9793148  48.5762444  35.7604523  18.4539776  47.3770103
  36.2988052  16.6856747  48.6157494  36.1586075  16.1542931  47.6744308
  37.3657951  16.8098869  48.8007050  35.5508919  15.8696184  49.7128754
  34.7455940  14.9644032  49.4913597  35.8831139  16.1729336  50.9719543
  36.5012398  16.9461746  51.1722603  35.4080505  15.6152687  51.6672440
  37.5605316  19.8532104  49.0756226  37.9127426  20.1570606  47.9016037
  38.4490051  19.9650249  50.0617371  38.1769485  19.5804195  50.9551353
  39.8973503  20.0338154  49.7624359  40.0434761  20.9111080  49.1322746
  40.7547455  20.0260315  51.0635223  40.1580772  20.2301865  51.9525719
  41.2246971  19.0648918  51.2719879  42.0334053  20.8594360  50.9104919
  42.7089653  20.5538864  51.7094650  42.4630814  20.6472282  49.9314880
  41.8098030  22.3773041  50.8517494  42.7926292  23.1088696  50.6925240
  40.6582718  22.8089142  51.0997124  40.3768654  18.7785759  48.9634476
  39.8625259  17.6755085  49.0102043  41.4718857  19.0005932  48.2614326
  41.7555618  19.9663315  48.1778908  42.3250237  17.9323807  47.7220879
  41.7076378  17.2628098  47.1232452  43.4796677  18.5250568  46.8821793
  43.9960899  19.1393261  47.6198006  44.2122269  17.7973366  46.5330734
  42.9693222  19.3627968  45.7051544  42.2182388  18.8998947  45.0650826
  42.2927628  20.1353397  46.0705872  44.2578278  20.1926060  44.6469421
  44.8017998  18.7405415  43.8250351  45.1021271  18.0522175  44.6150398
  43.9717293  18.3485260  43.2373238  45.5599327  18.9213600  43.0630379
  42.8506737  16.8137493  48.7377243  43.0500145  17.1050930  49.8736725
  42.9817085  15.5504742  48.1966820  42.9028053  15.4263783  47.1974449
  43.5406265  14.4062405  48.9808998  43.4690399  14.6256485  50.0461884
  42.6126251  13.2692661  48.8062859  41.6269264  13.6089001  49.1243172
  42.5359840  12.9859161  47.7565536  42.9706192  11.9800949  49.5468369
  42.1663818  11.0086460  49.3653526  43.8324165  11.9529314  50.5025864
  45.0933266  14.1335716  48.7655678  45.5317039  13.1523638  48.1158562
  45.8944206  15.1137781  49.1904984  45.5406418  15.8591232  49.7730789
  47.3438606  15.1763258  48.8151665  47.4245491  15.0033941  47.7420006
  47.9012108  16.5500069  49.1244392  47.5573578  16.8243561  50.1217346
  49.4205093  16.7709827  49.0545120  49.9675446  16.0737610  49.6891251
  49.7729836  16.5781403  48.0412598  49.7328262  17.7428150  49.4367409
  47.2760124  17.5343895  48.1411858  47.7202301  18.4944344  48.4040222
  47.4547501  17.1271133  47.1460571  46.2076645  17.5682831  48.3546867
  48.1708450  14.1177769  49.5359535  47.9275131  13.8737879  50.7077065
  49.0278397  13.3632793  48.7803345  49.2234688  13.6546860  47.8332787
  49.7073555  12.1400852  49.3333969  48.9836388  11.4915400  49.8270912
  50.4018059  11.3978672  48.1886177  49.6178322  11.2568140  47.4445839
  51.6337624  12.0805073  47.6007919  51.8807220  11.5872917  46.6606636
  51.6029358  13.1686258  47.6568947  52.4587669  11.9088907  48.2921791
  50.7655602  10.1518917  48.7094841  49.9974594   9.6145458  48.5024071
  50.7430725  12.7317705  50.3361397  51.2109871  13.8245974  50.1808205
  50.9789047  12.0363264  51.4528160  50.4381943  11.1867485  51.5299454
  51.6081314  12.5235615  52.6905632  51.6359596  11.7588854  53.4668350
  52.6654854  12.7692604  52.5918427  50.8857536  13.6836433  53.4393272
  51.3166504  14.0457926  54.4965591  49.7792854  14.1701326  52.9892235
  49.3887634  13.7350121  52.1656570  49.0583267  15.3122692  53.6558800
  49.7703819  16.1193905  53.8280106  48.3879929  15.7573547  52.9205894
  48.2532768  14.8416758  54.8929253  47.9860306  13.6296892  55.0038567
  47.9056206  15.7674990  55.8396835  48.3939667  16.6515141  55.8281097
  47.3129692  15.4177589  57.1439857  47.9789162  14.6065350  57.4381409
  47.6144524  16.5316925  58.1120529  48.6610641  16.8106232  57.9899979
  47.0828285  17.3785686  57.6781425  47.2603531  16.4308453  59.5643311
  46.2638016  16.0017529  59.4601021  48.2928848  15.4318867  60.1633682
  49.2360115  15.8741894  60.4842720  47.8108864  14.9946537  61.0377846
  48.4436836  14.5727797  59.5096855  47.4321442  17.6983051  60.3091240
  47.0974884  18.4454346  59.5894699  46.8058243  17.7097473  61.2011414
  48.4686394  17.9756317  60.5011406  45.8891716  14.9342279  57.0400848
  44.9927330  15.5359278  56.5168762  45.6096535  13.7870321  57.5990906
  46.2614708  13.3086910  58.2044220  44.2268143  13.2799711  57.6403084
  43.7897720  13.2790241  56.6417618  44.2722511  11.7871799  58.1519623
  45.0021019  11.7786465  58.9614983  43.3061790  11.6035070  58.6221428
  44.5481339  10.6742783  57.1412888  44.6607170   9.8056984  57.7901344
  43.5912285  10.5083399  56.6464157  45.5612755  10.8375216  55.9565506
  45.3374367  11.7411766  55.3896255  46.5645981  10.9160557  56.3752098
  45.6173820   9.6108074  55.0109978  45.8692589   8.6880636  55.5336876
  44.6865883   9.2494774  54.5737762  46.6158447   9.9286823  53.9486465
  47.4814453  10.2276678  54.3746033  46.7942276   9.1323586  53.3535423
  46.2859726  10.6790600  53.3585472  43.2896271  14.1449871  58.4674606
  43.6918907  14.8210268  59.3879929  42.0056381  13.8467360  58.2849808
  41.7907715  13.1305580  57.6059952  40.9318428  14.3179779  59.2293854
  39.9870377  14.1536226  58.7112770  40.8820724  13.5508976  60.5364494
  41.8326912  13.7349463  61.0370026  40.1041527  13.9969673  61.1560974
  40.6091042  12.0377235  60.3828125  39.6692505  11.8566103  59.8613014
  41.4807091  11.6258612  59.8741112  40.5527649  11.3762722  61.7605133
  41.5569077  11.4529781  62.1775398  39.8937225  11.8927422  62.4583817
  40.2032242   9.8882332  61.5842361  39.1954918   9.8161707  61.1751099
  40.9952240   9.6033392  60.8916512  40.2082520   9.2470646  62.8937416
  39.3559570   9.4825630  63.3818359  40.1492538   8.2463436  62.7705460
  40.9961700   9.4542837  63.4906883  40.8554230  15.8551321  59.3977547
  40.6898537  16.3962994  60.5050735  41.1833954  16.5874767  58.3655815
  41.2492218  16.1052456  57.4805870  41.4470482  18.0072403  58.4872055
  41.6294708  18.2398968  59.5363464  42.8009224  18.2056465  57.8111801
  43.4723969  17.4955139  58.2938194  42.7302780  17.9600582  56.7515602
  43.4607735  19.9176941  58.0674171  42.9654770  20.0674667  59.2991409
  40.2846375  18.7813473  57.9056168  39.6028442  18.3484344  56.9729385
  39.9588547  19.8439445  58.6525459  40.3929825  19.9477348  59.5585594
  39.0132103  20.9022980  58.3120880  38.4092140  20.5455780  57.4777985
  38.0056915  21.1447811  59.4854393  38.6767159  21.4244175  60.2976151
  37.1235466  22.3808613  59.1601830  37.6066360  23.3267918  59.4050293
  36.8300133  22.3446121  58.1110764  36.1832314  22.3044224  59.7061310
  37.1698799  19.8721333  59.7627144  36.5291748  19.6721821  58.9038658
  37.9103317  19.0924988  59.9416046  36.3938522  19.9720764  61.0280266
  35.5081520  20.6073837  61.0322647  36.1503563  18.9466667  61.3061333
  37.0183983  20.3806305  61.8224640  39.7453308  22.2107620  58.0021896
  40.6079330  22.6705379  58.7813263  39.2898140  22.8710060  56.9134293
  38.4720345  22.5622787  56.4074402  39.8619728  24.1290646  56.4072495
  40.5804443  24.4548302  57.1594391  40.6253624  23.9831810  55.1361160
  39.9760551  23.4588375  54.4350014  40.9326477  24.9417152  54.7179184
  41.8158188  22.9681854  55.2353325  42.5708771  23.3222523  55.9372025
  41.4282074  22.0268688  55.6249161  42.5375786  22.6875343  53.8469849
  41.9012413  21.9504700  53.3571739  42.6142540  23.6234856  53.2936134
  43.8874130  22.0737114  54.0808182  44.6636086  22.7199383  54.0779953
  44.1836586  20.7730064  54.2415810  43.2660332  19.8689766  54.4410553
  42.3110466  20.1729469  54.3157234  43.5135651  18.9170246  54.6704330
  45.4366264  20.4706936  54.3839836  46.2509880  21.0646896  54.4478798
  45.5727539  19.4942551  54.6034012  38.8097572  25.2413101  56.3127861
  37.6285133  24.9749374  56.2187271  39.2452049  26.4875298  56.3669052
  40.1733704  26.6022301  56.7482910  38.4566650  27.7450294  56.3059654
  37.4919357  27.5255470  55.8485489  38.1855240  28.4030228  57.7315521
  37.4474716  27.7867718  58.2449837  39.4025726  28.5179253  58.6599236
  39.7883377  27.5012932  58.7357178  40.1005249  29.2225990  58.2078209
  39.1334915  28.9899445  59.6048546  37.5316391  29.7899551  57.5832100
  36.6450195  29.6061440  56.9763947  37.1423035  30.1737213  58.5262070
  38.2668381  30.4797306  57.1687317  39.0417480  28.7765789  55.3228226
  40.2172241  29.0453968  55.3607826  38.1641922  29.4332256  54.5699005
  37.2003937  29.1370640  54.5109177  38.5928001  30.4031067  53.5057373
  39.4993973  30.8698330  53.8908997  38.8708801  29.6540661  52.1794739
  39.6220665  28.8908577  52.3827705  38.0247726  29.0527077  51.8469505
  39.2711716  30.4951553  50.9540710  39.5220795  29.8628483  50.1024094
  38.4222221  31.1009789  50.6372681  40.8231239  31.4829712  51.3314667
  41.7370186  31.1106777  49.8497162  41.0986557  31.1081219  48.9662132
  42.5716057  31.8062935  49.7620316  42.1018028  30.0868206  49.7675095
  37.4337006  31.4639530  53.4208984  36.4900780  31.2987576  52.6831818
  37.5933609  32.3973274  54.3299217  38.3926773  32.3026619  54.9400330
  36.5954590  33.4363480  54.6520538  35.5803795  33.1508865  54.3759422
  36.4915695  33.5250473  56.2533798  36.0220451  32.6032257  56.5967445
  37.4935684  33.6884003  56.6501312  35.4981461  34.6163177  56.5879097
  35.9492874  35.5913620  56.4038811  34.6609383  34.4791985  55.9035263
  35.0602493  34.4448776  58.3332291  36.4789581  35.4797173  58.9297523
  37.3724213  35.2243881  58.3599815  36.1676292  36.4839172  58.6420822
  36.7053490  35.3370132  59.9863892  36.9744644  34.8021393  54.0279160
  38.0882797  35.1813698  54.4218330  36.1526299  35.4996490  53.2821198
  35.2824326  35.0696259  53.0029449  36.4874153  36.8900719  52.8471680
  37.5484962  37.0840950  53.0039139  36.3785858  37.0771828  51.3649826
  35.3167686  36.9352608  51.1637268  36.8038139  38.5061378  50.8404312
  37.4087830  39.0412636  51.5723839  37.2840500  38.2822609  49.8878784
  35.8676186  39.0294418  50.6460152  37.1986465  36.0982361  50.7338676
  36.8274841  35.2460976  50.9740791  35.6367989  37.9367256  53.5839996
  34.5323715  37.7058525  53.9876480  36.2905464  39.0949631  53.8718567
  37.2776947  39.2013702  53.6866074  35.8619614  40.0940895  54.7934875
  34.7728386  40.0738297  54.7546577  36.3119469  39.6388092  56.2177773
  36.2149391  38.5565834  56.3042183  37.8775063  39.8303528  56.3865814
  38.3633308  39.4022675  55.5097580  38.1892052  40.8689690  56.4971123
  38.0878334  39.1690941  57.2271805  35.6325302  40.2847900  57.4118118
  35.8431740  41.3540039  57.3891830  34.5624046  40.0797844  57.3818550
  36.1576691  39.9860611  58.3190536  36.3222084  41.5625954  54.3955002
  37.3279228  41.6640129  53.7075653  35.7208900  42.6278572  54.9258728
  34.9672470  42.5291901  55.5909958  36.3238373  44.0337524  54.8829536
  37.0895882  43.9206276  54.1155357  35.2658119  45.1386719  54.4724503
  35.8008003  46.0750999  54.3143845  34.7032318  44.8797035  53.5754852
  34.2037506  45.2997322  55.5275917  33.5200272  44.4556618  55.4372139
  34.5641861  45.3180389  56.5561104  33.4747429  46.6119003  55.3205757
  33.6032562  47.2788429  54.2791061  32.6545067  47.0718384  56.2616692
  32.3430595  46.4789009  57.0176620  32.1396942  47.9397621  56.2195396
  37.0724106  44.5269814  56.1572037  36.6606903  44.1502914  57.2964935
  38.2946587  45.1224632  55.9187012  38.6259804  45.3323479  54.9879646
  39.1863213  45.4679947  56.9968605  38.5625000  46.0193405  57.7004013
  39.7143936  44.1779633  57.6478081  38.8127594  43.6774368  58.0008316
  40.5175934  43.2349701  56.6908531  41.4128075  43.7722321  56.3777351
  40.8218689  42.3899307  57.3084526  39.9800797  43.1050339  55.7515450
  40.4711723  44.5250397  58.7686691  39.8687363  44.5260315  59.5161133
  40.3813667  46.3491974  56.5948753  40.9374886  46.1969452  55.5028687
  40.7587814  47.2978363  57.4231796  40.2049370  47.3239174  58.2673798
  41.9332771  48.2145271  57.1321220  41.7776947  48.4925575  56.0897217
  41.8156815  49.5584679  57.9311905  42.6225090  50.2173729  57.6102905
  40.8408890  49.9289742  57.6140099  41.7854004  49.5803452  59.3949394
  41.5532112  48.5325356  60.0557060  42.0216713  50.6779938  59.9270477
  43.3105888  47.5405197  57.3623505  44.4360237  48.0449829  57.1033363
  43.2678223  46.2848511  57.8838043  42.3936501  45.8204613  58.0844612
  44.5567741  45.6627922  58.2788925  45.1737747  46.2828102  58.9292679
  44.2358627  44.3305206  59.0033684  43.5452576  43.6677284  58.4819489
  45.5103760  43.5449371  59.3814163  45.9929619  43.1886673  58.4713135
  46.1488037  44.1976891  59.9767570  45.1822510  42.7175865  60.0106392
  43.5842590  44.6267815  60.3332176  44.2776871  45.0520821  61.0587425
  42.6831589  45.2178764  60.1697426  43.3622856  43.6466675  60.7553520
  45.4169731  45.3521690  57.0292091  44.9801407  44.7644958  55.9865646
  46.7464638  45.6434937  57.1681709  47.3720360  46.5349731  58.2022591
  47.5962296  45.9482002  59.0930672  46.7026291  47.3877602  58.3151627
  48.7054977  46.8488159  57.5239410  49.5102615  46.9821587  58.2469025
  48.6312981  47.7167206  56.8687019  49.0305862  45.5949211  56.6958389
  49.4719582  44.8230438  57.3263092  49.6322899  45.8070946  55.8120766
  47.7371941  45.1919670  56.1864243  47.5505142  45.6894989  55.2347336
  47.7604446  43.6611595  55.7176476  47.6886520  42.7803688  56.5587425
  48.0899391  43.2337227  54.4959793  48.1300049  43.9781990  53.8146172
  48.1037903  41.9181290  53.9830627  47.0588722  41.6078911  53.9813614
  48.7130089  41.9310837  52.5814705  48.1205101  42.6278267  51.9885139
  49.7408371  42.2871246  52.6514969  48.6787910  40.5187187  52.0095940
  49.3549957  39.8893738  52.5881920  47.6705017  40.1110420  52.0820503
  49.0664597  40.4141121  50.5709229  50.2290039  40.5993843  50.2991486
  48.1358604  40.2120514  49.6750793  47.1539001  40.1975746  49.9109840
  48.3853302  40.1764069  48.6970215  48.9397087  40.9986000  54.8791008
  48.5052528  39.8467178  55.1626511  50.1094589  41.4384842  55.2647552
  50.2591667  42.4228287  55.0951920  50.9009171  40.6110764  56.1117134
  50.8764076  39.5412979  55.9041672  52.3746910  41.0208969  56.0276413
  53.0247192  40.2971611  56.5193405  52.7751617  40.9796486  55.0147133
  52.6663895  42.4018059  56.5005302  52.3345642  43.3363342  55.7393341
  53.2425652  42.5617218  57.5856018  50.3427582  40.5932007  57.5581093
  50.4881516  39.6086769  58.3070869  49.7586975  41.6872711  58.0513268
  49.5470352  42.4058647  57.3738823  49.1496544  41.7700577  59.3602066
  49.8787537  41.3856125  60.0734520  49.0248680  43.2750511  59.7095108
  48.4022179  43.8620834  59.0343819  48.6065979  43.3865814  60.7098732
  50.4270668  43.9311371  59.7872238  50.8304672  44.0084457  58.7775726
  50.3645439  44.9297714  60.2195740  51.3335228  43.0938835  60.6933632
  51.0587502  42.6466446  61.7910500  52.5260162  42.8920135  60.1989517
  52.5216827  42.9974861  59.1944809  53.1652145  42.2109375  60.5832138
  47.9050980  40.9081001  59.6783638  47.4580193  40.9983101  60.8122444
  47.2685394  40.2698517  58.6706772  47.8764343  40.2354469  57.8648376
  46.1384583  39.3421402  58.8395309  45.3650551  39.8803062  59.3875504
  45.5083160  39.0155525  57.5187073  46.2654266  38.5111084  56.9183578
  44.2713509  38.1557961  57.7454910  43.8754234  37.9648552  56.7480507
  44.5517120  37.1826363  58.1485558  43.5246239  38.7122879  58.3118935
  45.0982056  40.2120895  56.6091766  46.0135269  40.7570534  56.3783112
  44.8262405  39.7394562  55.6653748  44.0388641  41.1629105  57.0594025
  43.9410591  41.9708481  56.3343086  43.1608238  40.5171814  57.0728455
  44.3008575  41.4461708  58.0788269  46.5635185  38.1436806  59.6799240
  47.5865479  37.5794601  59.3497772  45.8123627  37.7659302  60.7141838
  44.9013596  38.2018509  60.7018776  46.0553246  36.6724396  61.6652184
  47.0882645  36.3324203  61.7395439  45.7428093  37.1070633  63.1293640
  44.6675072  37.1949692  63.2845917  46.0986595  36.2619095  63.7185898
  46.5179749  38.2799911  63.6877785  46.1535568  39.2030563  63.2369537
  46.3820457  38.3704262  64.7654877  47.9451637  38.0950203  63.4762611
  48.0442810  37.1128006  63.9383430  48.1926498  37.9691429  62.4222183
  48.8390312  39.1696625  63.9719467  48.5657234  40.1125870  63.7346878
  49.9543381  38.9362106  64.5014420  50.4095764  37.7249603  64.7054977
  51.2624245  37.6789017  65.2446060  50.1827431  37.0273438  64.0112534
  50.4967079  39.9219818  65.1257706  51.0664940  39.6776123  65.9230957
  50.1529961  40.8260994  64.8350220  45.2361870  35.4206772  61.3174248
  44.1333199  35.1040916  61.7856941  45.9244537  34.6465683  60.4324493
  46.8817520  34.8814774  60.2122307  45.5887642  33.2888260  60.0474396
  44.5496559  33.3071938  59.7187767  46.3052025  32.8776093  58.7686920
  47.3069191  32.5468636  59.0430489  45.7579041  32.0370102  58.3421288
  46.2371063  33.9439392  57.6902008  45.1842575  34.1329880  56.8282661
  45.4181824  35.2870865  56.1962051  44.9137115  35.6680145  55.3205299
  46.5266953  35.8791542  56.7244949  47.0051079  36.6603012  56.2990150
  47.1006889  35.0217247  57.6038742  47.9001808  35.2488861  58.2935219
  45.9008865  32.2724991  61.1803322  46.9959068  32.2365341  61.7310410
  44.8640289  31.4857407  61.6041832  44.0433540  31.3774662  61.0255051
  44.9111023  30.5953255  62.7624092  45.7329712  30.9174786  63.4018250
  43.6425247  30.7899590  63.5682755  42.7682838  30.4644318  63.0045090
  43.6214790  29.8334427  64.7988968  44.4972343  30.1321983  65.3750076
  42.6683807  29.9031792  65.3231430  43.6738739  28.7962875  64.4677429
  43.3759613  32.1910057  64.0574875  42.5248985  32.1580086  64.7377090
  44.2038536  32.6667404  64.5831909  43.2424469  32.8624954  63.2093239
  45.1178398  29.0814877  62.4155006  44.5015869  28.5133495  61.5355492
  45.9944687  28.4173374  63.2104263  46.5059395  28.8080616  63.9887772
  46.2706032  26.9604073  63.0830612  45.4578171  26.4893093  62.5303040
  47.5392685  26.6720200  62.3310127  48.4393425  27.1204376  62.7515945
  47.7923012  25.6120720  62.3552246  47.4511986  27.0412769  60.8857574
  47.3124886  28.3801308  60.4403419  47.3741798  29.1783657  61.1651955
  46.9871635  28.7248039  59.1222000  46.9283142  29.7466125  58.7774658
  46.7213936  27.6664352  58.1629868  46.4790688  27.9950714  56.8373756
  46.3340034  27.2666683  56.2291107  46.8829346  26.3608818  58.5593681
  46.6810493  25.5927601  57.8274918  47.2032280  26.0321064  59.9206161
  47.2265930  24.9945335  60.2194405  46.1363602  26.3742657  64.5610275
  46.8642883  26.8152485  65.4778900  45.2818222  25.3059921  64.7520065
  44.9639130  24.8838329  63.8913040  45.0494003  24.6272869  66.0085144
  45.7627068  25.0050220  66.7410507  43.6797638  24.9341145  66.5214920
  42.9958038  24.4041901  65.8585587  43.5283546  24.5807571  67.5414505
  43.4373283  26.5165157  66.6614304  43.6742516  27.0253716  65.7270737
  41.9203110  26.6528339  66.7781601  41.6220932  26.0462627  67.6332855
  41.6288223  27.6733971  67.0263214  41.3916512  26.3011208  65.8922043
  44.0654602  27.1851215  67.9042282  43.5822258  26.7714348  68.7893524
  45.1337357  26.9720650  67.9430389  43.7991142  28.2371655  67.8024292
  45.2665558  23.1323528  65.8502426  45.3774681  22.6100273  64.7638550
  45.3015289  22.3195992  66.9324265  45.2287445  22.6703205  67.8767776
  45.2666740  20.8148289  66.9244003  45.4492989  20.5726833  67.9713516
  43.8285103  20.3187904  66.4656677  43.7158318  20.6346722  65.4285431
  43.8636398  19.2372913  66.5969391  42.6907539  21.0467281  67.2744827
  42.6877556  22.0978432  66.9859543  41.7305565  20.6757545  66.9160004
  42.5920525  20.7526550  68.7698288  41.8173103  21.3027782  69.6094894
  43.2526512  19.7534599  69.2115631  46.4679451  20.0997849  66.2026367
  47.6040726  20.5944214  66.1272049  46.3324089  18.9197369  65.5713730
  45.4133530  18.5077534  65.6469040  47.3425713  18.4193249  64.6562576
  48.1846123  18.2670631  65.3314514  46.9354248  17.0146961  64.1926956
  45.9171066  17.0576782  63.8063240  47.6105843  16.6755733  63.4070396
  47.1562614  15.8867435  65.2719803  48.2368622  15.8212748  65.3989258
  46.6291237  16.1298599  66.1945419  46.5973167  14.5684061  64.7401276
  45.5340843  14.7057552  64.5432281  47.0871735  14.3379660  63.7940598
  46.8351135  13.3762445  65.6848221  47.8803558  13.0692692  65.6483307
  46.5215492  13.6866102  66.6815414  46.2087326  12.1703062  65.2060852
  45.2309227  12.1187353  65.4537354  46.4143448  12.0040350  64.2313156
  46.5688782  11.4317446  65.7933884  47.7389336  19.3650017  63.5543785
  48.8951416  19.3555374  63.1314201  46.7435837  20.1215820  63.0323257
  45.8562126  20.0208397  63.5040512  46.7748070  20.9617577  61.7343826
  47.0737991  20.3634129  60.8737488  45.4627266  21.6814613  61.4016418
  44.6212311  21.0730686  61.0702133  45.1619682  22.2469063  62.2836380
  45.5579338  22.4342403  60.6191101  47.8370132  22.0628166  61.9514313
  48.0952530  22.8008404  61.0132179  48.5186005  22.2642517  63.1221771
  48.0834427  21.7572460  63.8796005  49.6329308  23.2276859  63.3903847
  49.2758026  24.2289677  63.1495552  50.0527267  23.3862629  64.9001846
  50.5963173  22.4901772  65.1995850  51.0893097  24.4339676  65.0792618
  50.7447128  25.4183254  64.7624207  51.3635826  24.3940277  66.1334305
  51.9845581  24.3955555  64.4586411  48.8869934  23.7159672  65.8384476
  49.2196198  23.7901955  66.8738022  48.5215607  24.7043781  65.5598755
  48.0745811  22.9944878  65.7515411  50.8178291  22.9430141  62.5288048
  51.4909973  23.8704681  62.0354233  51.1108246  21.6560688  62.2272682
  50.5235863  20.9765377  62.6893196  52.2770805  21.1174564  61.4629364
  53.1083450  21.6664810  61.9052849  52.3975487  19.5990047  61.7042046
  52.2483177  19.4812832  62.7775040  51.3514442  18.8112316  60.8112602
  50.3224487  19.0445137  61.0848579  51.3904953  18.9210491  59.7275085
  51.6390228  17.7664280  60.9286613  53.7525558  19.0682602  61.2323647
  53.8403893  19.1186047  60.1470718  54.6251297  19.5519199  61.6714439
  53.8114052  18.0104294  61.4885483  52.0900612  21.4598484  59.9404564
  53.0914040  21.3966923  59.1809158  50.8733826  21.7661362  59.5649948
  50.1207771  21.8473129  60.2336464  50.6490479  22.3481274  58.2409744
  50.9727669  21.6350498  57.4827995  49.0836296  22.5380096  57.9635162
  48.7848434  23.2049980  58.7721901  49.1020851  23.1701069  57.0757027
  48.1129494  21.3934727  57.8028488  47.8305550  21.0751820  58.8063660
  46.8307266  21.8892307  57.1427727  46.0574074  21.1300068  57.2596321
  46.5973740  22.8387966  57.6244049  47.1043587  22.1019783  56.1093483
  48.4986153  20.2199821  56.8697701  47.6163177  19.6124859  56.6682549
  48.9712334  20.6194038  55.9724426  49.3688889  19.7457581  57.3234596
  51.3591194  23.7173309  57.9976463  51.5440636  24.1269608  56.8377838
  51.8297462  24.4620209  59.0580750  51.7202873  24.1493530  60.0121994
  52.4240913  25.7807598  58.9078712  52.6322289  25.9019623  57.8448143
  51.3580894  26.8748703  59.2690811  50.9863243  26.6846886  60.2759171
  51.7947884  27.8709774  59.3409615  50.1053848  27.0115738  58.3837738
  49.5982475  26.0612049  58.5502472  49.4800911  27.8415833  58.7127075
  50.2346840  27.1931229  56.9138947  50.7956543  26.3569469  56.4964943
  49.2374992  27.1155090  56.4806442  50.9592209  28.4304790  56.6420822
  51.9446487  28.2863503  56.4739914  50.4751091  29.6493702  56.5972290
  49.2570992  29.9177704  56.7716446  48.8870621  30.8551178  56.7041359
  48.6623459  29.1244564  56.5792389  51.2681618  30.5727978  56.3668442
  50.9309158  31.5225906  56.3015862  52.2394981  30.4278736  56.1310425
  53.8309746  25.9542446  59.6168785  53.9247398  26.7397308  60.5419846
  54.8554115  25.2632046  59.1761665  54.8887100  24.4992104  57.9217491
  54.4562683  25.0985985  57.1206093  54.2643623  23.6298923  58.1280785
  56.3207436  24.0460415  57.7334023  56.9331474  24.6771584  57.0893898
  56.5190773  23.0553017  57.3245010  57.0321999  24.2894211  59.0906677
  58.0615158  24.5863628  58.8895683  56.9121017  23.3963737  59.7039719
  56.2099190  25.4864540  59.7403450  56.1696854  25.2391796  60.8011627
  56.8458710  26.8955059  59.5434265  57.5140076  27.4021683  60.4182510
  56.4725151  27.5691891  58.4011078  55.9259949  27.0390110  57.7375374
  56.7694778  28.9821358  58.1297379  57.8486633  29.0303898  57.9843826
  56.0536652  29.5310383  56.7716331  56.3494148  30.5552406  56.5443878
  56.4193420  28.9465618  55.9273758  54.5666046  29.3297939  56.7546997
  53.9674072  28.3838921  57.2503853  53.9310799  30.1523914  56.0295944
  56.3976440  29.9173164  59.3186035  57.1968803  30.7094955  59.8383980
  55.1936760  29.6641636  59.8476257  54.5643463  28.9747677  59.4619102
  54.5731125  30.5081272  60.9429893  55.1418953  31.4312725  61.0543480
  53.1184006  30.7234497  60.7832756  52.6073761  29.7792282  60.9714127
  52.8937035  31.4881935  61.5267677  52.5429764  31.2968750  59.4516296
  52.4358177  30.5307903  58.6836891  51.0898819  31.7960854  59.7526016
  51.1372795  32.7078056  60.3481026  50.5823288  31.9171162  58.7956047
  50.5506325  30.9873009  60.2457352  53.4193115  32.5426674  58.9330139
  54.3387146  32.1524277  58.4965210  52.9625969  33.2381287  58.2288513
  53.8720589  33.1344185  59.7285995  54.9365349  29.9053612  62.3535233
  54.0625610  29.5758076  63.2027473  56.2310715  29.7050285  62.5686684
  56.7659378  29.8337650  61.7216454  56.8974648  29.1550884  63.7872391
  56.2665443  29.5688286  64.5739136  56.7943306  27.6651344  63.9125175
  57.2460670  27.6367207  64.9040985  55.7795219  27.2678490  63.8918800
  57.5844345  26.9067192  63.0064354  57.4533806  27.2475891  62.1186104
  58.4265518  29.5414715  63.8449402  59.0497971  29.8657799  62.8638802
  58.9289665  29.5755196  65.0939789  58.2956963  29.3747044  65.8547363
  60.2686272  30.0297432  65.5390091  60.1850281  30.0036392  66.6254807
  61.2551651  28.9558334  65.1164169  61.4999390  29.0002708  64.0551834
  62.1828003  29.2728500  65.5929642  61.0963058  27.4448166  65.3978729
  60.4403954  27.1304722  64.5860367  62.4057007  26.7048302  65.4758530
  63.0225677  27.0041199  66.3231964  62.2523994  25.6257191  65.4649048
  62.7618065  26.9450340  64.4740601  60.2692490  27.2777138  66.7190018
  60.1825218  26.2124043  66.9327774  60.7485275  27.7721233  67.5639572
  59.2233124  27.5049992  66.5129318  60.6674347  31.5517464  65.1431885
  61.8631363  31.8632755  65.0204315  59.7155647  32.4052582  64.8265305
  58.7483292  32.1839561  65.0151596  60.1780167  33.8433304  64.6758575
  61.0292969  33.9709625  64.0071793  59.0198441  34.6906395  64.1304550
  58.3749084  34.1534805  63.4350281  57.9773941  35.1991463  65.1365204
  57.6606369  34.4500656  65.8622208  58.4249001  36.1220245  65.5054779
  57.0497322  35.4767876  64.6360626  59.6503525  35.7826538  63.6084976
  60.0416336  35.5445595  62.7648087  60.6514626  34.4361458  65.9801102
  60.0619774  34.0721397  67.0295944  61.7167358  35.2306480  65.9550247
  62.0171127  35.6237373  65.0744858  62.2665939  35.9953079  67.0979309
  62.1381264  35.4524765  68.0343781  63.8090363  36.1654396  66.8478699
  63.9123878  36.7422905  65.9288177  64.2878113  36.6947136  67.6717300
  64.6059799  34.8694344  66.6496201  64.6007996  34.3306160  67.5971146
  64.0671844  34.2708588  65.9151001  66.0187607  35.0881233  66.1136551
  66.0853195  35.3248787  65.0517578  66.3956833  36.0300522  66.5121536
  67.0406952  34.0032959  66.5475769  67.1835327  34.0398521  67.6275558
  66.5940018  33.0308113  66.3405991  68.3105774  34.1203766  65.7524109
  69.0349121  33.5265923  66.1303787  68.1671982  33.8075294  64.8028412
  68.6684189  35.0646553  65.7328033  61.6407394  37.4410324  67.2272873
  62.1239929  38.2492371  68.0262451  60.7383995  37.8270836  66.2999268
  60.3150139  37.1852570  65.6450119  60.2303886  39.2113190  66.2426605
  61.0180359  39.9621353  66.3057480  59.5076981  39.2815971  64.8492432
  60.1178055  38.9324532  64.0161972  58.5904312  38.7238693  65.0381088
  59.0437202  40.6514282  64.4622421  58.9051666  41.4992676  65.3795471
  58.7220230  40.8582153  63.2157860  58.8055000  40.1708031  62.4805374
  58.3930092  41.7857742  62.9888802  59.1927948  39.4476776  67.4053345
  58.2265739  38.7665520  67.5087509  59.3525124  40.5231400  68.2200851
  60.1110535  41.1662788  68.0437546  58.4042625  40.8196259  69.3469391
  58.3250771  39.9513016  70.0010376  58.9758568  41.8586617  70.2962952
  58.1481476  42.2267342  70.9025345  60.0389366  41.3384590  71.2260666
  59.6323853  40.4225960  71.6550293  61.0179100  41.1338768  70.7926331
  60.2387123  42.1094398  71.9702301  59.4499397  42.9955101  69.6164627
  58.7456169  43.6357689  69.4915543  57.0340233  41.2336578  68.6834183
  55.9455719  41.0647316  69.3217773  56.9871483  41.8687325  67.5064850
  57.7078857  41.7410088  66.8105469  55.7238922  42.4263077  66.8959351
  55.0967941  42.7908325  67.7095490  56.0790558  43.7990150  66.2384491
  56.4252510  43.6419640  65.2168884  55.2524071  44.5071144  66.2963181
  57.1503792  44.6068687  66.9663925  58.1375694  44.1449585  66.9521255
  57.2444229  45.5854187  66.4955444  56.7042427  44.8167648  68.4515839
  57.5466003  44.6903839  69.3833466  55.5130844  45.1196289  68.8439713
  54.7448845  41.5205078  66.1434937  53.6471405  41.9297256  65.7491684
  55.0472488  40.2361145  66.1758041  55.8908958  39.9868202  66.6720047
  54.1270943  39.1231461  65.7166672  53.2478752  39.5757828  65.2581940
  54.7187347  38.3351479  64.5629959  55.5424728  37.7642479  64.9915161
  53.9566536  37.6479568  64.1954346  55.3977890  39.0828781  63.3693657
  56.1928825  39.7488213  63.7046967  56.0969543  38.0229836  62.5804596
  56.7422104  38.4916534  61.8374329  56.7522926  37.3859863  63.1744881
  55.3649635  37.4651985  61.9963684  54.4667587  39.9328346  62.4908485
  54.7968369  40.0306702  61.4566460  53.4310646  39.5930710  62.4897537
  54.5246773  40.9232788  62.9422455  53.5375137  38.2415352  66.7746582
  54.2498665  37.8803139  67.7205200  52.3555679  37.9520187  66.6426849
  26.7575951  50.7162743  49.7249413  27.3319798  51.5400238  49.6171570
  25.8346939  51.0245132  49.4541283  26.7539005  50.3335457  50.6596107
  27.1573582  49.7606201  48.6496277  26.4717293  48.9136009  48.6735992
  27.0839844  50.4014435  47.2765884  26.0620956  50.6770973  47.0160942
  27.6986752  51.3014908  47.2897568  27.4775372  49.4055405  46.1696358
  28.5291996  49.5274849  45.9103394  27.5450573  48.4151230  46.6197701
  26.5680428  49.3023071  44.5867958  27.1693039  50.8454895  43.7734222
  28.2229271  50.9619980  44.0272255  26.9453812  50.7829094  42.7085075
  26.6335182  51.7013969  44.1838570  28.4631634  49.0816078  49.0273628
  29.4965935  49.7229004  49.0668030  28.3916073  47.7388229  49.2394829
  27.5088444  47.2617340  49.1245232  29.5606747  46.8212090  49.4307404
  30.4541302  47.4099922  49.2229652  29.4421272  46.3556213  50.9172935
  29.3396168  47.1271629  51.6803894  28.4683266  45.8693504  50.9752274
  30.4890556  45.3051071  51.2216263  30.1416950  44.3390999  50.8551903
  31.4269543  45.5355186  50.7162971  30.8660870  45.1365929  52.9637566
  32.2888451  44.1382103  52.5755997  32.1510925  43.2764969  51.9224739
  32.9928322  44.7831268  52.0496864  32.8089104  43.8733978  53.4961967
  29.6452332  45.6133804  48.4758492  28.6272469  45.2994728  47.8877563
  30.8011131  45.0432167  48.2338219  31.5842896  45.6140480  48.5182228
  30.9874115  43.7068787  47.5578995  30.3680553  43.4870682  46.6883049
  32.4358940  43.4788475  47.1770020  33.0932159  43.7588348  48.0001869
  32.8028908  42.0037918  46.8955879  32.6851692  41.3825722  47.7834740
  32.1775436  41.6847801  46.0617599  33.8620949  41.9200439  46.6523323
  32.8845444  44.2905884  45.9684486  32.4743881  43.8501549  45.0596619
  32.3613358  45.2441330  46.0399055  34.2915726  44.7360878  45.7213097
  34.9400558  43.8696594  45.8512497  34.2823105  45.0778008  44.6862984
  34.4754066  45.5559082  46.4157143  30.5173569  42.6830978  48.6267128
  31.1195297  42.4833641  49.6717911  29.4961796  41.9361153  48.3386765
  29.0143909  42.1997719  47.4910545  28.8136272  40.9776001  49.1451492
  29.5542984  40.7075348  49.8978577  27.5298119  41.4365807  49.7897835
  26.8685837  41.7666855  48.9885941  26.9920273  40.6667519  50.3431892
  27.8250294  42.5672760  50.7712517  28.6566830  42.2677002  51.4089851
  28.1006813  43.5326729  50.3468361  26.6218510  42.7053795  51.7679596
  25.7976894  42.9564018  51.1002426  26.3604774  41.7841492  52.2886581
  26.9116936  43.8446846  52.6309013  26.7588406  44.7660675  52.2464638
  27.6437206  43.7245865  53.6834602  28.0304470  42.5708389  54.2020187
  28.5892181  42.6290550  55.0413589  27.9003983  41.6751709  53.7537270
  27.9637051  44.7075539  54.4063263  27.8440247  45.6506081  54.0651093
  28.4876366  44.4378967  55.2266197  28.5173092  39.6409988  48.4625931
  28.4869690  39.7012024  47.2639694  28.3672085  38.4801979  49.1435089
  28.3302708  38.4333687  50.1517487  28.2315178  37.2325287  48.4633560
  28.6509781  37.2620926  47.4577293  28.7944412  36.4696846  49.0012054
  26.7585030  36.7765617  48.4398346  26.0253696  36.8884468  49.4009857
  26.3901367  36.1370850  47.3544502  27.0928249  36.1324348  46.6289787
  25.0009975  35.7157555  47.0429230  24.3311043  35.8261871  47.8956490
  24.3209381  36.5514603  45.9851227  24.8979893  36.5509300  45.0603981
  22.9394646  36.0049362  45.7191734  22.3538017  36.3655014  46.5648041
  22.5910301  36.3508835  44.7460289  22.8797073  34.9190598  45.6456947
  24.1963520  38.0320854  46.3493538  23.6947727  38.1100464  47.3139458
  25.1999454  38.4460526  46.4469872  23.5342712  38.8900261  45.2079582
  22.4469776  38.8434792  45.2690048  23.8450832  39.9314117  45.2916718
  23.8290462  38.6553078  44.1851578  25.1882000  34.2154999  46.7090645
  26.1142464  33.9024277  46.0280380  24.1304207  33.3663940  47.0744972
  23.3743153  33.6925545  47.6593246  24.1549587  31.9066525  46.8575363
  24.8603039  31.7365646  46.0441093  24.6010876  31.3358459  48.1848297
  24.0306740  31.8342209  48.9686356  24.4076233  30.2642593  48.2335968
  26.1253147  31.4902649  48.4621086  26.6851845  31.2922935  47.5480766
  26.3712692  32.5303841  48.6760368  26.6853924  30.6619015  49.6281204
  27.7309074  30.9479275  49.7429085  26.1786842  31.0081806  50.5289192
  26.4497738  29.2419853  49.3294067  27.1561699  28.8638859  48.7144737
  25.5275688  28.4243469  49.8143387  24.7330322  28.8451118  50.7918510
  24.6416359  29.8415413  50.9292564  23.9503651  28.2610188  51.0494652
  25.4002209  27.1957169  49.4783211  26.0977936  26.8089504  48.8587151
  24.8855419  26.4906197  49.9863014  22.7692947  31.3479824  46.5096436
  21.7586784  31.9240398  46.8753929  22.7779045  30.1207142  46.0651245
  23.6700268  29.6961842  45.8553848  21.5861111  29.2215576  46.0602531
  21.1824074  29.1816711  47.0719528  20.8226070  29.5706882  45.3650780
  21.8800774  27.8137093  45.5421486  23.0004272  27.5430031  45.2007332
  20.8607407  26.8839226  45.5503845  19.9074383  27.1650658  45.7300377
  21.1072407  25.5907898  45.1035843  21.8458385  25.6310062  44.3029900
  21.7013836  24.7222958  46.2620201  21.9726028  23.7398663  45.8755379
  22.6440601  25.0934582  46.6641388  20.9728832  24.5922852  47.0623207
  19.9102726  24.8291416  44.5042000  18.7658939  25.2893105  44.6200027
  20.2224865  23.7782364  43.7352562  21.2103233  23.5724945  43.6911201
  19.2899303  23.1238441  42.8194580  18.3014965  23.2522049  43.2606201
  19.1215458  23.7834663  41.4155388  18.8758030  24.8452873  41.3998108
  20.4455032  23.6184654  40.6434250  20.2853985  23.9601059  39.6208038
  21.2357807  24.2020931  41.1155930  20.7602463  22.5864639  40.4884834
  18.0941696  23.1573200  40.6881981  17.2296886  23.5692348  40.7560158
  19.6045704  21.6397953  42.8377151  20.8386955  21.3348866  43.0159950
  18.6556015  20.7563763  42.4759445  17.7242680  20.9985294  42.1692238
  18.8935318  19.2872238  42.4073143  19.9581013  19.0850792  42.5253754
  18.2896805  18.5060368  43.5245743  18.3009834  17.4511108  43.2505188
  18.8275051  18.6873207  44.9294243  18.8383179  19.7616806  45.1130791
  18.2648220  18.1701164  45.7065887  19.8596554  18.3381844  44.9589500
  16.9721031  18.9059219  43.5306511  16.5842266  18.4757576  42.7650757
  18.4214573  18.7828159  41.0368690  17.5165730  19.2920570  40.4116898
  19.0781555  17.6871204  40.6361198  19.8303928  17.2734413  41.1682014
  18.7632847  16.9146595  39.3971710  17.9062767  17.3695087  38.9004326
  19.9602528  17.0468235  38.3400764  19.5408688  16.8797779  37.3479500
  20.4367943  18.4243374  38.1832466  21.2234745  18.5090733  37.4335403
  19.6533775  19.0763206  37.7968826  20.7610798  18.8924255  39.1126671
  21.1529369  16.0948677  38.6493721  21.6519165  16.5935917  39.4802780
  20.8725986  15.1110983  39.0258179  21.8183022  15.9385281  37.8002892
  18.3685913  15.4176807  39.6340485  18.8632069  14.7396088  40.5140266
  17.3867016  14.9275188  38.9366989  16.9468994  15.4554386  38.1964455
  16.9451466  13.5136185  39.0559120  17.0290451  13.1240349  40.0704536
  15.4786062  13.3423891  38.5754929  15.4088831  13.8106270  37.5936584
  15.2721128  12.2730713  38.6204338  14.5255556  14.1226444  39.5896683
  14.4958363  15.1898842  39.3700905  13.4695635  13.9067068  39.4273415
  14.8296118  13.8638268  41.0272255  15.0058727  14.7709303  41.8789177
  14.8633575  12.6562300  41.3861580  17.8353519  12.5309439  38.2727051
  18.0269051  11.3953714  38.7656364  18.4704990  13.0001173  37.1770630
  18.2900314  13.9376822  36.8476677  19.5261021  12.2779379  36.4446411
  19.7835293  11.3991251  37.0358467  18.9984455  11.8476877  35.0458260
  18.7110081  12.7759848  34.5521202  19.6680088  11.3060322  34.3777008
  17.8686314  10.8785372  34.9350510  18.1421471   9.9290333  35.3951950
  17.0201664  11.3663282  35.4149132  17.3547478  10.7384586  33.4529152
  17.1803532  11.7359285  33.0495033  18.0827293  10.1035452  32.9479141
  16.1214027   9.9416170  33.3520508  16.2633915   8.9651241  33.1366425
  14.8791990  10.4322166  33.3526382  14.5026836  11.6071367  33.6142426
  15.1965618  12.3196402  33.7902298  13.5390587  11.8721895  33.7600975
  13.9623098   9.5102158  33.1717987  14.2294083   8.5666466  32.9300613
  12.9812088   9.7500849  33.1752510  20.8196716  13.0832510  36.2468796
  20.8198586  14.2800884  35.9760284  21.9723892  12.3362322  36.2338524
  21.7877197  11.3782682  36.4952011  23.2392120  12.7152805  35.7172432
  23.5323944  13.6965342  36.0904541  24.2315044  11.7534170  36.2241440
  24.0927200  11.5697031  37.2895470  24.0554085  10.7896013  35.7464828
  25.6912785  12.0720854  36.0227318  26.0391026  13.2793283  35.9508743
  26.4962273  11.1123466  35.7713623  23.2779922  12.8693867  34.1273384
  23.6981964  11.9609451  33.3642120  22.8596535  14.0133352  33.6215630
  22.6601448  14.7435093  34.2902489  22.8515244  14.3531055  32.1515770
  23.6939144  13.8224621  31.7078476  21.6077919  13.8966322  31.4534073
  21.5224762  12.8101044  31.4700603  20.2674332  14.5266876  31.9258842
  20.2003860  15.5937347  31.7137165  19.4664173  13.8989410  31.5354881
  20.2717857  14.5108442  33.0157585  21.6760902  14.3595114  30.1089344
  21.8624992  13.6575241  29.4811878  23.0182037  15.8347101  31.9734344
  22.3583679  16.6400185  32.6457291  23.8156796  16.1945839  30.9420757
  24.1973495  15.4298944  30.4038582  23.9627533  17.5524597  30.4141235
  24.5115967  18.1115532  31.1719398  24.7852669  17.4216747  29.1264267
  25.5431614  16.6799984  29.3786488  24.1300106  17.0390244  28.3439198
  25.2319393  18.8183804  28.6347160  24.3466663  19.4059410  28.3914776
  25.9167576  19.2767372  29.3481827  26.0457497  18.6761684  27.3662949
  27.1182976  17.9388771  27.3627529  25.6228561  19.2982941  26.3554745
  22.6417370  18.3835506  30.2724075  22.6698933  19.5552387  30.4863205
  21.5299244  17.6712036  29.8723221  21.7052841  16.7062511  29.6310463
  20.1425304  18.1951981  29.6264648  20.2760544  19.0246029  28.9319401
  19.2930508  17.1358013  28.9287281  19.0399837  16.4003029  29.6923370
  18.3804073  17.5683804  28.5187836  19.9850006  16.3585434  27.8354454
  20.5798073  15.6397991  28.3991051  19.3022156  15.7428370  27.2499466
  20.7673569  17.2095966  26.8322201  21.9688644  17.0249424  26.7588177
  20.1712112  17.9225521  26.0307140  19.3988495  18.5862675  30.9202442
  18.3288174  19.2210445  30.8114471  19.9062290  18.2559338  32.0623207
  20.7726822  17.7422962  31.9879227  19.3391743  18.7389278  33.3510513
  18.3979053  19.2505188  33.1500854  18.8448601  17.5006123  34.0967941
  18.2734051  16.8889103  33.3986816  19.6876640  16.9334393  34.4918823
  17.8804493  17.9428520  35.2038345  18.4587688  18.5683079  35.8838730
  17.0023727  18.4566746  34.8125954  17.3317184  16.7014084  36.0095367
  17.7772751  15.5303373  35.9516144  16.3217621  16.9320221  36.7430611
  20.2448883  19.6418018  34.1136742  19.8178692  20.7317295  34.5064049
  21.4909878  19.1929131  34.1716652  21.6857147  18.2908459  33.7612305
  22.5430374  19.8353043  35.0006561  22.0510750  19.9944420  35.9602089
  23.8385391  18.9903851  35.1526260  24.1866093  18.6910477  34.1640167
  25.0070515  19.7437744  35.8011665  24.6312351  20.1247826  36.7507401
  25.9096317  19.1433163  35.9147339  25.3125381  20.5679893  35.1566124
  23.5170116  17.6958771  36.0292854  23.3693295  18.0036488  37.0644493
  22.6214752  17.1826820  35.6789360  24.6864281  16.7307854  36.1982079
  24.2182255  15.8650408  36.6665802  25.1427364  16.4050827  35.2634354
  25.4988003  17.0180340  36.8657722  22.8811874  21.2844448  34.5026207
  22.9812775  22.1725140  35.3326454  22.8031273  21.5253525  33.2344170
  22.7404690  20.7394180  32.6031647  23.0297070  22.9162674  32.6943474
  23.8446503  23.3558254  33.2694588  23.6752872  22.8296909  31.3224010
  22.8889389  22.3429279  30.7454967  23.6998539  23.8441734  30.9245052
  24.9180241  22.0781250  31.0641441  24.7389545  21.0152225  31.2262325
  25.2383575  22.3178425  29.6524620  25.5356827  23.3664055  29.6376915
  26.0336189  21.7102680  29.2205887  24.3748322  22.3610001  28.9887142
  26.0990391  22.4883747  31.9421005  26.3520851  23.5472584  31.8889198
  25.9447918  22.2465191  32.9936790  26.9200439  21.8616486  31.5938702
  21.6990032  23.7164078  32.7346992  21.7634640  24.9216175  33.0680389
  20.5437183  23.1075668  32.5081520  20.5531864  22.1003647  32.4336128
  19.1903419  23.7674866  32.4933701  19.2055416  24.7209015  31.9652920
  18.1091309  22.9667091  31.7817135  17.8566666  21.9860821  32.1851120
  17.2836189  23.6728344  31.8712711  18.4661312  22.8940697  30.2716560
  18.8679314  23.8254681  29.8727112  19.2516651  22.1633053  30.0792332
  17.2997532  22.6259956  29.3302937  16.1340237  23.0076218  29.6057358
  17.5384388  21.9469376  28.1980076  18.4480743  21.5546322  28.0011272
  16.8516922  21.8720360  27.4612122  18.7963657  24.1896038  33.8932304
  18.3669777  25.3498173  34.1370316  18.9444046  23.3039742  34.9070625
  19.1381111  22.3372192  34.6880569  18.7246399  23.6673355  36.2839622
  17.7054729  24.0449352  36.3665314  18.8728352  22.3751373  37.1389313
  19.8170033  21.9198341  36.8400230  18.8418140  22.6069450  38.2035484
  17.7855759  21.2910690  36.7668304  17.6773911  21.2110558  35.6851654
  18.1289787  20.3566914  37.2108002  16.4409180  21.6675072  37.1834793
  16.5622215  22.0358257  38.2021675  16.0473709  22.3950539  36.4736214
  15.5167799  20.4310875  37.1108894  14.5327511  20.7609787  37.4439964
  15.4424162  20.1129971  36.0709915  15.9326525  19.3500557  37.9809761
  16.1450100  18.5744209  37.3699150  16.6386375  19.6411152  38.6420135
  15.2156572  18.9684734  38.5813217  19.6833401  24.7821312  36.7337799
  19.3151855  25.7417030  37.4279633  20.9382057  24.7584343  36.2023239
  21.1664886  24.1612263  35.4204483  21.9403877  25.7970238  36.6644058
  21.8468571  25.7809410  37.7502670  23.3880997  25.4142284  36.3298378
  23.6214733  25.3314018  35.2683372  24.4513073  26.3910770  36.9462280
  25.4837761  26.0788193  36.7893562  24.3753929  27.3419743  36.4188461
  24.3666801  26.4360809  38.0320053  23.6471157  24.2140388  36.8981171
  23.3154678  23.4616718  36.4025803  21.5852242  27.1640701  36.0270653
  21.6757965  28.1486073  36.7267342  21.2445335  27.2435970  34.7378273
  21.2433491  26.3778305  34.2176857  20.6687164  28.4480019  34.1825485
  21.4561634  29.2015381  34.1679497  20.4385853  28.2212715  32.6785202
  19.9147720  27.2871265  32.4758034  19.9376240  29.1080475  32.2902336
  21.7292976  28.1887684  31.8948135  22.1159554  29.2024956  31.7901573
  22.5251102  27.6746483  32.4337654  21.4224873  27.6048889  30.5057831
  20.8837376  26.6634674  30.6133652  20.7796059  28.3081360  29.9764004
  22.6941967  27.3269405  29.6878223  23.1965599  28.2782764  29.5126324
  23.4088459  26.6705208  30.1842976  22.3919468  26.7833881  28.2928009
  21.8218536  27.4141083  27.7475548  23.2868710  26.5889702  27.8668747
  21.9132195  25.8957596  28.3479080  19.3366165  28.9439259  34.8617134
  19.0402489  30.1239147  34.9227905  18.5240536  28.0186062  35.3367157
  18.7645416  27.0821152  35.0447426  17.2586422  28.3545265  35.9312744
  16.7042332  29.1027679  35.3648224  16.4282684  27.1007557  36.1921425
  16.9655190  26.3104553  36.7164421  15.6448746  27.4294720  36.8750420
  15.5932388  26.6681633  35.0368614  14.7173662  27.3104210  34.9449196
  16.2011852  26.7056541  34.1329308  15.0585613  25.2004738  35.2850800
  14.6864042  24.7527981  36.3519821  15.0397243  24.4785786  34.1650238
  15.4877224  24.8317757  33.3315659  14.6721373  23.5415783  34.2487373
  17.5397930  28.9779129  37.3055954  17.1853428  30.1867352  37.4348793
  18.2441292  28.2841053  38.1785583  18.4252529  27.2999516  38.0416794
  18.6784649  28.8897305  39.4638748  17.7705708  29.0545502  40.0441017
  19.5896263  27.8641415  40.1353989  18.9999657  27.0212498  40.4958649
  20.2163658  27.5131168  39.3155937  20.4044533  28.3487244  41.4362297
  20.9821033  29.2675438  41.3352699  19.4815712  28.5882111  42.6190720
  20.0862617  28.8082619  43.4988632  18.8743210  29.4510231  42.3453903
  18.8061790  27.7571507  42.8222542  21.3396530  27.2806129  41.8070183
  21.7506809  26.9340611  40.8588333  22.1926880  27.7238560  42.3207970
  20.9441147  26.4560452  42.4000931  19.3812199  30.3103104  39.4425926
  19.0845757  31.2142258  40.1851463  20.3673706  30.4614735  38.4672966
  20.4636269  29.6897621  37.8228569  21.0549812  31.7321873  38.1461754
  21.5959320  32.0991173  39.0184326  22.1198750  31.4656830  37.0312881
  22.6921158  30.5968628  37.3565445  21.6142921  31.0746078  36.1483688
  23.0071392  32.6130714  36.5223389  22.3261108  33.3501701  36.0969162
  23.6500359  33.2221260  37.7434769  24.2824268  34.0669403  37.4705734
  22.8327198  33.6448555  38.3277702  24.2921047  32.4377937  38.1443100
  24.0761242  32.2475166  35.3928185  23.6283016  31.6273727  34.6162987
  24.4457302  33.1654205  34.9357071  24.8862286  31.7022934  35.8771324
  20.0283031  32.7590294  37.7341423  19.8583221  33.6962585  38.4673004
  19.2153091  32.5356293  36.6855736  19.4085197  31.6527786  36.2346382
  18.1388416  33.4183731  36.2153740  18.5310268  34.3309364  35.7664680
  17.3426056  32.6400795  35.1128349  18.0770206  32.3846817  34.3489571
  16.8934441  31.7131500  35.4694214  16.2811184  33.5216408  34.4255371
  15.4446449  33.6001129  35.1199837  16.6777916  34.5156403  34.2188454
  15.6883307  33.0045586  33.1548615  15.6567240  31.7225342  33.0102272
  15.1611938  33.7484894  32.3177910  17.2053280  33.8245621  37.3758430
  16.8496170  34.9971695  37.4149971  16.9643116  33.0198135  38.4567566
  17.3995132  32.1119537  38.5373077  16.1531143  33.3534164  39.6189728
  15.3745785  34.0675774  39.3507271  15.5669575  32.1147919  40.3221054
  15.0471716  31.4518185  39.6304512  16.4108620  31.5658932  40.7400017
  14.6710157  32.3142014  41.5793800  14.3113871  31.3599987  41.9644394
  15.2697754  32.7282791  42.3906326  13.3781328  33.0982933  41.2950516
  13.4631405  34.0468559  40.7648582  12.7573490  32.5645142  40.5754623
  12.5717049  33.2924232  42.5851555  12.3910913  32.3344841  43.0728378
  13.1816015  33.8280487  43.3126373  11.1658154  33.8883324  42.3204575
  10.6861200  34.0361252  43.1968994  11.2678041  34.7200966  41.7566605
  10.6459236  33.1755753  41.8287315  16.8925934  34.1563454  40.7051620
  16.2610016  34.9915581  41.3540459  18.2010803  33.9928551  40.8434792
  18.5991917  33.2745209  40.2556000  19.0136547  34.8320923  41.6277733
  18.6283264  34.9522285  42.6402893  20.4449997  34.1998863  41.7735062
  20.8000336  33.8968010  40.7885208  21.4556675  35.2501831  42.4453430
  21.7029915  36.0710258  41.7721825  21.0474014  35.6797142  43.3601799
  22.4312782  34.7800026  42.5686798  20.4378700  32.9173927  42.5453339
  20.4648933  33.0765190  43.6233177  19.5975266  32.2920799  42.2438278
  21.6888466  32.0869064  42.3355560  22.5073376  32.7132416  42.6903610
  21.7283401  31.1041107  42.8052940  21.6856384  31.9533119  41.2537766
  19.0407505  36.2185440  40.9468689  19.0637665  37.1874924  41.7121353
  19.0788651  36.3383446  39.6200066  19.2461357  35.5376091  39.0275993
  19.0794277  37.6597672  39.0444412  19.8764114  38.2393227  39.5103073
  19.4555779  37.4949760  37.5347595  18.7903900  36.7925568  37.0325317
  19.2757664  38.8372192  36.7410431  19.6538410  38.6787567  35.7310677
  18.2424183  39.1818123  36.7017136  19.7613220  39.6676445  37.2536240
  20.8316116  36.8959007  37.3558617  21.5679607  37.6569061  37.6142426
  20.8915367  35.9852257  37.9518394  21.0164146  36.4304733  35.8691673
  21.7689915  35.6491280  35.7632523  20.1221142  35.9200516  35.5116806
  21.3863621  37.2459526  35.2476883  17.6693153  38.3701668  39.2541618
  17.5304813  39.5612564  39.4740028  16.5849285  37.5389786  39.2306404
  16.7628555  36.5756226  38.9849091  15.2186089  38.0025444  39.3993988
  15.0430622  38.8786163  38.7750702  14.3173285  36.8607407  39.0356903
  14.4052238  36.7729301  37.9527931  14.6013050  35.9819908  39.6147079
  12.8347559  36.9883842  39.3368111  12.2962360  36.0885925  39.0393677
  12.6752052  36.9946632  40.4150505  12.1335087  38.0994148  38.5100212
  11.0034342  38.4527969  38.8101845  12.6487875  38.6716690  37.5071526
  14.9741993  38.5441093  40.7938309  14.3299341  39.5835724  40.9684372
  15.5853539  37.9043694  41.7880707  16.0730629  37.0348740  41.6261559
  15.6104193  38.2340393  43.2712784  14.5869102  38.3983383  43.6082268
  16.0420933  36.9277306  43.9682388  16.8853283  36.5230751  43.4085007
  16.2738113  37.2873383  44.9707794  14.9936275  35.9083595  44.1784477
  14.2443810  35.9268227  43.3869972  15.3576365  34.8822289  44.1269493
  14.3505898  36.0933418  45.4715271  13.2800827  36.7303734  45.5054092
  14.6130066  35.3475037  46.4553185  16.4698181  39.4031487  43.7275124
  16.0100060  40.3305893  44.3882141  17.7616920  39.4047241  43.3430367
  18.0932217  38.6824493  42.7197342  18.6623230  40.5206985  43.6473274
  18.3703003  41.0609894  44.5478325  20.0061436  39.9016685  44.0576897
  20.5289135  39.4366379  43.2218857  20.6143742  40.7376022  44.4031830
  19.8106422  38.9846153  45.2810211  19.5996475  39.4107018  46.4657516
  19.7487926  37.6809769  45.0970535  19.5272636  37.0901031  45.8856583
  19.8147755  37.3170509  44.1572113  18.9215164  41.5433617  42.4937897
  19.6986027  42.4422569  42.6067276  18.1993656  41.5068970  41.3646736
  17.5417118  40.7403603  41.3685760  18.3104649  42.5029335  40.3281708
  17.7089157  42.0814056  39.5228424  17.5539742  43.7820168  40.7477798
  18.2495804  44.4007416  41.3147163  17.2160263  44.3197899  39.8619461
  16.2670593  43.5338020  41.5482292  14.9989195  43.3272438  40.9932594
  14.7561989  43.3983650  40.0154419  14.1418715  43.0666122  41.9831123
  13.1622171  42.6632881  41.7733307  14.8130121  43.1112289  43.1612015
  14.4983950  42.7235336  44.0391579  16.1482544  43.3277397  42.9096870
  16.9633026  43.4207382  43.6121445  19.7371387  42.8144188  39.6669769
  19.8908043  43.8939400  39.1914673  20.6455326  41.8082199  39.7357216
  20.3496246  40.9124146  40.0963783  22.1075001  42.0310478  39.4121780
  22.3541908  42.9778633  39.8925858  22.9992352  40.8998222  40.0280685
  22.5042133  39.9824295  39.7095642  24.4517689  40.8769722  39.5828285
  25.0472965  40.0879364  40.0420456  24.4324436  40.6549187  38.5158615
  24.8494530  41.8618431  39.8277245  22.9757919  40.9709167  41.4413605
  23.6021481  41.6557159  41.6869812  22.3945599  42.2343483  37.9459114
  21.9711208  41.3281174  37.1828995  23.0201874  43.3420029  37.5857697
  23.2641163  43.9858856  38.3246956  23.7639961  43.5092201  36.2812424
  23.1270981  43.1388054  35.4779625  24.0213737  45.0252037  35.8773460
  24.2346535  45.0909882  34.8104439  23.0096531  45.4206390  35.9676323
  25.0959473  45.8368111  36.5059319  25.0709209  45.6742477  37.5834503
  26.0333405  45.4522057  36.1040916  24.7495880  47.3002625  36.2029114
  24.7026901  47.3837776  35.1171303  23.7792377  47.6084785  36.5921707
  25.6785164  48.3758278  36.7710381  26.7181435  48.1655197  36.5199394
  25.2861176  49.2716751  36.2898102  25.6303558  48.4204254  38.2864990
  26.1053677  47.6290512  38.6966095  26.0426598  49.2855797  38.6052818
  24.7192688  48.4473724  38.7215767  25.0895939  42.7018890  36.2557411
  25.7746868  42.6466560  37.2366600  25.4604034  42.0806808  35.1225739
  24.5655308  41.9337997  33.9809265  24.1357193  42.9027367  33.7269058
  23.7614994  41.2306175  34.1981163  25.4853306  41.3271332  32.9587898
  26.0179043  42.0783234  32.3755341  25.0273876  40.9052353  32.0641441
  26.5245399  40.5178986  33.7313461  27.5292397  40.5209808  33.3086548
  26.2259655  39.4806747  33.8834343  26.6320915  41.2519264  35.1036453
  26.4524021  40.6063843  35.9633484  27.9997292  41.9154930  35.3787460
  28.8140354  41.3309402  36.0641289  28.2229042  43.1566162  34.9680710
  27.5974922  43.5786247  34.2966042  29.5010986  43.8370628  35.3064384
  30.3121281  43.2271996  34.9084358  29.5020142  45.2473068  34.6856041
  28.5310879  45.7257843  34.8139191  30.2931156  45.8868942  35.0769958
  29.7958660  45.1335487  33.1975861  30.7399826  44.6058807  33.0622787
  29.0142784  44.6351280  32.6241760  30.0564022  46.4734650  32.4824486
  30.8791771  46.4548492  31.5215874  29.4014969  47.5412369  32.7981110
  29.8121891  44.0165100  36.7998085  30.8883286  44.3579330  37.0830154
  28.8298283  43.7528572  37.7118950  27.9835205  43.4128647  37.2779922
  28.9628010  43.8772049  39.1820717  29.6832962  44.6803780  39.3366776
  27.6218033  44.3470078  39.8218536  26.8332233  43.6862755  39.4617538
  27.6735287  44.3279610  40.9104576  27.1712742  45.7590599  39.4602509
  28.0330753  46.5386124  39.0279160  26.0331726  46.1413155  39.7914696
  29.4500542  42.6315231  39.8727684  29.7360897  42.7086601  41.0878754
  29.5492592  41.5341225  39.1591988  29.2999401  41.5521126  38.1806221
  30.1804619  40.3267136  39.7088928  29.8885612  40.2793312  40.7580147
  29.6572781  39.0404778  39.0456047  30.1011333  38.8832703  38.0625534
  29.9366512  37.7510681  39.8912926  29.4505272  37.8179779  40.8645897
  29.7056732  36.8951035  39.2571983  31.0105267  37.8234940  40.0634689
  28.0811844  39.0453873  38.8644638  27.5258904  38.8907166  39.7895737
  27.8431416  40.0101089  38.4164162  27.9164848  38.1980743  38.1988525
  31.7035084  40.4345551  39.6265144  32.3926048  40.7133446  38.6142998
  32.3056297  40.0790291  40.7676926  31.7200718  39.7794647  41.5341682
  33.7400246  39.9508820  40.9210777  34.2711868  40.8239899  40.5420609
  34.0391922  39.8607941  42.3986702  33.3939171  39.1326942  42.8901901
  35.4867935  39.5119781  42.5899467  35.6464806  38.4571648  42.3664017
  36.1260986  40.1819038  42.0149803  35.7807732  39.5736275  43.6377411
  33.8218498  41.2905350  43.0483055  32.7662392  41.5588913  43.0903969
  34.2907486  41.2281990  44.0303192  34.5182076  41.9404068  42.5183449
  34.2000122  38.6624069  40.2572289  35.1115608  38.6872101  39.4165154
  33.4601250  37.5708084  40.4925613  32.6013298  37.6199455  41.0218582
  33.7525444  36.2045097  40.1514854  33.7217369  36.0843964  39.0685616
  35.1077690  35.7739372  40.7749481  35.2896996  34.8056717  40.3086166
  35.8394356  36.5731888  40.6567993  35.0074120  35.5118942  42.3225479
  34.3228264  36.2260132  42.7802315  34.5428009  34.5362892  42.4654732
  36.2979393  35.6815224  43.0465584  37.4745102  35.5826759  42.5428696
  36.1719856  35.8414345  44.3825798  37.0583382  35.6911049  44.8428841
  35.2274399  35.9493637  44.7235870  32.6265450  35.2274475  40.5874825
  31.8802567  35.6078911  41.5006523  32.6194191  33.9656487  40.1304283
  33.1652946  33.7658157  39.3044815  31.6617126  33.0017319  40.5631447
  31.1081924  33.3038025  41.4522285  30.6365013  32.7812958  39.4584999
  30.3062668  33.8139191  39.3456345  31.1374187  32.3730774  38.5806961
  29.3099518  32.0567780  39.7702484  29.5230312  31.0391636  40.0975990
  28.7905140  32.3781357  40.6730309  28.0445137  31.9501228  38.5140457
  27.8276844  33.7291222  38.3427963  28.1777706  34.2489738  39.2345886
  28.4513168  34.0116463  37.4946442  26.7503471  33.8628082  38.2449532
  32.3511658  31.7091923  40.8905182  33.3995552  31.3620892  40.3155136
  31.6961746  31.0110798  41.8104210  30.8820343  31.4319420  42.2348633
  32.1149597  29.7102947  42.2999153  32.8699875  29.2560902  41.6582489
  32.6228523  29.7597141  43.7932510  31.8325443  30.1360340  44.4427834
  32.7783356  28.6978626  43.9840584  33.9740334  30.5140057  43.9755096
  34.6383934  30.3443260  43.1281967  33.6916580  32.0254631  44.1404495
  32.8267365  32.1688805  44.7880936  34.5457458  32.4932327  44.6301727
  33.5950890  32.5543594  43.1922684  34.6017075  30.0020351  45.2647667
  34.7958298  28.9355392  45.1507301  35.5763245  30.4483376  45.4623375
  33.8618050  30.0657043  46.0626297  30.9214783  28.7104797  42.3477478
  29.8091526  28.9920616  42.7770157  31.1621304  27.5080624  41.7901573
  32.0978355  27.3886528  41.4291916  30.1609287  26.3734131  41.6940575
  29.3062687  26.6550026  42.3091698  29.8645325  26.1477833  40.2238464
  30.8580723  26.1964626  39.7781868  29.4302464  25.1505795  40.1525612
  28.9012432  27.1491489  39.6084518  28.2170525  27.5522346  40.3551178
  29.6902065  28.3095837  38.9476776  30.3617897  28.0616398  38.1257248
  28.9802589  29.0911160  38.6769753  30.4140778  28.8201637  39.5828285
  28.0318241  26.5568714  38.4982605  28.6659985  26.0784435  37.7519150
  27.2582932  25.8675003  38.8366623  27.4403629  27.3655415  38.0689163
  30.6659870  25.0069199  42.2434120  31.8213196  24.7234917  42.0859337
  29.7283115  24.3602886  43.0051079  28.7812748  24.7112007  43.0141449
  29.9892044  23.0393581  43.6145973  30.9526901  22.7445831  43.1987839
  30.0830193  23.2971134  45.0780029  30.6997871  24.1443424  45.3778419
  29.0432968  23.5380764  45.2993927  30.5159206  22.0940933  45.6202774
  30.2262497  22.1362782  46.5345612  29.0423450  21.8659821  43.2126732
  27.8701115  22.1144695  42.9113884  29.4291058  20.5835266  43.1303940
  30.4130936  20.3684406  43.2052765  28.4683399  19.4812107  42.9072227
  27.4645386  19.7731876  43.2158241  28.5118866  19.3150272  41.4120560
  28.0051327  18.3885803  41.1418571  28.1146202  20.1949348  40.9060478
  29.5494442  19.0663528  41.1890411  28.7972641  18.1825161  43.7118340
  29.9428101  17.7406635  43.8470497  27.7152767  17.4380760  44.1263046
  26.8388538  17.6435547  43.6683044  27.7486649  16.1350250  44.9315796
  28.2555485  16.2400818  45.8908157  26.3042831  15.6092319  45.2021294
  26.3319244  14.5796738  45.5589867  25.6278782  16.4586506  46.2226295
  26.0102158  17.4769363  46.1518364  24.5731030  16.4206371  45.9503899
  25.9084759  15.9531126  47.1466408  25.6347046  15.5971327  44.0122261
  25.5996895  14.6428642  43.9135017  28.5487576  15.0453739  44.1662865
  28.5700073  15.0482712  42.9454727  29.1177101  14.0741396  44.9090958
  29.3582363  14.2226934  46.3227730  28.4581928  14.1637840  46.9347801
  29.8309956  15.1979580  46.4387932  30.4086246  13.2170334  46.7218056
  30.0446892  12.7471704  47.6355247  31.3864384  13.6855745  46.8333817
  30.3869705  12.1751814  45.5491791  29.7174397  11.3288126  45.7024384
  31.3835220  11.7887135  45.3355713  29.8790569  12.9885464  44.3197975
  30.8180561  13.3999109  43.9494324  29.2703991  12.1635132  43.2045021
  29.9074078  11.5541077  42.3403320  27.9558315  12.1148291  43.3060417
  27.5390434  12.5561647  44.1132622  27.1137714  11.5024357  42.2414398
  27.3362827  10.4359055  42.2746239  25.6314697  11.6325741  42.4493980
  25.3859081  12.6669378  42.2087898  25.1324482  10.8559456  41.8698082
  25.2090015  11.5742331  43.8982124  25.2133522  12.6718636  44.5673485
  24.7061501  10.4638538  44.2465172  27.2976131  11.9389009  40.7503090
  26.9077568  11.1321478  39.9014435  27.5985909  13.2493362  40.4564590
  27.9429073  13.8146343  41.2193375  27.4394150  13.7233334  39.0879593
  26.7848930  13.0422478  38.5440598  26.7702999  15.1071625  39.2023087
  27.5113869  15.7927303  39.6132660  26.5817966  15.4381027  38.1810150
  25.4574146  15.2673874  39.9657936  25.6357727  15.0657873  41.0220375
  24.7928753  16.6614704  39.8019371  25.5978584  17.3938065  39.8634682
  24.2507534  16.6381168  38.8566055  24.0086231  16.7250748  40.5562592
  24.3637009  14.2595015  39.5815964  24.6676579  13.2388201  39.8138237
  23.5082989  14.4264631  40.2362022  24.0937366  14.3408804  38.5286942
  28.7912178  13.6185923  38.4089470  29.8625793  13.8450184  39.0012932
  28.6747360  13.3675165  37.1054306  27.6955376  13.2920399  36.8696861
  29.7226372  13.0145931  36.1506195  30.7029266  13.4491663  36.3462753
  29.9045753  11.4534969  36.2646790  28.9719238  10.9495010  36.0112000
  30.5745792  11.0993032  35.4812622  30.3303471  11.1003895  37.6602707
  31.5156975  11.4587622  38.1794777  32.1356125  12.1500120  37.7820129
  31.6248970  10.8693428  39.3872261  32.5542564  11.0146475  39.9178619
  30.5615387  10.1345644  39.6008797  30.4158344   9.5347147  40.4002838
  29.7257328  10.2344618  38.5181465  28.7400684   9.8026609  38.4264221
  29.5050049  13.4115801  34.7201805  30.4356823  13.2415771  33.8684731
  28.3494358  14.0368052  34.3351135  27.6145802  14.0066814  35.0273438
  27.9646187  14.4428835  32.9914360  28.1393433  13.5699272  32.3625336
  26.5018272  14.9639015  32.8819008  25.8191910  14.2550726  33.3505936
  26.4225464  15.9386244  33.3632851  26.3361034  15.0842285  31.8113136
  28.8641796  15.5419769  32.4649544  29.3615246  15.4093838  31.3924847
  29.0426273  16.7108269  33.2360954  28.5331783  16.8046608  34.1031380
  29.6991673  17.9592628  32.8241730  30.7039108  17.8453026  32.4172287
  28.8680706  18.7108421  31.7494373  28.9092369  18.0244217  30.9037247
  27.3514252  18.9039421  32.0878220  27.3022270  19.3775005  33.0683441
  26.8402252  19.5764694  31.3989944  26.7685528  17.9828987  32.0814896
  29.5227623  20.0139980  31.2178516  30.5755386  19.7949276  31.0395966
  29.2460480  20.2799568  30.1976566  29.4262810  20.9652252  31.7412605
  29.8189507  18.9595032  33.9904060  29.0498543  18.9689693  34.9350739
  30.8514137  19.8439903  33.9043045  31.3063087  19.9318771  33.0068359
  31.1824017  20.8902416  34.8869476  31.1387959  20.4654350  35.8898125
  32.5436668  21.4601192  34.6338501  32.5220032  22.0253391  33.7021027
  32.7691841  22.3103580  35.2775497  33.7597771  20.5636768  34.6208954
  34.2127113  20.0370350  35.7942390  33.9127922  20.5207081  36.7121201
  35.3156700  19.1813507  35.8161926  35.7072906  18.9568100  36.7973213
  35.8293266  18.6825714  34.6050186  36.6533508  17.9872932  34.5419846
  35.3268547  19.1941204  33.4114418  35.6584091  18.8350697  32.4483452
  34.3419838  20.1841946  33.4201813  34.1031609  20.6389923  32.4701691
  30.1010723  22.0092564  34.8113861  30.0423050  22.6811333  33.7943687
  29.1987000  22.2629128  35.7957306  29.1403122  21.5208149  37.1026268
  29.9073277  21.9146099  37.7694931  29.1732521  20.4549904  36.8767128
  27.7278614  21.7319927  37.6204720  27.6545029  21.8371658  38.7028999
  27.1058216  20.9409199  37.2016945  27.3300552  23.1024723  37.0599365
  27.6435318  23.9070950  37.7250824  26.2602615  23.1199760  36.8517685
  28.0446033  23.1271896  35.7248878  27.3372593  22.6283169  35.0623970
  28.4011345  24.5862598  35.1696205  27.5848675  25.3258457  34.6093826
  29.5745602  25.0179615  35.5427475  30.1684341  24.3586960  36.0252228
  30.2168770  26.3221092  35.1314240  29.5472107  27.0900269  35.5186577
  31.6374702  26.4198055  35.7388535  32.1045418  25.4799442  35.4445724
  32.0712547  27.2759781  35.2222252  31.5229530  26.5397205  36.8161697
  30.1713524  26.5077763  33.5825081  29.9499130  27.6409683  33.0966187
  30.1424656  25.4588661  32.7335777  30.2549000  24.5606041  33.1814423
  30.0013714  25.5297089  31.2986889  30.9762783  25.8265629  30.9119930
  29.7219105  24.1418304  30.7185841  30.4953976  23.5565605  31.2158527
  28.7698879  23.8057919  31.1294785  29.8218498  24.0434799  29.2133675
  28.9448814  24.5742359  28.8427849  30.7676640  24.4970436  28.9170246
  29.9164543  22.7135906  28.4638863  30.6772938  22.0397301  28.8577633
  28.9636269  22.1919575  28.5540390  30.1950722  22.9214287  26.9379044
  31.1420784  23.4374466  26.7797737  30.4578133  21.9446220  26.5317993
  29.0398750  23.4154625  26.1979656  28.5456543  24.1592426  26.6698093
  29.2411060  23.7949867  25.2838707  28.2984467  22.7366543  26.0999622
  28.9533195  26.4932308  30.8100471  29.0966969  27.2458363  29.8583431
  27.7728729  26.4133377  31.5026760  27.6901894  25.7091484  32.2219734
  26.5104218  27.1424999  31.2434845  26.1544800  26.7829018  30.2780323
  25.4384937  26.5347614  32.2539215  25.5533772  26.9546356  33.2532272
  24.4218330  26.7658367  31.9359493  25.4717598  25.4458427  32.2892189
  26.6428013  28.6750298  31.2692909  26.1615200  29.3455276  30.3318596
  27.4225025  29.2477703  32.2623138  27.8703880  28.6316948  32.9256020
  27.5342159  30.7032356  32.4382744  26.4868069  30.9812317  32.5555344
  28.4134026  31.0601006  33.6549110  29.4701939  31.0837746  33.3889580
  28.1675396  32.5431442  34.1649017  28.9652882  32.7295685  34.8838959
  28.2682323  33.2718849  33.3606033  27.1719646  32.6511726  34.5953178
  28.2651310  30.0898762  34.7954063  28.8381348  30.4115486  35.6650543
  27.2486115  30.1436195  35.1851540  28.5034065  29.0474892  34.5838509
  28.0928059  31.4990788  31.2535324  27.6697369  32.6876564  31.0582790
  28.8626709  30.8888073  30.3506374  29.0348778  29.9129791  30.5461082
  29.4011803  31.4954205  29.1170959  29.7941570  32.4911423  29.3225288
  30.6228447  30.7278862  28.6320972  30.5115223  29.6436291  28.6419392
  30.9587917  31.0817337  27.6574001  31.8854370  31.0708904  29.3871441
  32.0893784  32.1408615  29.3462639  31.7616901  30.7744331  30.4287319
  33.0546646  30.2260056  28.7919025  32.6857300  29.2108669  28.6453228
  33.3194580  30.5090027  27.7731304  34.3413734  30.2253208  29.4868374
  34.3253670  30.8349323  30.2919579  35.3756256  29.4240494  29.2381573
  35.3787880  28.5888634  28.2238216  34.6623802  28.4484997  27.5258541
  36.1992950  28.0088310  28.1216640  36.4704590  29.4105644  29.9764709
  37.2866631  29.0439606  29.5079441  36.4334106  30.0734081  30.7376328
  28.4181824  31.7241669  27.9982605  28.6660404  32.5156670  27.1064987
  27.2824478  31.0609646  28.0172081  27.1713963  30.3857918  28.7601128
  26.1538544  31.0876656  27.0229397  26.5868301  30.9630337  26.0304184
  25.1984673  29.9454556  27.1604176  25.0501232  29.9526424  28.2402534
  24.2251892  30.1117764  26.6987190  25.7322216  28.6060467  26.7292099
  26.7024555  28.5843563  27.2254734  25.0300179  27.8727684  27.1258354
  25.8884239  28.4444237  25.1987247  26.9613552  28.1247234  24.6559372
  24.8625107  28.8119640  24.5320244  25.3059196  32.3659782  27.0712528
  24.4649181  32.5519791  26.2445030  25.3971920  33.1225853  28.1405258
  26.2143078  32.9570312  28.7106304  24.5637035  34.3454781  28.4631310
  23.6368465  34.3721733  27.8901253  24.0822868  34.1402588  29.8785572
  24.9822102  34.1542244  30.4934101  23.5915108  35.0593262  30.1988029
  23.2659359  32.8748665  30.2381706  23.8628368  31.9946499  29.9993629
  22.9526939  32.9528275  31.7324085  22.2284470  33.7357292  31.9574280
  22.5196953  32.0447311  32.1518936  23.7951851  33.1897087  32.3821754
  21.9353809  32.8031197  29.6177826  22.0777683  32.6921539  28.5428333
  21.3692627  31.9603271  30.0144081  21.2675076  33.6357079  29.8388023
  25.2381306  35.7285004  28.3000927  26.3744545  35.8501205  28.7502003
  24.4828014  36.7489700  27.9231262  23.5726280  36.4485626  27.6046314
  24.9790649  38.1338425  27.7377033  25.6573696  38.2126427  26.8881187
  23.7531796  38.9088516  27.3414173  23.1434536  38.3719101  26.6147633
  23.1007977  39.1369247  28.1843166  24.1033916  40.0706673  26.6598568
  23.6557808  40.8026695  27.0904541  25.6035843  38.7512741  28.9362392
  25.1011391  38.8650055  30.0581131  26.7870960  39.3530960  28.7313156
  27.1196728  39.3037148  27.7789230  27.7228565  39.8917847  29.7773647
  28.5599937  40.4571304  29.3678684  27.3216419  40.6541367  30.4451599
  28.2445011  38.8594475  30.7688522  29.4478149  38.8602257  31.1123085
  27.4526024  37.9047737  31.1994324  26.4653301  37.9164848  30.9866982
  27.7679558  36.8245773  32.1071739  28.1344833  37.2173843  33.0555725
  26.5258045  36.0116920  32.3469810  26.0506248  35.7065582  31.4146709
  26.7714462  35.1179008  32.9204826  25.4553699  36.7114677  33.2006721
  24.2984314  37.3088531  32.7724190  23.9615669  37.3833542  31.7490082
  23.7162762  37.8862038  33.8481560  22.8589706  38.4197273  33.8261909
  24.4603386  37.7198296  35.0058289  24.1513138  38.0079155  36.3703346
  23.3014030  38.6677513  36.4634323  24.8874454  37.3835220  37.3278542
  24.6187401  37.6648750  38.3353462  25.9527283  36.4761543  37.0245667
  26.4293327  36.0736122  37.9061623  26.3872128  36.2932701  35.6648712
  27.1349239  35.6215935  35.2696800  25.5162621  36.8586502  34.6480865
  28.8906918  35.9828033  31.4861298  29.6755447  35.5156708  32.2555695
  29.0339909  35.9820213  30.1294632  28.3507690  36.4716187  29.5694618
  30.2159138  35.3147125  29.6009159  30.1204567  34.3583450  30.1150703
  29.9587078  35.3038139  28.0711575  30.4071102  34.4320259  27.5946846
  28.8849716  35.2304115  27.8985214  30.3848629  36.6233940  27.3848400
  29.8349934  37.4924736  27.7460136  31.4057693  36.9410286  27.5968761
  30.4254570  36.6641273  25.8768539  29.8728790  35.7754860  25.1516495
  31.1019344  37.6266022  25.2773838  31.4781303  38.4064445  25.7974110
  31.0274277  37.6772957  24.2714119  31.5796909  35.8519135  30.0135899
  32.6052742  35.0950432  29.9902267  31.7576580  37.1591339  30.3856411
  30.8908596  37.6725883  30.3140469  32.9250908  37.8235588  30.8811741
  33.8233261  37.4189644  30.4147282  32.7499695  39.2980843  30.4305248
  31.7829514  39.6299591  30.8084698  33.5162659  39.9142685  30.9008522
  32.8876534  39.6287956  28.9920521  34.0717735  39.2912903  28.2666416
  34.9248924  38.8930206  28.7957611  34.3442650  39.7071075  26.9268093
  35.2810135  39.5149612  26.4248314  33.3010292  40.4377136  26.1998920
  33.4746819  40.6715508  24.8512592  34.3702011  40.4474831  24.5877533
  32.0827904  40.7056160  26.8859234  31.2428246  41.2189903  26.4417324
  31.8870220  40.2859955  28.1624279  30.9650822  40.5525169  28.6578045
  33.0202789  37.6986732  32.3557816  34.0461235  38.0483131  32.8546028
  31.9753876  37.2988205  33.1094818  31.1286716  37.1388359  32.5826263
  31.9455719  36.9301529  34.4791832  32.3271027  37.7711334  35.0582199
  30.5742836  36.6633530  35.1131325  30.0604420  35.9489937  34.4698906
  30.5068817  36.0120430  36.5572319  31.0228405  35.0530128  36.5108299
  30.9300385  36.6833000  37.3045311  29.4953899  35.7012520  36.8187523
  29.8408527  37.9859657  35.3921738  30.4754906  38.6718025  35.9533882
  29.6699867  38.5012093  34.4469604  28.8717289  37.8802948  35.8797531
  32.8891830  35.7302780  34.6387215  32.5658646  34.6661720  34.1191750
  34.0600014  35.8156433  35.2819366  34.5452194  37.0081787  35.9891472
  33.7705498  37.1259346  36.7468529  34.5940475  37.8693237  35.3227043
  35.8054199  36.5522308  36.6411057  35.6942902  36.4152679  37.7167435
  36.6446419  37.1995926  36.3866692  36.1493378  35.1650620  36.1467552
  36.5524368  34.6219330  37.0015182  36.8531914  35.1286316  35.3152733
  34.8515587  34.6280975  35.6611900  35.1887741  34.1954422  34.7192764
  34.2073097  33.6322861  36.6834564  33.4678497  34.0761185  37.5473251
  34.5171661  32.2877808  36.5807533  35.1977539  31.9971542  35.8934135
  33.8535843  31.1457844  37.2799263  33.3175240  31.5053577  38.1582451
  32.7809143  30.5577106  36.3305283  33.2888641  29.8710060  35.6533813
  31.6794090  29.9308853  37.1536674  32.1359329  29.2531700  37.8750534
  31.0979633  30.7095661  37.6473007  31.1053181  29.2956161  36.4791679
  31.9224319  31.5808640  35.5253448  31.1834145  31.0945988  34.8885536
  31.4178104  32.2722092  36.2002525  32.4945831  32.1358185  34.7818565
  34.8389091  30.0972633  37.6093102  35.7881355  29.8277645  36.9186058
  34.5806351  29.3001518  38.6739807  33.9497757  29.6941681  39.3572578
  35.2338638  27.9984951  38.9117584  35.5086975  27.6323395  37.9225693
  36.6226273  28.1770878  39.6054688  37.3520508  28.7521801  39.0351067
  36.3948517  28.8122311  40.9650154  36.2594719  29.8744183  40.7612305
  35.4855499  28.5056629  41.4820213  37.3077316  28.7010937  41.5501709
  37.1662636  26.8978615  39.8551178  36.8976517  26.6083450  40.7301216
  34.4518776  26.8625278  39.5234833  33.7472572  27.0926037  40.4633789
  34.4597626  25.6629276  38.9920616  34.9669952  25.5458221  38.1265526
  33.8807869  24.4092712  39.4996872  33.0279160  24.7256985  40.1001778
  33.3378639  23.4000854  38.4421730  33.9396973  23.4771175  37.5366516
  33.2219658  22.3918552  38.8398399  31.6508312  23.7706604  37.9775696
  31.0304718  23.0829487  38.9404335  34.8159370  23.8036098  40.5743675
  36.0729370  23.9064007  40.5279655  34.1175385  23.0352192  41.4584846
  33.1135483  23.1435909  41.4395218  34.6557274  22.1064110  42.5098076
  35.5597839  21.6201839  42.1432457  35.1797600  22.8198071  43.7803688
  35.7455025  22.1142712  44.3888588  35.7330742  23.6591415  43.3591080
  34.0691795  23.5163116  44.6056709  33.1231041  23.6063614  44.0718803
  33.8807983  22.9537182  45.5200615  34.4662323  25.1172962  45.1750679
  34.3226852  26.1914597  43.7023697  33.3092957  26.5885181  43.6433029
  34.8860054  27.1242294  43.6757622  34.4783974  25.6143360  42.7908936
  33.7000961  20.9417477  42.8934555  32.5555954  21.0278168  42.4833260
  34.1590652  19.8993683  43.6517601  35.1626396  19.8767319  43.7632599
  33.2867813  18.8977909  44.2531128  32.4047737  18.5943642  43.6891174
  33.9634476  17.5661659  44.4868431  34.7795067  17.4879818  43.7684898
  34.5522270  17.5789299  45.4040527  33.0675392  16.2753754  44.4635620
  32.1140480  16.4976883  44.9426575  32.8637276  16.0374355  43.4195557
  33.6516914  15.0468092  45.0741310  34.4042053  14.3834715  44.3645287
  33.4785538  14.8488331  46.3542824  34.0182648  14.1101160  46.7822075
  32.8985329  15.4815941  46.8865318  32.7422218  19.4534969  45.5954285
  33.4365082  20.2669411  46.3129501  31.5287342  19.1190872  45.9935608
  30.9735222  18.6294289  45.3064842  30.9193630  19.1076660  47.3608971
  31.1188145  20.0874538  47.7948761  29.3752174  18.9590149  47.3246956
  29.0243416  19.8643322  46.8293304  29.1274948  18.1461277  46.6420937
  28.6790047  18.7302780  48.6563835  28.6749229  17.6758518  48.9325562
  29.3457546  19.1824131  49.3906326  27.3284092  19.5517921  48.8006706
  26.1973915  18.9451332  48.8233795  27.4251862  20.8081436  48.8983459
  31.5095234  18.0275879  48.2675285  31.6019096  16.8696785  47.8276062
  31.7072315  18.2523232  49.5254974  31.5691853  19.1886463  49.8781242
  32.2164116  17.3865204  50.5951653  33.2426949  17.0558739  50.4354324
  32.4395027  18.2620392  51.8999557  33.0502815  19.1404686  51.6915932
  31.4575577  18.7009850  52.0766144  32.8112221  17.4114227  53.1457748
  32.3210297  16.4388657  53.1899033  33.8704605  17.1557312  53.1727943
  32.5570183  18.2980309  54.7104721  32.7832985  16.7813091  55.7047081
  32.2165604  16.0064564  55.1884537  33.8270187  16.4728413  55.7647095
  32.4262352  16.9439983  56.7216339  31.3932095  16.1724167  50.8082695
  30.1558475  16.1625576  50.8592949  32.0184250  15.0188131  51.0176888
  33.0247192  15.0167370  51.1041374  31.5028706  13.6242962  50.9680252
  30.7455368  13.6397820  50.1842499  32.6474304  12.7474298  50.5104790
  33.0579491  13.1047392  49.5660706  33.3481483  12.7483673  51.3454018
  32.1804047  11.2616882  50.2269516  33.0272713  10.3487921  50.1275749
  30.9609718  11.0365944  50.1214371  30.7912102  13.0897598  52.2270203
  31.3318233  12.2745218  52.9917145  29.6081448  13.6016369  52.4847870
  29.3317947  14.3253670  51.8367538  28.8273926  13.3738718  53.7356949
  29.4932671  12.8345404  54.4093666  28.5065937  14.7544441  54.4008179
  28.1610947  15.4169159  53.6071777  27.4085598  14.9004717  55.4528198
  27.4775505  15.9323111  55.7972717  26.3921413  14.6761751  55.1292725
  27.4621754  14.1324368  56.2244072  29.8531380  15.3524923  54.9551163
  30.6441307  15.1695318  54.2278175  29.7003765  16.4172821  55.1311493
  29.9898796  14.8261576  55.8997726  27.6436920  12.4565363  53.4882355
  27.0191212  12.6325779  52.4415283  27.2716732  11.5260010  54.3859406
  27.8083649  11.3987989  55.2320366  26.2064362  10.5057316  54.1086006
  26.4279022  10.0398083  53.1484108  26.3447361   9.3557568  55.1327095
  25.4326305   8.7677612  55.0306091  27.6415310   8.5703487  54.7553368
  28.4543819   9.1268339  55.2219238  27.4854355   7.5447192  55.0897331
  27.8227558   8.3616552  53.7009621  26.2115726   9.9045687  56.4342995
  26.6066570   9.2399082  57.0032768  24.7787247  11.0284510  54.1207695
  23.9800243  10.6203976  53.2509918  24.5103683  11.9519176  55.0297813
  25.2163258  12.0996933  55.7368088  23.3499794  12.8956871  55.1685753
  22.4394207  12.3595495  54.9011040  23.1390114  13.2922649  56.1617088
  23.3247128  14.0773697  54.2833557  22.3665485  14.8956089  54.4243469
  24.3209324  14.2896738  53.4099388  24.9531460  13.5422525  53.1614113
  24.3567162  15.4767046  52.5314751  24.0358791  16.3773689  53.0548935
  25.3948174  15.6799231  52.2685165  23.4277573  15.1971855  51.3214722
  23.5201874  14.1040316  50.7626915  22.6937561  16.1963196  50.8554459
  22.7771759  17.0831032  51.3316345  21.7249584  16.1336117  49.7783661
  20.9462261  15.3907909  49.9512596  21.1121635  17.5438213  49.7528839
  20.7733135  17.9258518  50.7158661  21.9132557  18.2454224  49.5202789
  20.0930386  17.7779522  48.6795998  20.6191101  17.7516575  47.7253113
  18.8964443  16.8872375  48.5423813  18.3815861  16.7830257  49.4974518
  18.1671600  17.2487164  47.8174133  19.1125050  15.8867149  48.1677208
  19.6592026  19.2409782  48.8393021  20.5314369  19.8910160  48.7702904
  19.0497398  19.5328598  47.9840469  19.0735149  19.4463329  49.7353477
  22.3334618  15.6316776  48.5029602  23.2278805  16.3086109  47.9896126
  21.8389034  14.5075016  47.9365921  21.0154743  14.1254549  48.3794289
  22.3921051  13.8175898  46.7713165  23.4766064  13.7313442  46.8385849
  21.7495232  12.5078049  46.6039581  20.6921806  12.6163235  46.3623924
  22.2402115  12.0765581  45.7314034  22.0057774  11.4535275  47.6874313
  21.2718029  11.5381632  48.4888153  21.5863647  10.5231762  47.3044930
  23.4408760  11.2646332  48.2376022  23.7960148  12.2681932  48.4717865
  23.6078281  10.6140738  49.0960922  24.3965759  10.6252136  47.0901604
  23.9248142   9.6532049  46.9461441  24.2141724  11.2231331  46.1972313
  25.8331509  10.6547995  47.4175262  26.3524628  10.2681284  46.6423454
  26.1518459  11.6125050  47.4540901  26.0344543  10.2185402  48.3059273
  22.0867977  14.5966406  45.5242195  21.2308941  15.5054522  45.4755745
  22.8231297  14.2623720  44.3864822  23.6065273  13.6655083  44.6104012
  22.6268997  14.8147440  42.9906921  23.5628090  14.6796513  42.4485435
  21.5262127  14.0109835  42.2630081  20.5749912  14.2597694  42.7335243
  21.3431892  14.4557562  41.2848549  21.6544209  12.4940538  42.0620346
  22.5618649  12.2554512  41.5073166  21.5986423  12.0418491  43.0522385
  20.4011822  11.9669104  41.2812080  19.5009823  12.3575010  41.7557411
  20.3591499  12.2297831  40.2242165  20.3076420  10.4080687  41.3308983
  21.2893887  10.0090933  41.0757637  20.1503582   9.9984655  42.3286934
  19.2739830   9.8043880  40.5647278  19.1755581   8.8052216  40.4547882
  18.3982601  10.2300444  40.8331070  19.3674793  10.1541529  39.6218452
  22.3200722  16.3683949  42.8960686  21.4120674  16.8420677  42.1945839
  23.0100746  17.1468391  43.7493210  23.8989849  16.7833652  44.0620880
  22.8624706  18.6431637  44.0279617  21.9508038  18.9302673  43.5039940
  22.4705238  18.8516541  45.4437523  21.8515778  18.0815163  45.9040680
  23.3737907  18.8819866  46.0530891  21.7839146  20.5208988  45.7713203
  21.0020618  20.4940281  44.6883278  23.9727631  19.5488834  43.5713234
  25.1682453  19.2609348  43.7812576  23.5771790  20.6811333  42.9254990
  22.5964966  20.8866177  42.7984772  24.4905243  21.7835064  42.4819603
  25.4628315  21.3851547  42.7718506  24.3430195  21.9981480  41.0312119
  23.3112125  22.2560902  40.7925835  25.0788555  23.2620544  40.6101112
  26.1458054  23.1183300  40.7805824  25.0290813  23.6538067  39.5941620
  24.6956501  24.1443119  41.1228256  24.8521729  20.9102039  40.1248436
  25.0267830  21.1840382  39.0843468  25.7694416  20.4164524  40.4456673
  23.7810440  19.8323402  39.9236069  22.8488026  20.2011604  39.4958344
  24.2310944  19.1701603  39.1839638  23.5933781  19.2156620  40.8025780
  24.2511063  23.0759640  43.3162460  23.1244869  23.6083107  43.3972969
  25.3558388  23.6227722  43.8836670  26.2136230  23.0937805  43.8167877
  25.4288139  24.8958321  44.5841675  24.4361496  25.3360558  44.6786423
  25.8442974  24.6530933  46.0881081  26.8921738  24.3865376  46.2259560
  25.5769520  25.6079845  46.5406685  25.1158276  23.5374279  46.7567253
  24.0854282  23.5996819  46.4067192  25.5475674  22.5698166  46.5009308
  24.9611568  23.4260082  48.3401604  25.6961803  23.9119282  48.9818153
  23.9604568  23.7999210  48.5567017  24.8986015  21.9943295  48.8137817
  25.7100563  21.4275551  48.6127586  24.1162376  21.4620094  49.7231979
  23.2584934  22.2278957  50.3861809  22.5622940  21.8583698  51.0177345
  23.5018120  23.2071571  50.4302368  24.0947762  20.1846523  49.8754616
  23.5775013  19.8369827  50.6702271  24.8331146  19.6770649  49.4092941
  26.2408371  25.9974880  43.9641190  27.2938786  25.7438965  43.4130783
  25.6796093  27.1825371  43.9779892  24.9739361  27.3802547  44.6729965
  26.3098888  28.2872829  43.2299232  27.2879486  27.9961510  42.8468513
  25.5320301  28.8175564  41.9904213  24.5605087  29.1590195  42.3477058
  26.1973324  29.9962349  41.2380486  27.2253513  29.7396984  40.9822006
  25.6612167  30.3204308  40.3460960  26.3097343  30.8680744  41.8825340
  25.2422981  27.7117844  40.9192085  24.4970303  28.1401463  40.2489891
  26.0792789  27.5257778  40.2461815  24.9014301  26.8655033  41.5156288
  26.4791660  29.4451580  44.1927605  25.6884556  29.6424236  45.1596680
  27.5341434  30.2341080  43.8583374  28.1033764  29.9178982  43.0862694
  27.9782562  31.3725739  44.6525917  27.0636673  31.7587471  45.1025887
  28.9670677  30.9456120  45.7706451  28.4913864  30.1571732  46.3539009
  29.8652496  30.4913673  45.3522758  29.3526917  32.1589890  46.5949020
  30.1480827  32.6754608  46.0575829  28.4646225  32.7905693  46.6183014
  29.9517193  31.6354389  48.2964287  31.6351929  31.0526142  47.8686028
  31.6678410  30.0130520  47.5424881  32.0921059  31.5646305  47.0217476
  32.3090553  31.0597744  48.7253189  28.5401649  32.4595337  43.8053360
  29.3275547  32.1814842  42.9569893  28.1190166  33.6793823  43.9671135
  27.4405823  33.9766884  44.6537285  28.6905956  34.7972412  43.2777557
  29.6129093  34.4734764  42.7954521  27.7409477  35.3819695  42.2156754
  28.2349586  36.0543518  41.5142860  27.5186596  34.5015793  41.6126823
  26.4597759  35.9153137  42.8727036  26.0872059  35.1701164  43.5755386
  26.7280140  36.8309135  43.3997955  25.2107353  36.2652130  41.5759888
  24.8277988  34.5901871  40.9976730  25.6421947  34.2968254  40.3352547
  24.8999672  33.8855019  41.8261108  23.8242569  34.5767097  40.5724411
  29.1797752  35.8608017  44.2531967  28.4109421  36.2560043  45.1094475
  30.3800869  36.3076782  44.0577316  30.8189278  35.9991608  43.2019615
  30.9467945  37.4126778  44.8359337  30.5952625  37.4481773  45.8670807
  32.5014229  37.1942978  44.9273605  33.0138969  37.2491226  43.9669075
  33.1823425  38.1349297  45.8780708  32.7711067  39.1409531  45.7949486
  32.8865929  37.7638435  46.8593597  34.2626457  38.1135178  45.7345886
  32.9417725  35.9626274  45.4136772  32.3463593  35.7098732  46.1230392
  30.5617237  38.7219887  44.1474800  30.9373932  38.8075447  42.9390717
  29.8172607  39.6863403  44.6964569  29.4502621  39.4955139  45.6178665
  29.1820393  40.7300453  43.7953529  29.8168316  40.8787918  42.9218483
  27.7647839  40.2289696  43.3090477  28.0233574  39.4663773  42.5744057
  26.8696651  39.4969788  44.3431969  27.2905235  38.6053162  44.8078651
  26.6053772  40.2163353  45.1182938  25.9577274  39.1768379  43.8392296
  26.9194241  41.2668953  42.6814728  26.0308781  40.8397675  42.2165527
  26.5345783  41.9713058  43.4189034  27.4407139  41.7477875  41.8537636
  29.0006161  42.1103401  44.4347610  28.7132378  42.1205292  45.6054497
  29.1688728  43.2191353  43.7190475  29.5359669  43.0377846  42.7957611
  28.9671535  44.6165962  44.1579514  29.4161663  44.7767563  45.1381760
  29.6262245  45.6387596  43.2016678  30.6204472  45.3330154  42.8758736
  28.9746056  45.6911545  42.3294601  29.5868282  47.0428734  43.8261185
  29.6995697  47.7793388  43.0305023  28.6345615  47.1634445  44.3426018
  30.6676388  47.3156166  44.8257713  30.4710255  47.2380714  46.0480461
  31.9141254  47.4748459  44.4035988  32.6005974  47.4660492  45.1443977
  32.1941147  47.5688820  43.4377518  27.4613171  44.9477272  44.3489494
  26.6902637  44.9458618  43.4239731  26.9373837  45.2135201  45.5430679
  27.5618439  44.9924469  46.3054886  25.5354309  45.3995514  45.8908501
  25.0887070  45.7191887  44.9493790  24.8112831  44.1030502  46.2652016
  25.0009727  43.3611031  45.4895439  25.3843174  43.4965935  47.5465813
  26.4715557  43.4879684  47.4694672  25.0540466  43.9971008  48.4568062
  25.0695610  42.4657326  47.7089233  23.3817520  44.2025414  46.3733635
  23.0048885  43.6001968  45.7277985  25.2764664  46.4921150  46.9492149
  25.8930798  46.4922867  48.0425110  24.1820259  47.2665787  46.8371849
  23.6707706  47.2547531  45.9662209  23.7066650  48.2086029  47.7898178
  24.6180592  48.4767876  48.3241730  23.2949123  49.5238228  46.9840889
  23.9223614  49.5371017  46.0928917  22.3022118  49.4369812  46.5423851
  23.4597130  50.7816658  47.7811813  22.8573303  51.7721024  47.4127922
  24.1614475  50.9471016  48.7846184  22.5978680  47.6949768  48.7489967
  22.0431080  48.4398003  49.6058235  22.3498287  46.3666306  48.6457138
  22.9633102  45.7742157  48.1046181  21.5357590  45.5474129  49.5767517
  20.7615089  46.1574135  50.0420799  20.7688999  44.4464264  48.8230438
  21.5374393  43.8956757  48.2807045  19.9296494  43.5616531  49.7491722
  19.5072918  42.8566475  49.0331497  20.6913033  43.0978165  50.3759384
  19.1787357  44.0690689  50.3547859  19.8405609  45.0770340  47.7944489
  18.9285011  45.5206871  48.1937141  20.3152542  45.8200569  47.1535988
  19.6419468  44.2414703  47.1232643  22.4226952  45.0008545  50.7046432
  23.4897633  44.3453979  50.5192108  21.9163704  45.1856956  51.9313927
  20.7331409  45.9097633  52.3322334  19.8437691  45.6614418  51.7530479
  20.9039135  46.9713860  52.1536598  20.5534573  45.8969002  53.7553101
  19.7910442  45.1908264  54.0843811  20.2737503  46.8702850  54.1582985
  21.9639606  45.5305367  54.2665863  21.9351768  45.0486221  55.2438431
  22.5848274  46.4241943  54.3298683  22.4759903  44.5878983  53.1260376
  23.5544014  44.7260056  53.0482140  22.2955723  43.1651230  53.3340263
  21.3410492  42.6034050  52.7676811  23.0503960  42.6169090  54.2951241
  23.6607819  43.1465302  54.9009590  23.2748070  41.1285477  54.2927170
  23.6371670  40.8739510  53.2967377  24.4810715  40.8769112  55.2195015
  25.3268642  41.2956009  54.6741257  24.3023033  41.4742203  56.1135712
  24.7688828  39.4388046  55.6700516  23.8711338  38.8476982  55.8510132
  25.2976093  39.1221504  54.7710075  25.7870350  39.3429413  56.8091774
  25.3563766  39.5313835  57.9256401  27.1337337  39.2275925  56.5898399
  27.8041553  39.1764450  57.3435097  27.4163227  39.0994987  55.6286736
  22.0832367  40.2082977  54.6827087  21.9926548  39.1327858  54.0705414
  21.0651245  40.7939301  55.3434601  21.2942314  41.6315422  55.8592262
  19.8195038  40.1396523  55.7176437  19.9477863  39.0847282  55.9600868
  19.3247776  40.7033005  56.9954071  18.4841690  40.1800995  57.4511909
  20.0821953  40.6900864  57.7791443  18.7651176  42.0780716  56.7897720
  19.5020103  43.0484962  56.4713631  17.5871143  42.2763176  57.1861877
  18.7692623  40.1755333  54.6831055  17.8931236  39.3358727  54.6627998
  18.8489418  41.2215347  53.8349571  19.5222702  41.9327812  54.0816460
  18.0166798  41.5005493  52.6904488  17.0529919  41.0227585  52.8668861
  17.8085861  43.0318489  52.6406250  18.8271751  43.4195290  52.6238632
  17.3616848  43.2537880  51.6715355  17.0032711  43.6184654  53.8155441
  17.6390305  43.6590538  54.7000008  16.6534214  44.6238251  53.5810814
  15.7449036  42.8441391  54.1878624  14.9095697  42.6428146  53.3387108
  15.4871292  42.4433174  55.4031334  16.1880360  42.5726204  56.1187553
  14.5414104  42.1365662  55.5809555  18.5558395  40.9286766  51.4187355
  17.8452396  41.0082016  50.4036522  19.7331219  40.2175674  51.4537201
  20.2558155  40.3398743  52.3092499  20.2357254  39.4693565  50.3289452
  20.0551815  40.0503235  49.4245224  21.7663345  39.1781044  50.4412956
  22.0856113  38.8498383  51.4304352  22.1138248  38.0650558  49.4180603
  23.1599216  37.7663956  49.3503418  21.6174355  37.1222572  49.6479034
  21.7633762  38.3502693  48.4261208  22.5202122  40.5276985  50.1787376
  22.3815289  40.9700356  49.1922264  22.1487732  41.2382355  50.9171638
  24.0481186  40.4669189  50.3287163  24.4785709  39.7569466  49.6224937
  24.4999657  41.4362030  50.1179543  24.3319149  40.2381363  51.3559570
  19.4381943  38.1970825  50.1406174  19.0853157  37.3960648  50.9973640
  18.9546318  37.9559898  48.9276924  19.1620445  38.6418571  48.2158852
  18.0235538  36.8792953  48.6218414  17.5068130  36.5539703  49.5247459
  16.9996452  37.5013390  47.5623856  17.4778900  37.7650223  46.6190605
  16.2878208  36.7247314  47.2825928  16.0815849  38.7032394  47.9756508
  16.6733456  39.5469666  48.3306732  15.4986324  39.0308800  47.1148834
  15.0610170  38.2888718  49.0378456  15.5892496  37.7192421  49.8024292
  14.5332146  39.1263123  49.4941559  13.9213371  37.4154816  48.4502792
  14.1739902  36.9014969  47.6183624  12.6755419  37.2251472  48.8461876
  12.2376604  37.7063255  49.9907570  11.3337698  37.3515778  50.2686691
  12.8349628  38.0245438  50.7404671  11.9768047  36.3978958  48.1760635
  10.9761448  36.3397636  48.3001556  12.3690395  36.0033913  47.3330803
  18.8089581  35.6329079  48.2213554  19.2764664  35.6122818  47.0621033
  18.9961319  34.6604080  49.1326981  18.3646603  34.6818581  49.9206581
  19.5251522  33.2852249  48.7934189  20.1967506  33.4325867  47.9476433
  20.4371319  32.7253685  49.8930130  19.8262634  32.4052162  50.7370758
  20.8401222  31.7620907  49.5802841  21.5713806  33.6417885  50.3001785
  22.5005474  34.1566696  49.4400864  23.2259464  34.9634666  50.1756401
  24.1424351  35.3759727  49.7803001  22.8260174  34.9322968  51.4567528
  23.2293053  35.4727325  52.2086754  21.8018970  34.0242653  51.5698204
  21.2140465  33.7888794  52.4447060  18.4447689  32.2430649  48.2623215
  17.3278751  32.1265259  48.7731361  18.7427349  31.5739498  47.1447144
  19.6870060  31.7131767  46.8144608  17.7593040  30.9734097  46.1659317
  16.7415619  31.2173481  46.4705620  18.0092258  31.5569801  44.7538109
  19.0484886  31.3199806  44.5260735  17.0757923  31.1029758  43.6054039
  17.1840725  30.0345840  43.4185448  16.0430908  31.4092255  43.7722549
  17.5547409  31.6258755  42.7775803  17.9509811  33.1003723  44.8510590
  18.8432636  33.5001030  45.3328629  17.6439342  33.4294739  43.8583260
  17.1337376  33.4722633  45.4690437  17.8013687  29.4872398  46.2271767
  18.8072853  28.9011765  45.8298607  16.7043381  28.7356625  46.5562668
  15.8975945  29.2646599  46.8553085  16.7301235  27.2629318  46.6710205
  17.5796738  26.8335400  46.1399956  16.8971233  26.8866749  48.1776085
  16.0724831  27.1285572  48.8480988  17.0729351  25.8110466  48.1924973
  18.0746689  27.4697113  48.9151573  18.0229645  28.7498131  49.4817505
  17.1214542  29.3445206  49.4801941  19.0893650  29.2483311  50.1717148
  19.1269073  30.1911354  50.6971741  20.3169365  28.5379677  50.1272697
  21.3694191  28.9813824  50.8156013  21.9936600  28.2613831  50.9318886
  20.4450035  27.3941631  49.3910980  21.4234810  26.9886799  49.1799965
  19.3350487  26.8828888  48.7482452  19.4307652  25.9452591  48.2209015
  15.5562134  26.5043659  46.0073242  14.4734507  26.8892746  46.4233856
  15.8982029  25.6432533  44.9969673  16.8675537  25.4922161  44.7568741
  14.9972773  24.9982891  43.9745140  13.9456663  25.0132904  44.2608528
  15.1408691  25.6109142  42.5900230  16.0800438  25.3658676  42.0940361
  14.4594994  25.0788040  41.9261780  15.0159597  27.1291351  42.3482819
  15.7290745  27.7735672  42.8623657  15.0987129  27.4302921  40.8714638
  15.0092974  28.4935665  40.6488800  16.0652027  27.0904980  40.4992561
  14.2931213  27.0077934  40.2709503  13.6583567  27.5666943  42.8970871
  13.6001511  28.5991535  42.5524864  12.8437901  27.0086288  42.4354134
  13.6043491  27.4068012  43.9739418  15.0811100  23.4743500  44.0330696
  15.9755859  22.8234615  44.5045967  14.0881395  22.8310490  43.4681320
  13.4223070  23.3989506  42.9638939  13.9045954  21.3690834  43.4025612
  12.8996773  21.0613174  43.1135674  14.8950510  20.8335342  42.3570900
  15.9301224  21.0546513  42.6175423  14.8324118  19.7568855  42.1989632
  14.6111612  21.3347092  40.9221230  14.8996191  22.3788643  40.8011627
  15.2943907  20.8263988  40.2417412  13.2572365  21.0526810  40.3672562
  12.7509766  21.9702969  39.7219849  12.6628914  19.9494133  40.5263901
  13.9091911  20.8639812  44.8600121  13.3173018  21.4955578  45.7541542
  14.7270317  19.8228416  45.1942520  15.3386755  19.5050812  44.4559975
  14.6944370  19.0934238  46.5212975  13.6527920  19.0309849  46.8362198
  15.1217833  17.5726566  46.3910332  16.0798340  17.4398193  45.8884468
  15.2977581  17.2292213  47.4104385  13.9147568  16.8048801  45.6751404
  12.9748306  17.0988865  46.1422539  13.9308920  17.1770515  44.6507721
  13.9862003  15.2502689  45.6682320  14.9223576  14.9367676  45.2062492
  13.8622303  14.8044281  46.6551247  12.7864285  14.7797432  44.7776031
  12.6970043  13.6939039  44.7450905  11.8905115  15.2231455  45.2121468
  12.8735523  15.3506975  43.3992081  12.1606178  15.0252485  42.7621002
  12.8813381  16.3606625  43.3953438  13.7680941  15.0908670  43.0088463
  15.4450483  19.8472404  47.5865059  15.2590389  19.5379066  48.7690201
  16.1322937  20.8839169  47.2081528  16.0565090  21.2005157  46.2520561
  16.8490047  21.8351955  48.0657692  17.4671211  21.3163815  48.7984810
  17.8875580  22.4924393  47.1609268  17.5788498  23.5134239  46.9364510
  18.9042416  22.5271683  47.5523987  17.8591671  21.9649467  46.2074852
  15.9403715  22.9126854  48.7366676  16.4692860  23.7205009  49.4952469
  14.6541128  23.0288239  48.3667793  14.3169575  22.3980846  47.6536217
  13.7146740  23.9733543  48.9922676  14.0163193  24.9841633  48.7177162
  12.3071289  23.8845062  48.3750114  12.5151062  23.8972473  47.3051109
  11.6776810  22.5097008  48.5082169  12.4791870  21.7792244  48.3982544
  11.1882992  22.3708076  49.4722252  10.8978806  22.4580364  47.7483864
  11.3823919  24.9852600  48.8455009  11.0601234  24.6960564  49.8458023
  11.9078999  25.9397945  48.8171349  10.4638042  25.0397491  48.2612686
  13.7322655  23.8287258  50.5315437  13.2243557  24.7279510  51.1748657
  14.2135544  22.7155151  51.1742516  14.5407476  21.9009743  50.6746826
  14.3491564  22.6674900  52.6705666  13.3922863  22.9784279  53.0898705
  14.6063890  21.2533760  53.1958847  14.6056204  21.4090004  54.2747192
  13.5465517  20.2805023  52.6741676  13.7801104  19.9569836  51.6598244
  13.4940262  19.4472466  53.3749008  12.5599270  20.6988506  52.8733063
  15.9957533  20.6128578  52.9149170  15.9813795  19.5381947  53.0965843
  16.2806168  20.7298336  51.8693199  16.7628040  21.0079670  53.5809669
  15.3586388  23.6814690  53.1681175  15.4155083  23.8149261  54.3649559
  16.2235012  24.3542709  52.3481483  16.1130695  24.2725582  51.3475342
  17.2553635  25.2496719  52.7508278  17.5534782  25.0093899  53.7713623
  18.5102386  24.9854279  51.8926163  18.4472580  25.2277775  50.8317680
  19.3075447  25.6660461  52.1912384  19.0783920  23.5150928  51.7990341
  18.1815109  22.9542465  51.5360451  20.0992661  23.3824177  50.6795044
  19.8030434  23.6278553  49.6596451  20.9212074  24.0096645  51.0245895
  20.5755844  22.4073277  50.7815895  19.4627934  22.8958282  53.1349907
  20.0427914  21.9738998  53.0930862  20.1675014  23.6494045  53.4865723
  18.6294022  22.7320004  53.8181610  16.7413769  26.7638550  52.6508598
  17.5115623  27.6884918  52.9873772  15.4755526  27.0296593  52.1685524
  14.7985878  26.2846413  52.2508087  14.9307203  28.4201794  51.8126450
  15.5536385  28.8067131  51.0060081  13.4689350  28.4083977  51.2375526
  13.2260675  29.4578438  51.0708847  13.5551672  27.8512421  50.3046875
  12.3928804  27.8729382  52.1571579  12.6452141  26.8803654  52.5302887
  12.3644028  28.4936123  53.0527306  11.0362921  27.8021946  51.4576607
  10.7521353  28.8295078  51.2296600  10.9818478  27.2280750  50.5327148
   9.9911957  27.2021046  52.3792038   9.3252449  27.8692646  52.7418442
   9.8847532  25.9645271  52.7114372  10.6378698  24.9578972  52.3354568
  11.5619297  25.1151295  51.9593048  10.2405586  24.0681076  52.6010094
   9.0609426  25.6099987  53.6380806   8.9945869  24.6569862  53.9659042
   8.7244730  26.3365250  54.2537498  15.0391464  29.3357487  53.0430489
  14.7946863  28.8453007  54.1345787  15.3728485  30.6195869  52.8846054
  15.9748487  31.0976925  51.7298203  15.2453079  31.1933994  50.9256401
  16.7522068  30.4482403  51.3272896  16.7305775  32.3598099  52.0088081
  16.7183723  33.0715637  51.1833611  17.7836971  32.1231918  52.1606407
  16.0250874  32.9181442  53.2533073  15.0947628  33.3706284  52.9100075
  16.5890560  33.6712875  53.8035965  15.7303486  31.5564175  53.9129562
  16.5880375  31.2179775  54.4942818  14.6736546  31.7385750  55.0223846
  15.0795126  31.5777702  56.2218971  13.3666563  31.8884983  54.6988525
  13.1442566  31.8790092  53.7136879  12.3393211  32.0923691  55.7492867
  12.6898355  32.9399719  56.3381958  10.9700127  32.4221725  55.1196938
  10.7500095  31.8055553  54.2482071  10.2004108  32.3548737  55.8886414
  10.8410807  33.8882332  54.6096535  11.6487942  34.7757912  54.9094086
   9.8226595  34.1193733  53.8121300  12.0746374  30.8912048  56.6620102
  11.6323528  31.0593204  57.8011742  12.4572172  29.6593761  56.2928925
  12.7831373  29.5667572  55.3414192  12.4590654  28.4315376  57.0489273
  11.5502176  28.4631863  57.6498375  12.3327818  27.2041035  56.0515022
  11.5776310  27.4384232  55.3012085  13.2944660  27.2102547  55.5384407
  12.1034431  25.8972034  56.7242165  12.9856253  25.7020054  57.3339310
  11.0482235  25.7738342  57.8556480  11.1591749  24.8251705  58.3808441
  11.2056990  26.5028648  58.6505165  10.0884714  25.8636894  57.3468246
  11.9210510  24.7487259  55.7336044  11.0973387  25.0923233  55.1078682
  12.7730894  24.5216751  55.0928383  11.6256571  23.8099041  56.2020683
  13.6296778  28.4208336  58.0584450  13.3143473  28.2694950  59.2645073
  14.8425894  28.5705872  57.5303688  14.8557024  28.5244617  56.5215073
  16.0232983  28.6741657  58.3636971  16.1682529  27.6827641  58.7928963
  17.1819592  28.9521370  57.3234100  17.3096352  28.0629120  56.7060928
  16.8794270  29.7166367  56.6077843  18.3860168  29.2901115  57.9769249
  18.8474293  29.9013805  57.3980904  16.0305157  29.7092590  59.4520988
  16.1797123  29.4800091  60.6656036  15.8245373  30.9683666  58.9652405
  15.7277613  31.0494251  57.9631615  15.8195896  32.1786461  59.8396759
  16.7367325  32.1334839  60.4269676  15.9297457  33.4632835  58.9195633
  15.0760250  33.5014801  58.2429504  15.9802189  34.3613129  59.5352669
  17.1632900  33.4902077  57.9868965  17.2906170  32.5802689  57.4004669
  16.9493923  34.7934036  57.1240578  16.5227051  35.5973549  57.7238159
  17.9129162  35.1620102  56.7721329  16.3777084  34.5485344  56.2288971
  18.3738937  33.6414337  58.8828354  19.2169800  33.9016685  58.2428513
  18.2176552  34.5309296  59.4931564  18.6356468  32.7418365  59.4398956
  14.6027327  32.0956726  60.7994118  14.7472372  32.6126366  61.8776512
  13.5260477  31.3028927  60.5134811  13.4631348  30.9104328  59.5849800
  12.5270491  30.9841671  61.5392380  12.3939342  31.8329544  62.2100182
  11.1633110  30.7691231  60.8290901  11.2742071  29.9880428  60.0769501
   9.9733820  30.5732861  61.7085114  10.0634356  29.5306778  62.0133896
  10.1867638  31.1566238  62.6042175   9.0387888  30.8012753  61.1960106
  10.8515978  31.9935207  60.1219597  11.3285685  31.8440933  59.3023415
  12.9428654  29.8907471  62.5588608  12.6513968  30.0997410  63.7198563
  13.6240339  28.8116779  62.1777878  13.7034626  28.7910595  61.1711273
  14.3744698  27.8315773  62.9667244  13.5776243  27.4661140  63.6144714
  14.9986000  26.6758099  62.1064415  15.6928329  27.0985088  61.3801727
  15.7021332  26.1602421  62.7601547  14.0378113  25.6553478  61.5043030
  13.2613792  26.2482452  61.0208511  14.6723824  25.1298676  60.7906570
  13.3122835  24.5969524  62.3073730  14.0030060  23.9130993  62.8006744
  12.6977549  24.8728104  63.1643181  12.5221167  23.7009449  61.3122864
  11.7899256  23.1366119  61.8898010  11.8514223  24.2236309  60.6303253
  13.3062840  22.6798286  60.5664101  12.5865011  22.0869541  60.1784515
  13.8243980  23.0935955  59.8045349  13.8650532  22.1728077  61.2378349
  15.3889656  28.4982681  63.9462357  15.5345993  28.0709686  65.1045227
  16.0629349  29.6119270  63.5589523  16.0079746  29.8599834  62.5814285
  16.9867363  30.3664284  64.3750916  17.7731495  29.6431370  64.5907440
  17.7076607  31.5591927  63.5747261  17.9560318  31.1595650  62.5915146
  17.0401840  32.3904114  63.3474617  18.7511559  32.2416077  64.3633347
  18.6737919  33.3800125  64.8091049  19.8260174  31.5961246  64.6666183
  20.1167316  30.7027912  64.2957458  20.5489197  31.9386082  65.2832336
  16.3891411  30.8902416  65.7429276  17.1882076  31.1338196  66.7147369
  15.0869837  31.0208683  65.9149323  14.4234962  30.8976059  65.1634750
  14.4770126  31.5538654  67.1446762  15.1492701  32.3936310  67.3206558
  13.1682158  32.1684990  66.7091751  12.7024965  32.6883698  67.5463943
  13.1362047  33.1413612  65.4755096  13.6341734  34.0280685  65.8677826
  13.6779289  32.7319641  64.6228485  12.1419792  33.5161819  65.2323532
  12.3304129  31.1141739  66.3424301  12.0974426  31.0394897  65.4141312
  14.3929472  30.6041012  68.3066254  14.0727863  31.0635090  69.3808441
  14.5507298  29.2779102  67.9832840  14.6053162  28.9818897  67.0191803
  14.4920092  28.2037621  68.9903564  13.5550699  28.4325047  69.4982224
  14.4093761  26.8526154  68.1934967  13.8061838  26.9977016  67.2972794
  15.4146004  26.4613018  68.0369720  13.7388430  25.8248329  69.0490341
  13.8049154  24.8221493  68.6267014  14.3154087  25.8475552  69.9737778
  12.2970009  26.0779171  69.4608383  11.4091225  25.7966175  68.6647720
  12.0559120  26.5771503  70.6008453  15.6837530  28.3990650  70.0091629
  15.6620369  27.9848690  71.2103653  16.7987518  29.0211067  69.5560760
  16.7808075  29.2681999  68.5769348  18.1034813  29.3261948  70.2445068
  18.3951492  28.4046726  70.7483215  19.2741718  29.7213783  69.2063599
  19.1708679  30.7046757  68.7474976  20.1618938  29.7633591  69.8374634
  19.4667015  28.7881260  67.9704971  18.6551476  29.0432224  67.2890244
  20.8412342  29.1550865  67.3928299  20.9041843  28.6727600  66.4173813
  20.8530540  30.2270374  67.1956329  21.6498108  28.9112854  68.0819321
  19.6130257  27.2796383  68.4222946  18.6671982  27.0427437  68.9095230
  19.7277412  26.6584568  67.5339966  20.4155025  27.1417465  69.1469421
  17.8369827  30.3229294  71.3168945  17.3764801  31.4635143  70.9299088
  18.2336693  30.1146049  72.4935226  37.4798965  26.5082588  31.4281216
  36.6854286  26.3901920  30.6943531  38.3358841  27.1059284  31.1221733
  37.2835693  26.1525021  32.7230949  38.2667122  26.3695126  33.7747307
  38.0101242  26.1783791  34.9719734  39.2592812  27.0669098  33.6617966
  36.1407089  25.5354462  33.1803894  34.7884331  25.9659443  32.7762642
  34.0113144  25.4641762  33.3657570  34.4745178  25.5833702  31.3746567
  34.8344269  24.6217308  31.0151501  33.6370850  26.2695637  30.5714855
  32.9571991  27.4125252  31.1896477  32.1722183  27.8669281  30.5882111
  33.3128166  27.9573898  32.3809586  32.7301750  28.7694073  32.8107033
  34.5435181  27.4420547  33.0976830  35.3939819  28.0062504  32.6956902
  34.4020309  27.6579170  34.4999313  34.2105064  28.6116905  34.4809074
  33.3374672  25.7726555  29.1772900  33.8464088  24.7032413  28.8441906
  32.4854469  26.3155060  28.4748535  48.8238983  24.0952034  54.6441002
  49.5706940  23.4094181  54.2497330  49.2163010  24.9644585  55.1674957
  47.4632111  23.9416218  54.3955574  46.4713554  24.9534969  54.9039879
  46.8355598  26.1582718  54.9357567  45.3041954  24.6976166  54.9303055
  46.9299583  22.8930893  53.6597824  46.9743118  23.0527840  52.1737022
  46.5512695  22.1408882  51.7347603  48.4568253  23.0964622  51.6960297
  49.1047478  22.2239437  51.6466789  48.9467392  24.3504314  51.3420715
  48.0552254  25.5255909  51.4274254  48.4646759  26.5297527  51.3357201
  46.7480774  25.4262104  51.5371284  46.1067963  26.3040066  51.5791168
  46.0226974  24.1348534  51.6129532  45.2300873  24.3834782  52.3292999
  45.3404961  23.9432011  50.3611412  44.5363579  23.4387703  50.5747833
  50.4195213  24.4745388  51.0531578  51.1307526  23.4557133  51.1911850
  50.9088326  25.5813904  50.8817215  21.9426270  25.8467350  53.8891106
  21.8927479  26.9334106  53.9024696  21.5087872  25.3816261  54.7717094
  22.6054249  25.0683575  52.9835052  23.2653389  25.6037407  51.7249489
  23.0966778  26.7940369  51.4284286  24.0866623  24.8722916  51.0657272
  22.6188316  23.7282906  53.2069473  23.8238831  23.1793747  53.7659683
  24.5357704  23.0702801  52.9386215  23.3720188  21.7978630  54.1780663
  22.8534603  21.2394409  53.4016647  23.7830658  21.2019653  55.2931366
  24.5898323  21.9603291  56.2663422  24.9643936  21.4778843  57.1670914
  24.9471626  23.2669735  56.1002502  25.3538456  23.8549747  56.9202423
  24.4200268  24.0863705  54.9242477  23.6073742  24.7467995  55.2507706
  25.5040627  24.7810555  54.3815575  25.3144131  25.7315140  54.4675331
  23.2129040  19.8931828  55.6564789  23.3779449  19.4363441  56.7555161
  22.7409534  19.1380062  54.8059540  70.0945053   7.2755928   6.9503665
   7.7398801   6.2713547  78.7353668  61.6916504  50.3705597  82.0132446
  30.2938137  52.4891243  33.0626068  34.2979698  27.4461441  21.5263748
  66.1251984  38.8780518  32.4233055  76.3566284  25.4641647  45.7003441
  25.1864719  61.9723473  71.7694168  33.8600769  46.6294479  82.5134735
  78.7391815  36.5879822  86.3528671  78.4739609  36.3144302  87.2309647
  78.3497009  37.4556122  86.2444305  78.5407944  67.3277130  60.5249443
  77.7938004  67.8137054  60.8742981  79.2746201  67.5815430  61.0846786
  54.4747276  71.7036438  62.7493935  54.1634445  70.7995377  62.7055244
  55.4129791  71.6428909  62.5698929  19.0959244  37.8950119   5.9839611
  18.8506775  38.1942291   5.1084299  19.6145191  37.1052132   5.8306322
  49.5446053  47.6446915  66.7179413  50.4789391  47.7886162  66.5678101
  49.3661728  46.7933540  66.3184204  58.7199059  68.8347397  17.1103916
  59.3016930  68.1935120  17.5185375  58.2501564  69.2326126  17.8433723
   3.0411243  36.0267563  46.3775024   2.7733002  35.2631798  45.8661766
   2.2559552  36.5724068  46.4222946  63.9868011  58.4967728  70.9978638
  64.3134003  58.2830544  71.8718719  64.0330963  57.6708336  70.5162888
  47.2354584  57.6128197  36.1674995  46.4864616  57.2661209  35.6826973
  47.6021347  56.8520012  36.6179848  30.5186348   9.3875217  61.4430466
  30.7358646   9.7671690  60.5916290  31.2089176   9.7001762  62.0278473
  63.3834724  41.6734352  47.4636192  63.0779076  41.2250938  46.6750450
  63.2466125  42.6026535  47.2790756  68.1521835  15.1671724  84.6282959
  67.6805878  15.4136505  83.8326340  68.9209900  15.7373381  84.6373825
   5.8682690  49.3439636  87.5207520   6.1870079  48.6258469  88.0675125
   5.4037509  48.9114838  86.8042221  81.2706680  65.8084793   2.6385856
  81.9579544  66.3440552   2.2423244  80.5429077  65.8556137   2.0186033
  74.1028137  32.8333664  73.8687897  74.6096649  32.4333115  74.5753937
  74.3209610  32.3148880  73.0943069  57.7248268   1.6930816  39.0591583
  57.6595421   2.4591913  38.4890327  58.5313187   1.2574102  38.7834930
  27.5721340  55.5950089  15.3084145  28.4632454  55.8382607  15.0574589
  27.3140087  54.9346733  14.6653299  10.7501278  49.5990295   4.8776393
  10.7238235  49.9552116   5.7657127  11.1358566  50.2985954   4.3503323
   5.7543492  13.9389648  17.8170433   6.4119945  14.4339600  18.3056278
   4.9218812  14.1817389  18.2223701  19.2949181  66.4923248  52.2767372
  18.7472076  66.9091187  52.9419632  19.7080956  67.2219925  51.8151131
  81.1937256  45.7601357  11.3905210  81.5913467  46.4206581  10.8232136
  81.4555893  46.0152092  12.2751656  40.0581055  44.0898666   0.5264083
  39.5543633  44.8430748   0.2179416  39.4171906  43.5428162   0.9805002
  36.4220390  62.2271500  29.2434177  37.3404617  62.4758263  29.3477821
  36.4317360  61.5556793  28.5613155  34.8905373  50.2323112  29.7122421
  34.5089455  50.2935677  28.8365326  34.4529343  49.4807777  30.1121578
  66.0638046  10.3699427  50.2929993  65.8729477   9.7653179  49.5758972
  67.0057907  10.5274792  50.2291603   2.9296436  48.9169083  28.3692169
   2.3878009  49.6711693  28.1374207   3.4095237  49.1971970  29.1485672
  48.9798508  65.1847382  54.6467934  49.8541412  65.1081009  54.2647285
  48.9775581  64.5552444  55.3678780  77.2169266  67.4058228  14.0755596
  77.3058548  66.6106949  13.5501060  77.7832718  67.2570953  14.8327675
   4.7315588  66.1663361   6.5456095   4.7265282  66.2696304   7.4972067
   4.4804640  67.0268707   6.2099524  14.3646660  21.8437004  32.6170616
  14.9360704  21.1858997  32.2207947  13.5394087  21.3833961  32.7697144
  10.3795013  43.0940895   8.9696827   9.5789108  43.2001686   9.4835253
  10.5531807  42.1529655   8.9883966  74.0531387   1.5339983  55.8250923
  74.2308502   1.9539948  54.9835167  74.8226852   1.7319509  56.3588066
  69.3420792   1.9435282  63.8224831  69.0139236   1.9683414  62.9236336
  68.9249878   1.1733267  64.2085571  65.8414993  52.2995720  73.4895248
  66.1799316  51.4692802  73.1543961  65.5297852  52.7625237  72.7118759
  81.2745056  37.9691086  19.6230526  81.0411377  37.0524368  19.7696362
  80.4579697  38.4491577  19.7610607  10.0956526  25.2636604  88.8989029
   9.5863686  24.8430233  88.2061386  10.0260181  26.1999550  88.7125244
   0.7187223  57.8462868  77.7336273   0.4226256  58.0540581  76.8474045
   0.8852074  58.6984711  78.1364899  80.7422333  53.0133247  50.1189041
  80.4330368  53.2542191  50.9921761  80.5151978  52.0875664  50.0313644
  84.7532578  10.7653503  87.5477829  85.2781296   9.9666529  87.6009293
  83.8578720  10.4550047  87.4128876  19.4806023  21.4942818  11.7653894
  19.7277222  22.3995934  11.9539948  19.5125618  21.0552425  12.6153631
  38.0491104   4.5189967  70.3131790  37.8792381   3.7115295  70.7983322
  38.9847755   4.6795926  70.4355392  86.0225220  19.6976948  14.1632185
  85.7408524  20.5471191  14.5028858  86.2517014  19.8690510  13.2497931
  14.4700394  11.8994770  18.8169746  14.3502550  12.2202005  19.7108536
  14.5709152  10.9525414  18.9137745  38.9096680   2.9162900  57.3640900
  38.7145653   2.6307468  56.4715462  38.5317268   2.2358713  57.9212456
  33.3976517  65.8384018  67.8248672  33.2195892  65.9782867  66.8948364
  33.9650345  65.0677948  67.8468399  55.0484619  49.9150810  85.9194031
  54.7236061  49.8700104  85.0201416  55.8072662  50.4965591  85.8710861
  59.3800430  10.1271000  65.7823029  58.8995171  10.0225363  66.6035156
  60.2231216   9.7030773  65.9424591  82.9857407  36.0635376  36.6509094
  82.2014236  35.8528404  37.1575584  82.6580353  36.5452423  35.8914337
  52.2570953  52.1200867  40.5350647  52.8594666  52.3841019  41.2305336
  52.7933159  51.5962639  39.9398270  23.5277653  56.5748138  77.0716476
  23.1042976  55.7163849  77.0690231  23.1147442  57.0434113  77.7969513
  54.1962433  30.1194572  13.9861813  54.7752838  30.3488121  13.2593136
  54.7521973  30.1785660  14.7631311  24.9563560  42.3479195  63.0847321
  25.7117691  42.5481949  62.5320358  24.2086411  42.3760529  62.4877739
  30.7965832  29.5079231  87.1583328  30.4140835  28.8904343  86.5349274
  30.0530338  30.0220299  87.4730759  24.0037861  31.4889507  51.7038689
  23.2938709  32.0259285  51.3518677  23.6928558  31.2169552  52.5673370
  60.6182556  36.6490631   1.5846744  60.0026207  36.9724884   0.9269314
  61.4238243  37.1392250   1.4202567  54.7686806   9.4103117  15.1494455
  55.0074196  10.1468372  15.7122641  55.2698135   8.6719608  15.4957619
  64.6242752  36.0031662  48.8977127  64.4227524  36.7108955  49.5098724
  64.0339279  36.1503067  48.1587448  22.3836231  42.4558411  44.0022392
  21.9022694  41.9705391  43.3321533  23.1158924  42.8529625  43.5307426
  19.8439808  19.7127666  82.6731339  20.5732746  20.3018284  82.8664474
  19.1859303  20.2732239  82.2619324   5.9383593  70.3469467  19.9539585
   5.8184175  69.6152420  19.3486004   5.2238097  70.2558823  20.5843220
  72.9593430  24.4596214  49.3780174  73.0240479  23.5247688  49.5732002
  73.8676300  24.7583008  49.3328667  64.1361465   7.2633343   2.7537374
  64.3670044   6.6095066   3.4136207  64.7358475   7.0927196   2.0274584
  63.4882622  50.2461357  65.3303680  64.0046921  49.8005714  64.6587982
  63.2700729  51.0933151  64.9418869  30.0531139  37.1438904  11.0991573
  29.1503601  37.3465500  10.8538036  30.1401291  37.4801254  11.9911251
  28.6169891  16.3929958   2.5446255  28.7789936  15.5850992   2.0575023
  28.7904758  17.0918312   1.9139414  76.9381104  31.9219971   9.4932394
  76.1624451  31.9518738  10.0533161  77.4307861  31.1635361   9.8066750
  45.5269737  68.5908966  60.9027214  45.5353203  69.5364838  60.7543106
  44.6744270  68.4186935  61.3024025  27.9465961  28.1691399   9.5726357
  28.4657307  28.9184017   9.8647604  28.1113796  27.4928246  10.2296562
  59.0536041  61.8886642  37.8981705  59.9068108  61.4640694  37.8087730
  58.9193230  62.3348274  37.0620232   7.1158500  20.9144974  53.6916389
   6.9119058  20.0128212  53.9398651   6.3289227  21.4094963  53.9195709
  65.5924530  17.2806129  26.8692837  64.8143692  17.5946140  26.4086113
  66.1505127  16.9213924  26.1795292  64.0943298  67.8654556  55.6744537
  63.4352493  67.4295731  56.2146797  64.3928528  68.6017227  56.2083359
  50.1707573  36.1943130  62.3506737  50.0400696  36.8677673  61.6831322
  50.8231506  35.6050873  61.9719505  72.9440765  47.6853600  27.4343815
  73.4457474  47.9608841  28.2016125  72.9020615  46.7317314  27.5055046
  45.3959961  62.5810661  72.6221848  45.2834854  62.8392334  73.5370255
  44.7338943  61.9043427  72.4811249  85.5603333  17.9842834  10.5420780
  86.0843582  18.7124176  10.8759127  85.3769760  18.2185116   9.6322708
  29.7999725  10.2009878  18.1277199  30.1648560   9.4604778  18.6122169
  28.9737949   9.8718586  17.7736931  52.1957130  52.8776169  29.4671764
  51.6412392  53.3860893  30.0589905  51.6969528  52.8322830  28.6514473
   1.8397112  34.5231743  39.8382683   2.6869016  34.8875847  40.0946007
   1.4052490  35.2348137  39.3681145   9.4854841  46.1690521  83.7051544
   8.9208193  45.8198853  83.0156174   9.5880680  45.4435158  84.3210297
  10.9660892  28.0621262  67.0434036  11.2050076  28.7641926  67.6485977
  11.0563345  27.2605915  67.5587997  10.5270491  10.2452765  58.9224472
   9.7950068  10.8499584  58.8011818  10.2591324   9.4495935  58.4627304
  54.8710861  53.4232140  45.2575111  55.3492432  52.8135605  44.6954460
  54.7557297  52.9494133  46.0811844   2.9009473  23.3372307  46.5024757
   2.2996619  24.0818901  46.5154991   2.3348696  22.5743217  46.3851814
   3.0092134  12.3971577   8.1755638   3.1940875  12.7577667   9.0427513
   3.5209835  12.9403734   7.5761981  19.3766747  51.2049294  52.0464745
  19.2211304  50.9263954  52.9489479  19.3690376  50.3925018  51.5403786
   2.0965505  43.9357033  17.9161263   2.5240226  44.2929993  18.6944828
   2.7407012  44.0467148  17.2168560  33.1382179  46.5867996  48.9875526
  32.9914017  47.3216171  48.3919640  33.6183968  46.9669762  49.7231636
  86.1976624  23.6011162  32.7869797  86.0959473  23.8682957  33.7004890
  87.1279984  23.7295589  32.6020317  54.2085381  10.3820820  69.1275253
  54.0540085   9.6977711  69.7787323  53.3517570  10.7894564  69.0002441
  48.2642555  54.9318542  48.9110184  48.2429771  55.8307762  48.5828209
  48.2832260  54.3894081  48.1225891  63.9733963  57.1349068  15.9220924
  64.7401047  56.8399200  15.4307947  63.2639008  56.5662613  15.6229391
  31.0579510  67.4099197  21.1404476  31.0398140  66.8467789  20.3666420
  30.3560944  67.0737839  21.6977997   0.9506792  28.7350178  31.1188793
   0.2748017  28.3485432  31.6757088   1.7722552  28.5424366  31.5707169
  25.5840073  63.7590714  87.2728653  25.4233303  63.9714355  86.3534470
  26.0999966  64.4950333  87.6020355  52.5627785  23.4839058  79.7818222
  52.9885445  23.0423908  79.0469666  51.6294479  23.4529266  79.5716553
  21.5778484  70.3806305  30.8016033  22.2826519  70.0035019  31.3281536
  22.0083961  70.6700211  29.9971714  34.1783524  21.7696972   1.4990216
  33.8782654  22.6749897   1.5804477  34.5680962  21.5691071   2.3499589
  59.4726791  11.6485434  38.8283310  59.9312897  10.8260555  38.6568108
  58.5468330  11.4353590  38.7117233  79.9598618  30.3696308  33.6102219
  79.1026230  30.5045795  34.0141449  79.7671127  29.9386959  32.7775307
  83.3878937   8.4224453  55.5607338  82.5655136   8.7599640  55.2057648
  83.1293640   7.9375086  56.3444595  13.0632229  44.7045631  36.2030830
  12.4182940  43.9972687  36.1971779  13.1437435  44.9629440  35.2849388
  83.4215851  24.1254768  26.0659599  84.0839767  23.6589718  26.5757065
  83.8605270  24.9260559  25.7784920  42.2492027  55.8005104  62.7227669
  42.4199371  54.8695831  62.8657837  41.6341515  55.8213463  61.9896164
  19.4599628  71.3140945  28.8138180  18.6742039  71.2130737  29.3510418
  20.1613617  70.9315720  29.3410225  70.0519791  69.3574829  76.8699493
  69.6707840  68.9311295  76.1023941  70.7395706  68.7580948  77.1601028
  85.4698257  32.3020859  39.8290443  85.1009521  32.0449829  40.6740685
  86.1675720  32.9189720  40.0500069  77.3541718  56.8232269   1.3008118
  77.9526520  56.3725624   0.7050335  76.5163803  56.8312988   0.8379173
  28.5993271   9.9393044  20.6792297  29.2884197  10.3733845  20.1762810
  28.9816055   9.0995722  20.9340763  55.6297607  64.8183594  71.3010406
  55.6987839  65.7324219  71.5766525  55.5567017  64.8605576  70.3475647
  21.0320225   7.7010994  19.4642296  20.9155560   8.1617613  18.6332932
  20.4610538   6.9358792  19.3959370  64.3575821  53.6858521   5.0859408
  65.2769775  53.9483986   5.1308599  64.3779449  52.7308388   5.1473079
  53.6725197   9.0021515  76.0451660  54.0061264   9.8689671  76.2766190
  53.7289238   8.9709654  75.0901413  87.0107880  43.0679321  72.9168396
  86.3515091  43.2126541  72.2381439  86.6751556  43.5370789  73.6807022
  70.6563568  55.6198082   0.3096627  70.5394058  54.8455162   0.8601433
  71.4102249  55.4100876  -0.2416355  57.0012093  67.1476135  74.6310425
  56.6368141  67.8644485  74.1118164  57.8702087  67.4557800  74.8881607
   4.6341748  64.0578079  34.6498489   4.8445358  64.9905930  34.6933708
   5.2062664  63.6526070  35.3015785  75.5873260  63.8094521  62.9052582
  75.6082001  63.7275162  61.9517975  76.5063858  63.7674866  63.1694412
  62.0564270  47.8911438  55.1815910  62.9677086  47.8921509  54.8886757
  61.8241348  46.9642982  55.2384109  80.0203934  28.5608883  26.3741360
  80.3165741  29.4704475  26.4089355  80.8248062  28.0448475  26.4274521
  11.4498100   1.6110542   4.1526108  12.3666582   1.4786265   4.3936172
  10.9581213   1.3628298   4.9354634   4.1913962  15.9106102  80.8540573
   4.6050100  15.0912066  80.5825195   4.5734453  16.5737591  80.2791595
  12.8698130  55.3296890  78.2637482  13.2529163  56.0031624  77.7016983
  13.5374050  54.6450424  78.3063126  47.9091835  65.8394318   0.4151129
  47.8799744  66.0198669   1.3546997  48.1398544  66.6788406   0.0170897
   6.4106283  58.0682144  48.0809555   6.8099070  58.8096542  47.6259003
   5.7928643  58.4675789  48.6934166  27.1628456   6.1092725  37.2985916
  26.9791069   6.9449148  36.8694382  26.4526424   6.0038652  37.9316254
  13.7992401  68.5719452  47.7283669  13.9692612  69.2709351  47.0969162
  13.3323689  69.0037842  48.4437561  83.1336212   9.2151003  36.5347557
  82.7789001   9.7750940  37.2252731  83.7900620   9.7587185  36.0990982
  11.7711191  30.0664024  71.6188431  12.7137690  29.9482822  71.7358551
  11.5713310  29.6056767  70.8039474  35.9958344  14.3749847  88.5154419
  35.4186974  14.2814684  87.7575531  35.6275711  13.7831011  89.1714020
  77.3181229  49.7456169   7.3016334  78.0789566  49.4025764   7.7703409
  77.1336746  49.0882339   6.6307697  67.4424057  64.6947021  55.1894226
  67.9374695  64.9289932  54.4044037  66.6529770  64.2680206  54.8562813
  33.9893379   3.4499722  34.7662048  33.3936462   3.6351562  34.0401917
  34.4491272   4.2761364  34.9154587  12.3240032   9.6465921   3.7034917
  12.0599699   9.4202585   2.8117003  12.0425797  10.5548639   3.8133757
   1.8393891  60.8205185  88.4487991   2.5506647  60.8889694  87.8119049
   2.2815893  60.7344208  89.2933578  51.0626373  18.6560631  29.2051506
  51.6856651  19.2643375  29.6027260  51.4734039  17.7966614  29.2996483
   3.8413539  18.9608154   2.6931326   3.0278959  18.4694633   2.5787168
   3.5634613  19.8043232   3.0502055  73.7551193   2.4531367  43.9320183
  74.5379562   1.9477082  43.7130661  73.1679764   1.8190305  44.3436012
  42.4664993  15.3053360  12.1520081  42.9097977  14.7993221  12.8329391
  42.9198418  15.0672798  11.3432808   8.6586618   1.9580945  79.8791809
   9.0846033   1.9996278  80.7353821   8.3594160   1.0519665  79.8042374
  70.9466476  11.2673054  28.7181740  70.6005554  10.5060101  29.1838837
  71.7308121  10.9416504  28.2762871  54.2534981  54.4027367  29.3610325
  53.5184135  53.9485245  29.7728310  54.2819824  55.2552147  29.7954273
  43.0606346  45.6699753  53.9829674  43.6819267  45.4902687  54.6886101
  42.2192574  45.7780571  54.4264030  75.9790802  21.5905285  34.4895821
  75.5885086  21.7184467  35.3540611  76.1560059  22.4764462  34.1732254
  50.4747124  54.6326790  53.0634193  49.5424118  54.4351387  53.1530075
  50.7789497  54.0440865  52.3726006  25.8839130  10.1839247  78.1152344
  26.0081024   9.5952692  78.8597412  25.2948265   9.7083483  77.5295410
  32.2129173  38.4634056  72.8688889  31.5083599  38.9923553  73.2431107
  32.2079773  37.6577454  73.3857193  68.8670502  46.3391304  45.1117859
  69.2005539  45.5470543  45.5332413  68.0750046  46.0529861  44.6567955
  48.0287628  65.6649551  74.4303513  47.4750290  66.3946915  74.1526947
  48.7767677  65.6913528  73.8336716  16.5200996  38.5370789  14.9641018
  16.7385063  37.7636185  15.4839945  17.0535660  38.4529190  14.1738081
  52.1021080  55.3863297  24.7938213  51.6781807  54.6700363  24.3211231
  51.4104118  55.7517624  25.3454075  63.8565483  23.1580563  16.0386486
  64.4089127  23.8684063  15.7122660  63.6707001  22.6247387  15.2658195
  14.6752148  28.2182846  80.5147934  14.0595207  28.7635174  80.0250244
  15.3253117  27.9490051  79.8658752  71.0740280  27.5186367   7.4747944
  71.4450989  28.3953819   7.3755221  71.4787521  27.1760864   8.2717199
  25.6802502  67.5478668  50.5053482  26.0847340  67.0386810  49.8029518
  25.6610451  68.4444656  50.1707230  68.5946350  16.3540859  48.3889618
  69.3166275  15.7299652  48.3152695  68.1584549  16.3173485  47.5377083
  47.4962845  13.1611061  20.0813046  48.4425354  13.2996435  20.1219597
  47.3488579  12.3638763  20.5901489  84.1967239   8.6884985  45.8199921
  84.6938248   8.6236944  46.6354218  84.5465012   7.9875789  45.2699013
  63.9814453  68.5476761  43.1734123  63.1578865  69.0341644  43.2097168
  63.8080597  67.7460632  43.6669540  67.2386932  21.1334743  53.5525208
  67.3103714  22.0125504  53.1806068  67.4829865  20.5491219  52.8348274
  19.4257622  64.1888580   4.8121758  19.1752148  63.2766037   4.6664205
  20.3639870  64.2125549   4.6240134  48.9406967  69.6865692  82.1179733
  49.1032791  68.9329987  82.6853638  49.7729874  70.1591187  82.1030350
  18.3767719  30.3861008  83.7907181  17.6805248  30.3647652  83.1342010
  19.1472092  30.0485897  83.3338318  19.6652946  62.9502068  80.7547073
  19.1326962  62.1956215  80.5033646  20.4153442  62.5718155  81.2134857
  50.7983017  67.0389175  15.8295460  50.6734695  66.1013489  15.9765968
  50.3904800  67.4567108  16.5880699  21.3818722  62.6727791  69.7838974
  21.2053719  61.7385330  69.8946075  22.1753349  62.7049408  69.2494659
  83.1599731  25.2305336   2.7942560  83.5718307  24.9268303   3.6031849
  83.0293579  24.4347630   2.2785816  44.7135925  50.1793289  22.4518757
  44.3789177  49.4883308  21.8802567  44.9002304  49.7360840  23.2794838
  38.7977257  59.3583984  33.6134796  38.1720963  59.2205315  34.3246880
  38.5579224  58.7074089  32.9539833   1.9805979  61.3124542  66.3304443
   2.8140824  60.8417854  66.3327255   2.1248493  62.0578194  66.9134140
  42.8557320  13.7383986   9.6698742  43.2264977  13.9342527   8.8094053
  43.0607414  12.8146467   9.8143892  78.0710373  11.7237482  31.8728123
  77.6590042  12.5335073  31.5715656  78.5177994  11.3801327  31.0991421
  47.8100014  68.6090622  28.0104351  47.4558296  68.7937775  27.1405659
  47.5906906  67.6907883  28.1682873   9.8719101  38.3582687  44.7743454
   9.6381044  38.9809723  45.4626808   9.0410357  37.9535446  44.5251923
   9.8435020  66.6974335  51.2911911   9.1977329  66.4659195  51.9587402
   9.9392500  67.6465988  51.3695564  13.5283689  62.6433678  50.9113655
  13.2253675  62.9018707  50.0409660  13.1938820  61.7540054  51.0270691
  27.7874374  67.6381226  42.4905777  28.2714863  67.5100250  41.6747818
  28.1802540  68.4182205  42.8821945  59.3377609  29.6699638  14.2325726
  59.5248451  29.7125854  15.1703444  59.3402290  28.7344208  14.0301275
  79.7288437  13.2762642  39.8685455  79.1172333  12.8430595  39.2731400
  80.4953995  12.7031946  39.8831329  70.1484756  13.9921532   8.3336077
  69.2817688  13.7002716   8.0510187  70.1228561  14.9444113   8.2399063
  45.0662193  51.3272171  38.3810883  45.0587463  52.0439072  39.0155411
  44.2078934  51.3714027  37.9597130  85.8529129  19.1944618  65.2897339
  85.6384888  20.0816536  65.0013885  85.2790833  19.0413284  66.0403976
  31.9992638   3.8594682  32.6809082  31.7044601   4.7672415  32.6083107
  31.3854237   3.4566839  33.2950706  46.9430695  55.9821320  24.0458107
  47.3670158  55.9583130  23.1879444  47.0794220  56.8774986  24.3555794
  17.7730408  10.7006588  25.8632030  18.2567081  11.4793911  26.1386547
  18.3613472  10.2569695  25.2522449  78.2276840  33.2058563  13.5737619
  79.1348190  33.2274475  13.8785105  77.7431107  33.7089272  14.2282372
   0.8267564  29.9325085  10.6445332   0.8774605  29.9857578  11.5989046
  -0.0098167  30.3430634  10.4258499  37.6317711  54.4273567  28.5732422
  38.2162399  53.8516960  29.0664368  36.9693604  53.8405304  28.2084427
  78.9611816  32.9995804  46.8269272  79.2166138  33.9183121  46.9100990
  78.0537643  32.9748421  47.1305962  20.6102943  60.9060860  62.7352562
  21.4288177  61.0944595  62.2761650  19.9440975  60.9087067  62.0479355
  81.0763397  24.7768898  46.8492622  82.0310135  24.7773113  46.7797813
  80.7845688  25.3539467  46.1434937  12.2883816   5.1023417  62.6339035
  12.9494600   5.7779670  62.7846947  12.7491779   4.4215803  62.1435318
  49.1789894  17.6903934  74.8903656  49.2927666  18.5626335  74.5128937
  48.8791542  17.1502533  74.1592102  39.9550896  20.0816402  17.4090137
  40.0614471  20.8787193  16.8898010  40.4081078  19.4054337  16.9052773
   1.4369036  13.9050474   1.5253789   1.8748111  13.0964069   1.2597317
   2.0641317  14.3379774   2.1045060  10.6493702   7.7955565  16.6358337
   9.8682451   7.2658763  16.4761028  10.4378328   8.3042994  17.4185638
  83.9231720   3.2152660  54.9544487  84.5432816   3.9049947  54.7178650
  84.2800903   2.8377402  55.7583885   8.4486933  69.3527603  52.1027946
   8.9159298  70.1779633  51.9725533   7.5806341  69.6148376  52.4094238
  17.4946079  48.9470482  64.9005508  16.9970055  48.3227806  65.4286728
  17.8663864  48.4197617  64.1934586  55.1919708   6.1328301  35.3452530
  56.0047569   6.5357246  35.6506767  55.3226318   5.1948328  35.4842453
  65.5445251   5.1876183  83.1396942  65.0974731   5.9880619  82.8646164
  66.0017853   4.8867316  82.3544464  55.0488930  31.7913399  29.1661835
  55.9520760  31.4795780  29.1087208  54.8076897  31.6589489  30.0829849
  36.3419342  57.4742393  38.5410881  36.3255463  57.3013802  39.4824104
  36.6556931  58.3756371  38.4685287  31.8711529  39.6471214  12.0857573
  31.0910263  39.3060036  12.5231028  32.5473175  38.9913940  12.2562208
  74.9753036  59.6256256  12.1391850  74.7920837  59.6075706  13.0785122
  74.3435593  60.2508545  11.7839098  30.4252281  58.0140572  75.4428864
  31.1387119  57.9292564  74.8104477  30.6972637  57.4737701  76.1847229
   2.1626813  60.4202194  18.7308350   1.8675658  60.4794159  17.8221912
   2.5133500  59.5332222  18.8114662   2.0259182  53.5470276  40.7278595
   1.4755415  52.7746849  40.5982285   2.8383710  53.3426170  40.2648582
   7.1485510  29.5869045  20.9319611   7.4166698  28.8200722  21.4382343
   6.5979466  30.0896568  21.5322170  19.0941963  67.0182266  62.4957237
  19.9098969  66.7991409  62.0453186  18.4691010  66.3595200  62.1930809
  84.3701477  16.1807537  17.2992287  83.4524002  16.1017876  17.0389538
  84.7942352  16.6080551  16.5550575  17.9406395  47.2508965  22.9443207
  18.2542992  46.4628944  22.5005817  17.1603889  46.9640541  23.4188328
   3.8450050  25.8677483  34.0427818   3.7485199  25.0731659  33.5178452
   3.2237144  25.7563248  34.7623749  70.0343094  56.7654037  71.3095322
  69.6074677  57.0637703  72.1126556  69.5161057  57.1534805  70.6044846
  84.5396500  43.9111252   5.3835297  83.9574966  44.4190407   4.8184161
  84.0115585  43.1622276   5.6601262  16.5332394  54.3723335  24.4553375
  16.6331234  53.7023392  25.1316223  15.8038816  54.9125938  24.7592926
  46.7648239  42.3127441  10.6904650  47.3483620  42.7505379  11.3101845
  45.8997879  42.6774139  10.8774328  83.8706360  50.0433655  73.0757294
  84.7167816  49.9006157  73.4998550  83.5434647  50.8560410  73.4614105
  16.6686535  65.3864822   4.7052121  17.5284271  65.2014999   4.3273182
  16.8601589  65.7487030   5.5702858  76.3199234  59.5949440  60.7604523
  76.7131882  59.0076447  60.1149597  75.5518723  59.9568176  60.3184395
  51.3965721  54.6243095  66.9992523  51.2192574  53.9705200  66.3229828
  51.5108414  54.1144180  67.8012390  34.7112885  65.0352936  18.6672592
  34.1268921  65.7631912  18.8791294  34.1510162  64.2600327  18.7032623
  77.9875793  21.5180492  87.4855347  77.6063004  20.8685551  86.8947601
  78.4669724  22.1135483  86.9095154  81.2379837  64.0776443  57.2045670
  81.0785065  63.2791481  56.7013702  81.2530212  63.7870827  58.1164780
  32.9635963  22.6135178  30.2281456  33.2411613  23.4363861  29.8255577
  33.7792320  22.1929989  30.5004311  18.2365932  28.3452568  11.4268875
  18.1625996  27.3989296  11.5502586  18.0991516  28.4759521  10.4886656
  17.2660961  16.2719173  63.6274452  17.5368767  15.5448112  64.1880035
  18.0811634  16.7260895  63.4138451   0.7220131  35.2313156  75.9246902
  -0.1805159  35.4067001  75.6583939   0.8381572  35.7401428  76.7270889
  81.3859787  31.4678917   3.5823607  81.6896667  30.6690121   3.1513216
  82.0763016  32.1088791   3.4126177  50.7982407  13.7934818  73.5026093
  50.1373215  13.2532339  73.0695343  51.6188240  13.5632725  73.0668640
  65.7325821  29.4978485  84.3091736  66.6353989  29.6471252  84.5900116
  65.7934265  28.7801933  83.6786957   6.3470550  36.8982620  23.1181011
   5.5706301  37.2260323  23.5719299   6.9376888  36.6256561  23.8202915
  12.1134567  46.1256828  70.7880402  12.8249254  46.0086098  70.1584854
  11.7188988  46.9647446  70.5502701  50.5804482  57.0787773  51.0049210
  50.4404907  56.9153023  51.9376183  50.5887070  56.2079201  50.6077194
  37.1614761  11.1911364   0.1695508  37.3984146  10.2743883   0.0293189
  36.2043839  11.1916685   0.1838211  27.6729298  33.9441452  25.1019840
  28.1486549  33.5697670  25.8434391  27.8615952  34.8815804  25.1450653
   3.3264856  42.2870750  30.7210197   2.6396229  42.9412346  30.8495903
   3.7651978  42.5558968  29.9138660  83.8329697  51.9843712  36.5890579
  84.0577011  51.2038040  37.0954552  82.9209671  51.8487282  36.3319778
   7.2817836   9.5286331  31.2870789   6.3331976   9.4891748  31.1651783
   7.6256824   8.8439617  30.7133274  82.7941055  66.4172745  83.8916168
  83.6905899  66.2373505  83.6084518  82.8560867  66.5031357  84.8429413
  60.5942688  45.5065842  56.0682259  60.0612984  45.0545883  55.4141045
  59.9599533  45.9688683  56.6161041  65.2189178  55.5246086  87.2725449
  64.2783203  55.3507423  87.2368164  65.3721695  55.8303947  88.1665497
  77.0630722  22.4729538  26.6097412  77.1093445  23.4072838  26.8125210
  76.5579834  22.4287968  25.7978497  32.1197205  57.9663734  58.6995888
  32.0098991  58.5891495  59.4181442  31.5866108  58.3236580  57.9893951
  52.5919418  22.4683685  21.7881031  52.1268921  21.8320503  21.2449112
  52.2983971  22.2819176  22.6798992  55.1685104   8.5651979  84.1878586
  54.3625717   9.0533037  84.0192032  55.6984558   8.6990080  83.4020538
  68.0903549  56.9750099  34.6136742  68.1338577  57.9068451  34.3991356
  68.2949829  56.5300751  33.7912445  41.4205551  41.7423477  77.4051895
  41.0071068  41.1669655  78.0487900  40.7717667  42.4276161  77.2448273
  19.0093536   8.3123884  37.8377495  19.8437729   8.6595469  37.5223846
  18.9295425   7.4581914  37.4132423  58.9284592  63.5638657  22.4390068
  59.3921432  63.1228142  21.7271767  58.0017242  63.4457359  22.2306004
  75.5897369  35.1086845  76.6276169  76.2915192  34.6604309  76.1555939
  75.4129639  34.5479698  77.3829803  42.1301804  40.5008049  70.0018311
  41.5909081  39.8945923  70.5096893  41.8228683  40.3978386  69.1011734
  60.1474266   4.8306046   7.6043935  60.8085022   4.4011097   7.0614905
  60.4561043   5.7327199   7.6888776  84.7315292  21.2403545  39.3217278
  84.7446060  20.3731689  38.9166985  84.3311157  21.8067665  38.6621208
   1.7975191  33.0858002  48.3522530   1.7142645  33.6759605  49.1012611
   0.9531986  33.1455078  47.9052734  54.4999313  26.2732906  76.9847260
  53.9464493  26.4290066  77.7500000  55.3743057  26.5469818  77.2618484
   7.1517735  10.9646969  85.4890213   7.8571973  11.2065058  86.0891342
   7.5586810  10.9794331  84.6227417  15.0715370  51.0775642  22.8211136
  15.4174423  50.2480240  23.1504230  14.5793877  51.4409637  23.5572929
  37.1399117  20.6178913  17.5568352  36.9516754  20.1357346  18.3620186
  37.9140816  20.1867332  17.1949062  58.3732376  61.5492783  41.5517502
  58.7187157  62.1606674  40.9013062  59.0316620  60.8563728  41.6026344
  57.1577568  45.3656731  34.9051132  56.6127739  44.7195473  35.3542786
  57.0152893  46.1781921  35.3906517  65.4507294  30.8546257  86.9785080
  65.8622284  30.7965012  86.1162262  64.5119476  30.7990265  86.8001251
  54.7610664   7.8052144   7.7683969  55.0760651   7.0234284   7.3147264
  53.8094940   7.7034879   7.7883286  21.8509827   8.1153316  26.6855049
  21.9178333   7.2084022  26.9842415  22.2661324   8.1146231  25.8230190
  77.2803726  35.3721161  23.1198788  77.5229874  34.5112610  23.4609108
  77.1630096  35.2330742  22.1801319  11.1239796  37.9083214   2.0512018
  11.6580086  38.6070518   2.4291172  11.0761881  37.2445984   2.7392554
  20.5953350  70.9722366   3.5404932  20.6348648  70.2375488   4.1527829
  20.9420586  70.6198425   2.7208388  45.3711739  52.3166809  78.4482803
  45.3430824  51.7502136  79.2193604  46.2420044  52.7131958  78.4739838
  60.6586876  17.0641060  31.0896587  60.6496735  16.9827671  32.0433540
  61.4196091  16.5535736  30.8129177  53.4090385  50.2449150  56.3196487
  53.6620483  49.9813232  57.2043724  54.2023125  50.6314888  55.9488335
  85.2187653  66.2702408  82.0642242  85.7315598  66.9466553  82.5066605
  85.8171310  65.5269241  81.9889297   4.8283024  65.2881393  14.1077909
   5.5240002  65.8293381  14.4810686   4.0581331  65.8565216  14.1049309
   2.6722093  48.5377121  52.6712379   3.5785294  48.8361931  52.5955658
   2.2303123  49.2344551  53.1565323  46.1865578  57.6412849  32.2186584
  46.2998810  56.7162628  32.4371109  45.5086632  57.6464920  31.5428905
  54.2970963  39.4148788  19.3105717  54.4153404  39.7027245  18.4053669
  55.1769371  39.4398727  19.6867180  17.1952305  70.3693771  41.1094971
  17.3370495  71.3113174  41.2036972  16.2524853  70.2820053  40.9686852
  20.4064426  39.9748535  32.6848564  21.3207264  39.9008522  32.4112816
  20.4183636  40.6256599  33.3866692   0.4792633  52.5791473   2.8773420
  -0.4274037  52.5067291   3.1755745   0.6854421  51.7132950   2.5251765
  71.4837341  48.8912468  12.5718946  71.8926544  48.2487488  13.1517286
  71.5659866  49.7224083  13.0394831  63.3661194  26.1731396  50.5368347
  63.0044861  26.3269196  49.6640205  64.0738525  26.8123646  50.6188927
  17.6924915  47.0871696   3.4069021  17.3230953  46.9158173   2.5406365
  17.0850239  46.6647301   4.0141568  64.3738937  15.4003601  84.4857712
  64.1172409  14.6811333  85.0628891  63.9498138  15.2007580  83.6511765
  75.1754684  20.2201786   5.0105934  74.5621796  20.7803497   4.5348601
  76.0129929  20.3500137   4.5657034  72.0469055   2.0310509   5.1295872
  72.8489914   2.4674354   5.4167409  72.2602539   1.6833619   4.2636604
   2.8508673  36.3436737  57.6659241   2.0537026  36.5485573  57.1772728
   3.0090339  35.4164886  57.4883156  12.9614182  11.0983486  74.3878021
  12.6138649  11.0783148  75.2794571  12.9287252  10.1868305  74.0974655
  40.0640106  50.0050812  73.6155701  40.3673248  50.8876228  73.4026108
  39.9197273  49.5897293  72.7653351  42.8977127  31.2521782  79.3797150
  42.6478081  30.3319016  79.2968292  43.7019348  31.3291454  78.8663559
  25.4208374   4.0329661  43.6240234  25.3217716   4.6336050  44.3627052
  25.3936424   3.1613607  44.0187340  37.9214745  20.8367481  89.0070801
  38.7929039  21.1969223  88.8424149  37.5163116  20.7847347  88.1414185
  78.9066315  15.6893911  82.2448654  79.5816193  15.0732365  81.9602966
  78.0957413  15.3467531  81.8689880  67.5383835  30.3022385  54.6800652
  67.2620316  30.7554951  53.8835564  67.4123154  30.9454403  55.3776550
  13.8583384   3.1677933  18.9787140  13.4242477   3.4207511  18.1639690
  13.7544260   3.9277039  19.5514011  68.1195221  42.2989540  67.2752838
  68.9501801  42.6557198  66.9607239  67.9387360  42.7860718  68.0791855
   5.4231849  33.7435989  50.8340836   4.6683073  33.2573433  51.1656609
   5.2145405  33.9124603  49.9152870  15.4352150  20.2054138   6.0073380
  14.8106785  20.9307652   6.0144191  15.5248442  19.9575329   6.9275303
  60.1680183  61.5209961  12.5694466  59.8077316  61.8736801  11.7557878
  61.1002693  61.4029312  12.3872356  66.1225204  41.9201546  14.7066069
  65.9099045  42.8135719  14.4367390  66.1763382  41.4287567  13.8869324
  57.9281387  45.2271652  38.5165977  57.6557159  44.3431625  38.2705154
  58.5304260  45.4942017  37.8222122  58.1459770  59.1164818  24.9588261
  57.5061264  59.5610504  24.4027863  58.8529854  59.7527390  25.0662689
  75.4345703  36.8782158  69.2029800  74.5624008  37.1961937  69.4363022
  75.7993851  37.5662498  68.6464157  83.7520142   7.4947391  29.7982941
  82.8654785   7.3556371  29.4652100  83.7471771   7.0931582  30.6671677
  34.9280281   0.5860762  20.2400894  35.2316704   1.4353369  20.5606956
  35.4607773  -0.0530155  20.7133446  67.0866394  45.0623093  10.8958206
  68.0358734  45.1123314  10.7832165  66.8553085  44.1846390  10.5918217
  24.6131973   3.4365256  74.6904678  24.4761105   4.2871962  75.1073608
  23.8092308   3.2802553  74.1950455  68.7750854  51.8678055  56.3416748
  68.4094391  51.4137115  55.5825081  69.2820663  52.5887451  55.9682541
   3.6755574   9.9708529  69.7884064   4.3877077  10.2159719  69.1976547
   3.3530607  10.8035202  70.1332169  64.6273270  13.1911354  77.0545273
  64.5983353  14.1445894  77.1339951  64.4717789  13.0234251  76.1250610
  11.2194376  14.4253998  14.6254644  10.7779264  13.6273441  14.9159908
  10.5116873  14.9933634  14.3209333  63.2883148  19.8237495  10.9332695
  63.2704506  20.0260048  11.8686876  62.4996758  20.2383804  10.5834665
  15.8673677   8.5123978  71.4201813  15.8688984   8.6901379  70.4796295
  15.0988131   7.9587307  71.5580521  62.9015770  13.0207071  33.4141006
  63.3596497  13.7615547  33.0171814  63.5201683  12.6729231  34.0564575
  84.6383133  18.7495632  45.6800804  84.1574631  18.6961479  44.8541527
  84.0992203  18.2621918  46.3030434   9.3787746  17.3217602  29.0384693
   9.8952684  16.5666523  28.7569046   9.4329929  17.3061581  29.9940052
  65.3475494  33.7281456  42.5977669  64.5707016  33.3607597  43.0193825
  65.4167557  34.6140862  42.9535103  64.2996674  58.4367638  61.4385109
  64.3215790  59.1006927  60.7493477  64.7874069  57.6978111  61.0747871
  14.2833252  56.3081474  83.8891830  13.5439100  56.9046021  83.7719727
  14.1040812  55.8644829  84.7182007  85.2386398  44.9330368  80.1541138
  85.5556717  45.8041916  79.9157639  84.8640366  45.0452309  81.0277939
  39.9476051  52.5554085  41.7851334  40.7027397  52.2868195  41.2618179
  39.4234428  53.0926628  41.1911278  82.8770676  66.1810837  76.8611832
  83.7525635  66.0124130  76.5129318  82.6794815  65.4117813  77.3953781
  13.9390745   1.4238801  63.7803612  13.5194817   0.6682853  63.3689613
  13.2496576   2.0864873  63.8238068  82.7684479  55.1715279  84.1491928
  83.5854568  55.1919937  83.6508789  82.0912933  55.3869476  83.5078735
  13.3803368  13.4222183   0.8756063  13.3696432  13.1749725  -0.0490486
  14.2468691  13.8056564   1.0109974  32.8189278   2.9928136  29.5903034
  32.6269913   3.3759804  30.4462109  32.3574600   3.5544517  28.9675331
  47.8052330  38.3987808  67.2458725  47.3877411  38.8897552  66.5381393
  47.0974464  37.8789368  67.6267014  69.4600525  56.8866920  43.9591103
  69.7822037  57.1598053  43.1001205  69.4308395  55.9311371  43.9112396
  49.2857933  69.6501465  46.1249199  49.9107437  69.6142273  46.8490562
  49.1258774  70.5845795  45.9926758  82.5907745  38.3773155  55.8916855
  82.7488937  38.0891113  54.9927025  81.6419067  38.4924812  55.9428978
  46.6714439  59.0270348  76.2967987  46.7269745  59.3514175  77.1956482
  46.0814857  58.2751045  76.3495483  52.8328133  22.1571598  73.9104309
  52.8778114  23.0181217  74.3263016  52.0848885  22.2170563  73.3160782
  15.2665472  17.4694595  66.7480316  15.3439341  17.5169468  67.7009125
  15.4582539  16.5556126  66.5374069  10.8484545  39.7062988  24.8899345
  10.0893002  39.8185577  25.4620476  11.5717688  39.5141487  25.4866982
  72.1582642  14.2742558  41.6244316  72.8294907  13.5918646  41.6186867
  72.0156403  14.4621153  42.5521164  50.6536407   8.3482428  28.7210846
  51.3314095   8.3980312  28.0470047  50.0337105   7.6984582  28.3898792
  78.6557236  45.1738853  50.3828163  77.9143600  45.7709541  50.4833641
  79.0463562  45.1279831  51.2554741  20.9904118  71.3689117  15.3832016
  20.1326370  71.2720184  14.9696007  20.7955894  71.4967499  16.3116055
  21.7129211  10.0802984  86.2800446  20.8477116   9.7393913  86.5068207
  21.5330219  10.8572598  85.7507095  35.2734680   3.8460412  24.4053173
  34.9047089   3.1995428  25.0072212  36.0736771   4.1457996  24.8366413
  78.3155060  15.2337866  62.6973724  79.1282120  15.1224155  62.2040825
  78.5315323  15.8766088  63.3729057  48.1328316  24.8036022   5.7376575
  48.3403893  25.3946247   5.0138869  48.9855919  24.5257835   6.0720997
  74.9927902  66.1303482  52.0966873  74.0882187  65.8210449  52.1448212
  74.9975891  66.9375763  52.6110687  63.2770119  28.9971581   1.1204827
  62.9466820  28.5958843   0.3166829  62.6171875  29.6514378   1.3502330
  82.7925110  46.0449104  85.3303604  81.9209442  46.0919418  84.9374466
  83.2004776  46.8820724  85.1091080  36.4816971  53.6616211  51.9810905
  37.2023544  54.2654648  52.1606903  35.6914787  54.1827393  52.1233025
  25.5726376  13.0397367  74.7916641  26.3411922  13.6073723  74.8495026
  25.9118061  12.1598740  74.9561005  38.9001656  14.4728546  84.6007767
  39.7693710  14.4917984  85.0012207  39.0694160  14.3501186  83.6666870
  74.2857513  56.3860703  48.9954109  75.1260986  56.2071304  48.5734749
  74.5191803  56.7381058  49.8543701  53.1942673  50.6439629  89.1855164
  52.5443420  51.2126465  88.7726822  53.1931343  49.8506737  88.6498642
  56.3861771  34.4797745   1.8710560  57.1308823  34.3325691   1.2879792
  55.6233025  34.4673500   1.2930431  21.8828583  14.8345432  23.4805470
  22.3248386  15.6820364  23.5319214  22.0741673  14.5177689  22.5977745
  51.6335487  20.3973598   9.4779406  51.6092873  20.7086697   8.5731039
  50.7131691  20.3139572   9.7272949  70.4280014   7.3970485  72.3357391
  69.9919891   7.0778360  73.1258163  71.3586044   7.3987575  72.5598145
   5.5440536  13.3645992  80.9374390   6.4305654  13.7253075  80.9522247
   5.2008271  13.5366211  81.8142700  75.0522614  49.7244110  58.1480103
  75.2098999  50.5579491  58.5914001  74.7999344  49.1239624  58.8494530
   1.0621755   6.4895759  89.0742035   1.7682401   6.2498150  89.6743851
   1.3997469   6.2676396  88.2064362  44.3677063   5.1028361  37.9947052
  44.6832237   6.0065403  37.9939194  44.6840286   4.7379885  37.1682281
  77.3455811  63.9561348  70.4502335  77.1627274  63.3719902  71.1861420
  77.8810043  63.4313126  69.8551483  47.8013420  64.6419373  23.7326965
  47.0910721  65.0950546  24.1870441  48.3213196  64.2484283  24.4334164
  64.2467422  63.0281944  30.1223965  63.7789345  62.2291298  29.8797474
  63.8808594  63.7029686  29.5505219  57.7699928  13.0051088  51.0595360
  58.3440819  13.0201206  51.8253212  56.9691505  12.5817652  51.3688316
  41.9852142  55.0047874  46.9495773  42.6167641  55.1235390  46.2401619
  41.6561661  55.8859100  47.1273079  83.2134628  42.0984459  43.4329338
  83.4942322  42.9312439  43.0536613  82.5761108  41.7532997  42.8077278
  50.1116982  48.1785316  20.9040051  50.7259560  48.8860550  21.0997810
  49.5519180  48.5318108  20.2125759  77.2987137  34.2854233  26.3886013
  78.0835266  34.4892082  25.8799133  76.6390533  34.9004478  26.0679340
  59.5982475  34.0090179  11.3572598  60.4388504  34.2155190  10.9486275
  59.7807236  33.2487793  11.9095001  41.4749756  51.4777374  17.9539528
  41.3059502  52.2514229  17.4162979  42.1858673  51.0228767  17.5023289
   1.9685221  70.4068527  63.0238533   1.5661899  70.9111252  62.3166962
   2.2350793  71.0650101  63.6657333  56.0746078  54.0498085  52.6995277
  56.9803162  53.8224564  52.9098663  55.8490562  54.7383575  53.3250351
  32.0268478  59.2549934  81.1638260  31.7349319  58.5282059  81.7140961
  32.7996941  59.5990791  81.6116486  56.5107422  17.8225231  17.8852348
  56.8588638  18.3534470  18.6015873  55.7766838  17.3470955  18.2742844
  10.0667849  30.4140778  78.8964996   9.7956715  29.5101719  79.0567627
   9.8995800  30.5525761  77.9642487  61.2657700  14.1940546   5.2463279
  61.7183762  13.3809242   5.0222769  60.3545380  13.9324141   5.3783512
  13.2639151  17.2094746   3.5320780  13.6993408  17.4503002   4.3497815
  12.7397203  17.9774170   3.3046696  40.9470139  66.1753693  13.6678667
  40.6534424  65.8920670  14.5337706  40.3207092  66.8526306  13.4123459
  77.7393723  31.7111435  26.4584389  77.9503326  31.6819782  25.5252304
  77.6279526  32.6423759  26.6498184   8.8250523  50.8894882  27.2326012
   8.0951452  50.2731590  27.1725540   8.4906082  51.6958046  26.8398705
  44.9953842  19.4372063  23.9551296  45.1287231  19.8420124  24.8122082
  44.3685493  18.7323914  24.1180496   7.5069742  43.2895393  71.0883331
   8.3667774  43.1225662  71.4744492   7.1750231  44.0514488  71.5632401
  29.2032661   5.3706412   8.1670532  29.0513058   5.2933688   7.2251568
  29.0964336   4.4798813   8.5007687  47.2538033   5.1644311  44.2831764
  47.5203285   5.2108088  43.3650017  46.3189163   4.9614639  44.2512436
  75.0076752  17.7322807  13.3411646  74.6295242  17.3196259  12.5646677
  75.2561722  16.9995918  13.9047689  36.7750893  68.8406906  76.3024750
  36.1748657  69.4020615  75.8117371  36.6063004  69.0540771  77.2201920
   0.6481237  35.4380264  89.2061005   0.5662676  34.5404434  88.8837967
  -0.0402754  35.9205742  88.7484055  11.5093117  33.2159119  14.8437357
  11.7014980  33.1120796  15.7756777  11.1460876  32.3709602  14.5784969
  43.7701645   6.7178593  23.3392162  44.4000740   6.4543538  24.0100460
  43.8808022   6.0732064  22.6403484  19.0498810  70.8073883  48.0340767
  18.6162968  71.5044327  47.5417747  19.4756794  71.2582932  48.7631950
  84.8232117  30.3991337  12.8723898  84.9541550  30.5755997  11.9407549
  83.8725128  30.3647137  12.9783287  41.5379105  50.1952133  53.0825005
  41.7895393  50.9674225  52.5759354  42.1802597  50.1537514  53.7909470
  10.3581009  14.1646032  39.4070435   9.4856281  13.7735472  39.4528465
  10.5209742  14.4911289  40.2919655  75.5032959  47.7543640  19.9979649
  75.8787689  48.6338272  20.0402889  76.2612839  47.1729813  19.9373665
  35.6907349  31.4608097  79.4976807  35.1884575  30.9058609  80.0943222
  36.3529015  30.8769112  79.1277695  79.0541000   3.1456602  85.6146088
  78.6926575   3.3955338  86.4649887  79.0842819   3.9631748  85.1176224
  17.1776543  58.6665001  18.6896954  17.7598534  58.8087082  19.4360561
  17.4114819  59.3563576  18.0686855  52.9367104  62.8553581  16.6343079
  52.4142380  62.2315636  16.1301880  53.8200912  62.7734222  16.2749233
  65.2198868  24.1838036  65.8752823  64.3917313  23.7640839  65.6424179
  65.3463745  24.8533993  65.2030640  63.7979240  11.4413557  37.4217453
  64.6590958  11.1296558  37.1434212  63.2396240  11.3201656  36.6537323
  -0.2133766  33.6522408  46.5912399  -0.1325494  34.5398102  46.9404106
   0.6215779  33.4907303  46.1519241  52.0413742  47.5623512  57.7575455
  52.4655533  46.8222923  58.1918488  52.5466843  47.6906624  56.9547806
  12.1974716  63.5208778  57.4301834  12.3351450  62.5998993  57.6517220
  12.9671001  63.7607040  56.9140549  51.2378502   9.7156963  77.9498749
  51.4851494   9.9397316  77.0527191  51.4687233   8.7909584  78.0381317
   1.0793738  28.5099220  37.5419579   2.0153761  28.6759243  37.6540947
   0.9275099  27.6798801  37.9938431   4.2692060  43.1018448  28.4490623
   4.9578295  42.5007401  28.1649799   4.5151191  43.9449158  28.0682869
  11.0096455  22.4997425  10.7165117  10.6399889  22.3716068  11.5901060
  10.3254862  22.1958637  10.1200085  71.6261063   8.9566927   6.4360909
  72.5000916   9.1672831   6.1074033  71.4064255   9.6855145   7.0164285
  78.3355484  15.5462227  28.2521210  78.6606750  15.5321217  29.1523037
  77.5495300  15.0003510  28.2727795  41.6023254  63.9814606  11.5886364
  42.4565849  63.6021042  11.7949419  41.4951363  64.6897125  12.2235594
  80.7767639  58.3165054  64.7831650  80.5229111  57.7526054  65.5137939
  80.5181732  57.8274078  64.0020447  64.2721939   4.1498771  28.1771507
  63.9480591   3.9841120  27.2918873  63.4944305   4.0907688  28.7319679
   5.7960062  51.3417168  29.2414227   5.3183961  50.8008690  29.8703938
   5.6200409  50.9345665  28.3931923  60.8663788  31.3553562  16.9693069
  60.2455864  31.6300621  17.6441288  61.3161240  32.1612206  16.7152576
   9.0614195  11.5950575  87.6357040   9.6520185  12.3482399  87.6237946
   9.6306810  10.8471518  87.8168411   9.7179213  52.7226639   7.9499106
  10.0016670  51.8466606   7.6884933  10.5053549  53.2617340   7.8751807
  14.8952646  47.0761757  56.6900940  15.5625229  47.3054733  56.0432396
  15.2136469  46.2645569  57.0852432  43.6626320   5.6381612  55.8631592
  43.3133812   6.1374879  56.6013489  43.7240105   6.2747889  55.1510010
  73.7140579  44.1613426  24.8192139  74.5415573  44.5632248  24.5546932
  73.0478439  44.8062859  24.5816517  62.1368637  29.2557278  23.4732437
  62.5945511  29.3917542  24.3028526  61.2245789  29.1105042  23.7240067
  51.8080673  71.6151352  34.9266663  51.3944473  70.8184738  35.2590485
  51.8204308  72.2094955  35.6768761  67.1127701  61.4403419  50.3810768
  67.0953140  61.1371689  51.2888298  67.6311493  60.7818604  49.9185677
   1.1552335  61.1775780  56.4746552   1.6428109  60.9206886  57.2572861
   1.8307378  61.3874741  55.8297768  61.1328888  47.9777260  44.0236130
  62.0423050  48.0652885  44.3091469  61.1756668  48.0289536  43.0687447
  64.1339111  63.1994476  35.4846230  63.3779831  63.1305962  34.9014664
  64.0993118  64.0965347  35.8166885  51.2780037  70.4788208  83.4406586
  50.7727623  70.6297760  84.2395172  51.9075203  69.7987442  83.6803284
  83.6181259  30.7369671  65.0583801  82.9948196  31.1126862  64.4366455
  83.5472870  29.7915058  64.9267883  30.6100464  70.3556519  86.7165909
  31.4754658  69.9587250  86.8152466  30.6840305  71.2034531  87.1547546
  13.5182161  69.2206116  44.6272011  12.9818449  68.5288544  45.0145035
  13.3705740  69.1389771  43.6849861  45.8423271   7.3566523  18.6484680
  45.4319382   8.2197323  18.7023926  46.6963272   7.4710412  19.0653973
  81.3320465  68.0634155  31.2748489  81.5242310  68.9876175  31.4334354
  80.8054886  67.7956161  32.0280113  80.8016815  61.8474236  82.7526703
  80.7986374  62.6348572  82.2084503  80.8148346  62.1772881  83.6511459
  52.8434753  58.7094994  39.2783241  53.1300468  59.4821053  39.7653427
  53.6114044  58.1383247  39.2618217  62.9872208  47.7189484  66.4580002
  63.8942795  47.5292854  66.6977997  63.0126495  48.6107025  66.1110687
  70.1001892  64.9954910  59.7202148  69.6108322  64.2680511  60.1043892
  70.6472855  65.3202972  60.4353561  44.7701759  63.5978241  55.8204269
  45.1292000  63.3785820  56.6802330  43.8831711  63.2382240  55.8324699
  11.8114958  42.2511673  24.1439095  11.1615610  42.7822342  23.6837082
  11.3021584  41.5535240  24.5563431  20.7299519   2.6973727  80.4802628
  20.8657551   1.7804719  80.7191772  20.1758385   2.6621692  79.7005463
  27.8647461  49.8729630  76.2424850  27.0149384  50.2957802  76.1188583
  27.8968353  49.6684875  77.1770401  46.0173988  66.7391205  63.7082520
  46.0062447  66.6432037  62.7559395  46.5756721  67.5005417  63.8657608
  28.9062271   8.1933870  34.2767067  28.5483913   7.3746090  33.9335022
  29.8511887   8.0451908  34.3130112  13.7016573  51.3238182   7.7511158
  13.8506250  52.1765251   7.3425450  13.3678923  51.5314484   8.6238832
  30.1070538  27.2000561  27.4458370  30.8902454  26.7288780  27.7301483
  29.7211094  27.5337925  28.2557125  35.0699158  58.1230659  51.5365868
  34.2079773  58.4627228  51.2959099  34.9506683  57.7702980  52.4183846
  85.9691467  40.8315239   2.0002887  85.2645721  40.2947617   1.6373930
  85.5755386  41.2623253   2.7590458  50.7814751  19.4499187  88.2507782
  50.1837234  20.1974087  88.2642288  50.2072220  18.6843033  88.2335510
   4.7860074  33.4699478  63.9481087   4.2185378  32.8213120  63.5315971
   4.8902874  34.1557198  63.2885094  52.3811913  45.7732620   9.5834093
  52.1858215  46.6103096   9.1622028  53.3297539  45.6776848   9.4977903
  69.3778076  61.2765579  81.1421967  70.2080841  61.6747322  80.8807907
  69.5477905  60.9182892  82.0133972  85.1594925  17.3500233  14.9384394
  84.3941803  17.1693230  14.3926497  85.5144653  18.1678257  14.5899830
  60.1259003   6.8581686  42.1306381  60.4856834   7.7403784  42.2228050
  60.7885857   6.2874045  42.5196228  81.3135147  55.6200371  22.6422386
  81.8852615  56.3846893  22.7103939  80.5379715  55.8546791  23.1518612
  72.7909241  51.2239151  33.3913269  71.8827057  51.5243721  33.3583908
  72.8010635  50.4325066  32.8529930  27.9725151  52.8913460  32.6583786
  27.7147636  52.0456429  33.0252304  27.6187248  52.8844566  31.7689857
  56.9940376  29.2778740  85.0570374  56.4392014  29.1561069  85.8274689
  57.6642609  28.5989170  85.1348267  61.9061661  24.0903149  59.0320168
  61.3607903  24.2748394  59.7967033  61.4936333  23.3304462  58.6213493
  79.4580307  59.6780205  67.1635971  78.6711426  59.3558426  66.7239914
  80.0749435  59.8526573  66.4528580  21.0364342   0.4853836  56.5235710
  21.7827969   0.8274921  57.0156441  21.3532295  -0.3362762  56.1484070
  47.0495224  68.8033676   6.7727504  47.5870094  68.1331329   6.3506932
  46.2244682  68.7892532   6.2876558  13.3252544  46.1017723  65.2103424
  12.8617048  45.6326904  64.5165787  13.5665636  45.4217873  65.8393326
  49.2923508  31.2157154   6.4187622  50.1708412  30.8864555   6.2288394
  49.0684509  30.8269081   7.2642980  73.9803696  12.5678959  42.4792709
  73.7576675  11.7045612  42.8275337  74.8876495  12.7086048  42.7499733
   0.7402634  24.3549862  55.5991516   0.9976174  24.3076286  56.5198898
   0.1016675  25.0672226  55.5652809   5.9185524  23.9934330  83.3628082
   5.8628659  24.1609840  82.4220276   6.8379569  23.7734318  83.5128937
  10.3241673  41.8422966  14.6506071   9.8749676  42.6673050  14.4667263
  11.0894823  42.0960846  15.1664715  37.0570297  45.3360672  75.5626221
  37.0039368  44.4317398  75.2534256  37.2889481  45.8421898  74.7839813
   2.5704355  37.3576851  67.5248795   2.7535219  36.4444160  67.7454529
   3.1007173  37.5269547  66.7461777  17.1822453  14.2592783  87.7158051
  17.9745026  13.7221260  87.7105179  17.2490635  14.7924271  86.9236450
  64.5208054  24.9063187  71.9705582  65.2951355  25.3234005  71.5928116
  63.8291283  25.0573177  71.3263474  64.2608719  50.9581604  13.9699783
  63.8045044  50.1221046  14.0646868  63.6066170  51.6161346  14.2050323
  39.3792839  46.2929840  22.4998207  38.6179619  45.8695297  22.1032028
  39.0103073  46.8780174  23.1615028  80.9932327  39.1339226  25.7721081
  81.0167999  38.3480568  26.3180847  81.2285156  39.8459778  26.3669643
   5.3560939  57.3967476  82.0600510   5.5123906  56.7099533  81.4118958
   5.4243793  58.2132034  81.5651093  15.1440191  52.9889297  67.5655212
  14.8601837  52.0973587  67.3636017  14.4194469  53.3632545  68.0666275
   3.8265493  19.4821911  65.3057480   4.4784675  20.1764145  65.4021149
   3.0218904  19.9410610  65.0645142  25.1001110  68.8888092  79.8795547
  25.5056953  69.0787048  80.7255325  24.7360420  69.7270737  79.5949402
  68.4434738  58.8165703  41.5692787  67.8888855  59.4206886  41.0756149
  68.8634949  59.3644714  42.2323189  32.6290092  32.6711197  82.6909180
  32.6602478  33.5031281  82.2186737  31.8294048  32.7228050  83.2145538
  14.3312788  22.3249264  84.1525803  14.2240114  22.7895336  84.9825592
  15.2593803  22.0921497  84.1266098  56.8097229  71.0407867  29.6006641
  56.9258118  71.6543503  30.3261261  55.8636169  70.9039383  29.5517845
  73.5672607  45.3273239  72.6779633  74.1357574  45.0519409  73.3971329
  72.6880112  45.0706596  72.9559326  56.9980087  15.3399849  22.1403751
  57.1816330  14.5365496  22.6272087  56.7469482  15.0388374  21.2671566
  25.5733509  31.7332458  61.7438126  24.9045315  32.3107567  62.1117783
  26.1706467  31.5638103  62.4723473  67.3451843  39.6818314  50.3543434
  66.6479874  39.9119072  49.7401619  67.5958099  40.5142555  50.7549553
  37.7268829  53.0726967  32.1938858  38.5680542  52.9717484  31.7483807
  37.9268265  53.6017456  32.9661293  11.3796682  37.3274765  16.4817753
  10.7105427  36.6458893  16.5445595  10.8927021  38.1484642  16.5530128
  52.2043343  53.8285332  80.5541229  51.4206429  53.6405830  80.0376587
  52.9019356  53.9221306  79.9054108  37.4858627  30.8278065  32.0964203
  38.4003906  30.6167583  31.9084454  37.5194550  31.6893368  32.5121956
  24.3547916  24.9502850  81.9977722  25.0651798  24.7217617  81.3983078
  23.7443447  24.2155170  81.9369125  79.5674057  49.8872643  87.3976669
  78.9879990  50.4495392  86.8835068  79.9361267  49.2761955  86.7598038
   2.7488613  37.9425926  59.9756584   2.6492379  38.7997627  59.5614548
   2.7540054  37.3231201  59.2459602  17.3184147   7.5838656  76.3425827
  17.6478939   6.8123674  76.8035278  17.8563251   8.3054514  76.6684647
  43.3693047  15.4285774  25.2949791  43.2136421  14.5010242  25.4728661
  42.6907501  15.8850222  25.7924232  59.7597351  57.9090195   7.3844562
  59.1892014  57.5122375   6.7262111  60.6304016  57.5645027   7.1857700
  85.5265961  35.9054909  20.6366558  84.8344345  36.5484810  20.7906265
  85.3524323  35.5722351  19.7564068  25.2597637  28.2298107   8.3333321
  24.4844742  27.7428627   8.6126900  25.9383907  27.9799080   8.9604244
  53.4891014  54.5901375  64.2267075  53.4080582  54.8383865  65.1475906
  53.6823807  55.4108086  63.7735252  30.0832996  29.5006256  19.0170860
  29.1743412  29.2005920  19.0149403  30.5503273  28.8536510  18.4883709
  62.0956497  13.1013994  67.5946884  62.3225784  12.3390446  67.0621948
  62.7076836  13.7812290  67.3127670  43.3439865   8.4848185  10.7040358
  44.1480255   8.1380739  11.0907173  43.0501442   7.7976627  10.1059513
  52.6516800   1.1234289  67.5754242  53.1193047   1.9511143  67.6872101
  53.3346062   0.4543331  67.6218185   8.4265833  32.7391624  43.4952545
   7.7707996  32.1545525  43.8752708   9.1649361  32.6981506  44.1030273
  33.4229584  70.7587814  66.4428940  32.9726562  70.2498016  67.1169815
  34.1963005  71.1098099  66.8844376  42.6844406  18.6935196   5.9860806
  42.4039040  18.1480980   6.7209597  43.1015396  18.0818481   5.3793559
  68.5346909  31.4840050  69.6612473  68.4783859  31.2928524  68.7250137
  69.0578766  30.7676601  70.0209122   1.5232202   5.7711473  12.2411890
   0.7480926   5.5664587  12.7641726   2.0135956   4.9497633  12.2081385
  26.7813931   9.1079407  67.1424637  27.4519596   9.5988064  67.6174622
  26.9353867   8.1950769  67.3857727  18.8513241  26.7699509  15.2393303
  18.6522579  26.9260712  14.3161669  19.2412529  27.5899601  15.5422668
  66.8593750  18.1504555  49.5780373  67.5920563  17.6063595  49.2893105
  67.2328110  19.0272560  49.6674385  77.1945419  68.4059525  32.4400520
  77.0763855  67.5195007  32.0987625  77.4011612  68.9339600  31.6688519
  36.2043839  66.5795212  52.8171425  35.5893593  65.8706970  53.0056610
  37.0574760  66.1486511  52.7640762  77.3004913  42.4365425  88.1354218
  78.2226410  42.4692917  87.8808594  76.8724899  43.0777969  87.5681152
  67.8830261  23.5451622  52.6272316  68.3283310  23.4646168  51.7837563
  68.3553085  24.2427216  53.0817566  60.9686737  16.5053482  85.3520203
  61.5934563  16.3928299  86.0684128  60.9229050  15.6441813  84.9366531
  11.0174961  28.5309010  22.0678253  11.9163218  28.3528614  21.7909737
  10.4850540  27.9168377  21.5621948  48.2031555  45.1364403  73.2627792
  48.9000053  45.6058197  73.7213745  48.5879707  44.2867813  73.0477676
  62.4432831  63.9172630  27.9156704  61.5001869  63.7551575  27.9384842
  62.7936707  63.2157860  27.3666782  70.9908829  60.8636169  12.6017094
  71.1362381  60.7068138  11.6686935  70.3645020  61.5869217  12.6282911
  41.0863609  -0.0185664  20.4837437  41.0546532   0.1749699  19.5468502
  40.4891281   0.6160346  20.8797512  49.9357605  14.3006725  20.8316631
  50.7316856  14.3799295  21.3574524  49.8834610  15.1263943  20.3503304
  43.7988129   4.9012079  76.7934494  44.6669540   4.9534230  77.1932373
  43.2140083   4.6812944  77.5186234  13.1224413  60.9221077  47.2100792
  13.5266924  60.2035675  47.6964073  13.0983143  61.6488876  47.8325272
  77.5184937  64.5516205  22.1551685  76.9903641  65.2260971  21.7280903
  77.6475525  63.8853455  21.4801502   1.5092026  21.4479332  28.1475468
   2.1198828  22.1749020  28.0258198   1.9944264  20.6761169  27.8558426
  59.7023735  12.1889296  29.3538666  59.8573227  13.1159134  29.5353184
  60.4792099  11.7451458  29.6941833  59.1475067  11.9379187  85.9134979
  58.3390198  11.5682583  85.5586319  59.3776321  11.3579531  86.6393890
  33.3247337  44.8452530  86.4097977  33.2681046  44.6424637  85.4760361
  33.2954369  43.9919014  86.8424225  71.9297485  64.5368958  57.4623413
  71.2136841  65.0206146  57.8740425  72.1710129  63.8715591  58.1068192
  74.7365799  43.5802536  74.7550659  74.6899643  42.6241989  74.7510071
  75.6165009  43.7757835  75.0771408  83.5322876  55.9660759  76.2627869
  83.3927002  56.5349617  75.5057449  83.0006943  56.3560791  76.9567108
   6.3795762  45.7583504  22.1047268   7.1995559  46.1232758  22.4374371
   5.9592757  46.4886169  21.6505337  17.6142387  15.9936619  81.6123047
  17.6376572  16.1603394  80.6700211  16.8288422  16.4484482  81.9165344
  20.0937672  29.0222054  13.4945602  20.6685429  28.2653313  13.6085987
  19.6113625  28.8373547  12.6887398  42.9662514  51.9426537  70.4296341
  43.7908325  52.4282303  70.4521484  43.2184296  51.0345268  70.5967865
  66.8405838  43.9470406  73.6477737  66.6791534  43.0041313  73.6146545
  67.2457657  44.0907745  74.5029907   1.8701137  38.7010002  76.9813843
   1.8743960  37.8406792  77.4009857   0.9857271  38.7898140  76.6261292
  19.8729420  44.3035927  68.5411758  19.4096928  44.8809433  67.9343033
  20.4457073  43.7785072  67.9822006  59.7148705  56.2687607  27.6060791
  59.1919937  56.0275803  28.3707123  59.0694466  56.4841881  26.9328403
  51.7557869  22.7458916   0.7101492  52.4301262  22.6224766   1.3781796
  52.2075043  22.5862331  -0.1185201  44.1632195  44.4588051  29.5502739
  44.9734116  44.0513496  29.8565464  43.4743538  44.0389709  30.0654755
  43.8473244  25.7082977   2.4794931  44.5130882  25.3105278   1.9184513
  43.9372826  26.6491184   2.3278499  41.7822037   1.9633743  13.6263828
  41.6897469   2.1552892  12.6931877  42.5319710   2.4887307  13.9058132
  72.4370117   1.1544989  52.8143234  71.7092819   1.5489695  52.3336563
  73.1185074   1.0265055  52.1544647  22.8435650  11.5550060  73.4368820
  23.3506699  12.3667564  73.4250717  23.3931999  10.9224873  72.9742279
  20.6469193  44.2942467  34.2100945  21.1394501  44.8569984  33.6126404
  20.4846325  44.8432961  34.9771957  44.2631607   0.1929113  37.4967880
  44.8429794   0.9370406  37.6590080  44.5091171  -0.1168057  36.6251144
  28.4452744   4.2951279  85.6220474  29.3978214   4.3675375  85.5616913
  28.1164207   5.0559955  85.1433334  68.0686646   9.4835596  79.5560532
  68.0944519  10.0329008  78.7726059  68.7460785   9.8474112  80.1261063
  30.1820850  69.3639832  75.7054596  29.4235973  68.8679657  75.3974075
  30.2902374  69.0943604  76.6175156  47.5359879  14.8688564  83.0663376
  48.2381783  14.5823002  83.6503372  47.2342262  14.0654650  82.6423950
  67.9167328  47.6606178  71.7580566  67.1611481  47.9356842  71.2387695
  68.6624680  47.7576370  71.1658630  42.6137352  70.4468155   0.8451154
  42.5872192  71.2371063   0.3056963  41.8870316  69.9130402   0.5238343
  65.0366669  33.6241608  50.1547432  64.8114319  34.5237961  49.9177704
  64.4895477  33.4330139  50.9165535  62.2016258  66.4555130  43.9621048
  61.8837852  67.2303543  44.4256096  61.4315338  65.8930206  43.8797188
  35.3153419  53.9561424  46.9463387  34.4132423  54.2741661  46.9824677
  35.8289528  54.7214890  46.6881180   8.2313700  44.8474236  77.7713394
   8.8800602  44.6531639  78.4478760   8.6807442  44.6589432  76.9474640
  73.3463135  58.2606888  86.3021851  72.8447952  58.5307884  85.5329285
  73.0392151  58.8363647  87.0025558  32.5520973   0.5398621  13.2595148
  31.6671104   0.2247588  13.0758266  32.8224792   0.0538891  14.0385885
  58.0168381  19.2843132  83.7649307  57.7731285  19.9804306  84.3750610
  58.9740257  19.2883377  83.7669296  44.1268082  11.7426729  20.5779190
  44.5424652  12.5182295  20.9547100  43.3462944  12.0792322  20.1377430
  78.7855301  51.0131798  46.0074005  78.8872147  50.1124954  46.3150711
  78.4470444  51.4886665  46.7660675  70.0142441  36.0604858  46.2036400
  69.7362823  36.1047897  45.2887573  69.3494415  35.5196838  46.6300201
  76.0230942  29.5173016   5.0092506  75.4147263  30.1028786   4.5584502
  76.4697189  30.0780792   5.6435122  17.3944588  42.6559982  87.8120804
  17.6568527  43.5741806  87.8778076  18.1570587  42.1663246  88.1201324
  13.9802084  65.0291519  60.3663521  13.1846323  64.7504807  60.8198166
  13.6826010  65.6980362  59.7496986  52.3029556  63.3882828   2.2386510
  51.4270020  63.0058937   2.2907331  52.5247459  63.3530388   1.3081672
  78.5395508  64.3876877  40.0643044  78.1847076  64.8251419  40.8382225
  79.4233856  64.7434692  39.9722099  26.7603664  56.5105705  17.7546158
  25.8153706  56.3582077  17.7548294  27.0143738  56.4385605  16.8345470
   5.3056955  10.8344078  42.2442398   5.3998260  10.4225588  43.1031647
   4.7290087  11.5825005  42.3992271   8.4320736  36.1468010  60.4343376
   7.9084573  35.7457314  61.1280251   9.3381691  36.0281868  60.7192116
  34.5869408  25.0359268  21.1232758  33.9524536  24.5651646  20.5828667
  35.4382858  24.7079582  20.8336563  50.9176445   3.0293136  58.7764091
  51.4487991   3.7958591  58.9920807  51.4167404   2.2879484  59.1192093
  32.5585899  50.0010185  75.2358322  33.0069237  49.6021919  74.4900665
  32.2609901  50.8504562  74.9100723  21.7454700  24.4411793   2.4517679
  22.3604431  25.1475182   2.2539651  21.8280659  24.3091736   3.3962171
  71.1006775   4.7544937  35.5686340  71.7788086   4.4993587  36.1941490
  70.5244522   3.9919922  35.5158043  49.0663872  17.0287228  19.7317448
  49.0411301  16.4262619  18.9883499  48.1490173  17.1395359  19.9815063
  59.5844078  65.7165985  51.3034744  59.6777191  64.8226776  50.9741859
  60.0083580  65.7012405  52.1615334  84.5586014  57.5184708  38.1594543
  84.7746201  56.8615723  37.4976044  85.1341400  58.2570343  37.9606628
  74.5950623  53.8663864  86.9946442  75.4400177  54.0816879  86.5997620
  74.5908356  52.9105186  87.0450058  32.1404076  14.2966833  77.2642670
  32.7399864  13.6819620  77.6871719  31.9892178  13.9244566  76.3954620
  61.8597603  33.7782135   9.8672800  61.6136017  33.0452843   9.3029633
  62.5115929  34.2623711   9.3603878  56.4268761  23.1525116   0.8766297
  56.8382912  22.2936516   0.9732146  55.5588150  23.0474205   1.2660617
  84.8825455  19.9056034  17.1238689  85.1312790  19.2208519  16.5030022
  85.6399536  19.9904480  17.7029858   6.5296264  20.3112259   3.9839227
   5.7109427  20.6756516   3.6474974   7.1896362  20.9724159   3.7754877
  53.7965469  58.7363510  45.0453911  53.7334976  58.3935928  44.1538887
  52.9188385  59.0662766  45.2377777   1.9531708  11.4653826   0.2627912
   1.6809181  10.7098665   0.7836624   2.8059638  11.2160282  -0.0932969
  40.8061867  43.6600456  71.7622833  41.2075577  44.3729019  71.2653275
  41.1556244  43.7590866  72.6479034  26.0125408  48.3904533  51.1526680
  25.2549744  48.8146019  51.5556831  25.9151459  47.4645767  51.3751564
  69.1494064  64.2061157  26.2100544  69.5758896  64.2801285  25.3563156
  68.6544189  63.3883438  26.1604309  73.7025757  54.6476402  13.4777527
  72.8352356  55.0123940  13.3019438  74.0518417  55.1903496  14.1846533
  75.3848267   9.6470490  89.1105881  75.8728256   8.8660603  88.8495407
  75.3019180  10.1579323  88.3053818  35.3512192  71.3756561  24.2178345
  35.2895317  70.6039505  24.7807713  35.1584244  72.1117554  24.7985420
  80.3229446  54.9751396  76.2174377  80.6832199  55.1059723  75.3403320
  80.8647385  55.5250359  76.7833939  48.7917404  40.0086823  14.2927036
  48.6119270  40.9311981  14.1114197  48.9261436  39.9724655  15.2397280
   1.2150502  34.6593323  50.7289810   0.9418203  35.5758247  50.6886749
   1.9698007  34.6600838  51.3176956   3.1742213  30.0110283  76.4684448
   2.6440887  30.7211475  76.1066132   3.4157865  30.3144207  77.3435593
  68.6987457  14.8852386  73.5331573  68.3978729  14.7990665  74.4377441
  68.6695938  13.9940290  73.1851196  36.9018021  46.2685661   0.7395017
  37.4373512  46.7411041   1.3767831  37.3638229  46.3802681  -0.0913369
  55.1128998  25.9857960  66.5831528  54.8012733  26.0310211  67.4870758
  54.8049011  26.7988014  66.1826630  84.8699799  55.0754929  35.6500053
  83.9372101  55.0793495  35.4351692  85.1316528  54.1587257  35.5645752
  35.9038658  54.7534370  23.4879913  35.4926338  55.4843369  23.9494076
  35.5426292  53.9721642  23.9067497  30.3681202  11.3413982  11.5650740
  30.4180412  11.8046618  12.4012117  29.4577847  11.0515509  11.5058260
  57.8259888  71.1263504  15.3061857  58.1458130  70.3702545  15.7983856
  58.2011986  71.8822937  15.7578459  35.5840530  39.7625198   5.0335064
  35.6837234  40.7142715   5.0118880  34.7709312  39.6177788   5.5173616
  59.8689995  10.5580502  57.6093597  59.4462280  11.4105663  57.5058556
  60.5056190  10.6901245  58.3118591  77.7237320  70.2252045  30.3826256
  77.0803833  70.8921814  30.6223392  78.4762268  70.7224884  30.0621681
  84.3087387  66.0518188  23.4586143  84.5031815  66.2693634  24.3702602
  84.9744263  66.5188904  22.9536991  82.4296036  11.9976311  30.0396919
  81.9837494  11.8817492  30.8787518  82.1489868  12.8611250  29.7366028
  54.6683006  37.6775017  76.1589737  54.0315018  37.9527130  76.8185043
  54.1499367  37.5485077  75.3646851  39.4653053   4.1998000  23.9930725
  39.5402412   3.7037690  23.1778603  40.3603897   4.2446260  24.3293018
  14.0570126  53.1174812  46.4830132  14.5234032  52.3107605  46.7018967
  14.6124020  53.8164444  46.8283081  10.9011221  57.3177872  79.3999023
   9.9893618  57.1544876  79.6412735  11.2237988  56.4696960  79.0951843
  46.1438866  61.3763657  17.3047905  46.6680946  62.1417885  17.0690670
  45.2604370  61.7215500  17.4336014  80.9105377  12.5765772  16.6855831
  80.9810638  12.7425537  15.7455244  80.2020569  13.1501780  16.9775848
  29.8767338  34.2309074  11.8716784  29.9204464  33.7739677  11.0317221
  30.1984100  35.1122398  11.6819134  18.3483353  49.1756706  56.3956566
  17.8864613  49.1851196  57.2339973  19.0015221  49.8709488  56.4742126
  54.4136543  11.2910557  54.8526726  55.1627312  11.0269585  55.3868713
  54.7499428  11.3003378  53.9565392  63.5817909   1.9800804  80.3057327
  64.5110779   2.1279535  80.1302567  63.4556847   2.2874761  81.2034225
  82.1034851   1.6551051  31.2149906  81.3841019   2.1660089  31.5860691
  82.8853531   2.1776626  31.3934536  35.0015907  59.1169357  62.6192017
  35.9544334  59.2020607  62.5864182  34.6920738  59.5910492  61.8474197
  75.5142288  51.1179428  34.7503929  76.1420822  51.7819977  34.4656715
  74.6705017  51.4303398  34.4236565  59.3552132  44.2388954  18.5365620
  58.8355980  44.4253349  19.3185291  58.7274437  44.2843132  17.8153992
  33.4779816  45.3858986  70.3720779  32.8484192  45.9765778  70.7855835
  32.9465294  44.6596832  70.0458832  50.5857658  47.0198326  13.3755903
  49.8148956  47.4910622  13.6917133  50.2739220  46.5364037  12.6105537
  79.1705704  43.8769150  41.7496376  79.4961395  43.1304092  42.2525978
  79.7444382  44.6016388  41.9979973  57.9966087   6.2093577  81.0358429
  58.1854630   6.3100696  80.1028824  57.2600632   5.5987949  81.0665741
  45.0697746  51.9083290   0.2793421  44.2477608  51.8797951   0.7689428
  45.7497406  51.9137115   0.9530249  36.3693962  66.2593689  79.2545624
  35.6372566  65.9562607  78.7175980  37.0294914  65.5713806  79.1698608
  52.1987343  63.1984291  11.9794416  52.3480453  63.6466217  12.8119450
  52.0449638  62.2856140  12.2230635   6.4448781  42.1905098  35.7023964
   6.1564007  42.1428833  34.7909431   7.1521826  42.8354263  35.6963692
  11.7866745  40.7216644  76.3972855  11.3785038  39.9127808  76.7060547
  12.7079935  40.4931488  76.2740631  82.3801270  58.1196442  22.3890362
  83.3202362  58.0321121  22.2316952  82.0085068  58.2998009  21.5255089
  54.6044807  51.2845497  47.1556587  54.3347893  50.4214096  46.8418350
  55.3621407  51.1103897  47.7140961  83.7443237  56.0354080   3.3916721
  84.6020813  55.6388245   3.2393365  83.9401321  56.9300652   3.6700377
  70.8181000  59.1390724  73.4445114  70.7798920  59.5603561  72.5858536
  71.6994934  58.7685814  73.4905167  85.6392517  43.7448196  46.2440224
  85.6052246  42.7901573  46.3048363  85.2483444  44.0510292  47.0623474
   1.3159291  29.2877083  68.5692139   1.4549280  30.1553097  68.9489288
   1.1347541  28.7234955  69.3209305  39.2856636  36.1879768  11.7679796
  40.1163063  35.8188744  12.0680265  38.8729858  36.5263557  12.5626040
  16.7529144  67.5942459  44.4650841  15.8479290  67.6920395  44.1689949
  17.1817245  67.1009293  43.7658043  26.2438698  61.0936394  19.2079544
  26.9679794  61.0292206  19.8306503  25.5243969  60.6219864  19.6276340
   7.7115850   7.9096074  85.9018478   7.3823442   7.9731102  86.7984009
   7.5626130   8.7788944  85.5298538  36.1231766  24.4588566   4.4064946
  36.4430122  23.6034603   4.1197271  36.8943253  25.0251465   4.3768482
  24.4230843  56.0142212  80.9392395  23.5821590  56.4225540  81.1450043
  25.0451050  56.7416000  80.9236832  69.2799683  68.7221222  37.5688820
  69.8946152  67.9942169  37.4761353  69.7328796  69.3474350  38.1346397
   2.6654842  52.5987206  33.7210808   3.2800479  53.3008575  33.5076675
   1.9245583  53.0452499  34.1308022  85.9844131  42.9527206  53.5737572
  86.7308197  42.6229973  53.0733643  86.0165405  42.4685707  54.3988609
  54.3670845  68.7858276  31.1873264  54.2835388  69.2992020  30.3837719
  54.3050003  67.8756409  30.8975945  74.1350861  31.2594604  61.2924423
  74.4185028  31.5731754  60.4336700  73.3755417  31.8011665  61.5066261
   9.4955645  53.0381927  22.3239841  10.3123703  53.0878868  21.8274059
   9.4407082  53.8782654  22.7795029   8.0413961  47.9797058  20.8870831
   8.6471052  47.9264183  21.6263447   7.6018705  48.8227806  20.9978542
  21.7811203   4.2019434  15.5736723  21.5473309   4.9983029  15.0968218
  22.0571022   3.5877254  14.8933773  73.4102173  57.4300499  36.3721619
  73.6627197  58.3438988  36.2404137  73.7665482  56.9710617  35.6115112
  71.4288025  30.1655750  33.5481834  71.4713898  29.7039928  32.7107124
  72.3381653  30.3916588  33.7435722  43.4955368  43.7665291  85.5108109
  42.5653610  43.9916954  85.5281754  43.6230240  43.2154465  86.2830048
  71.1553421  13.2706947  66.5598907  71.3112946  14.2084551  66.6717758
  71.1290436  12.9241829  67.4517822  52.8943062  18.7621918  67.0122299
  52.0507278  18.9646931  66.6077499  53.1723976  19.5864029  67.4116974
   1.2546511   9.7241049  67.2048035   1.1638826  10.3272791  67.9424820
   1.0537535   8.8636398  67.5728683  53.3014488  35.6008987  11.2761068
  53.7166786  36.0895004  10.5654125  53.4869881  34.6833611  11.0762892
   2.4874442  63.3783607  72.5600967   2.0491035  63.8788757  71.8719254
   3.3751435  63.7353935  72.5874786  17.2760391  21.3902264  63.7529221
  16.8037434  20.5615349  63.8331642  17.3177586  21.7296715  64.6469421
  72.7532883  37.8476944  34.0804329  73.0805740  37.2077827  34.7125969
  72.4176483  37.3190804  33.3564568  84.3073196  13.1531162  49.8919563
  84.9906082  12.4837303  49.9275093  84.2461548  13.4808388  50.7892227
  75.3309326  51.6480827  22.1529942  75.7216263  52.2430687  21.5130081
  75.9911423  51.5699806  22.8416538   8.8924150  54.7624016  55.2816734
   8.1962194  55.1937065  54.7861710   9.4120150  55.4817810  55.6404800
  11.7385311  60.4389153  50.6858902  11.6252060  59.6418266  50.1681595
  11.4642496  61.1453514  50.1011276   4.0588870  10.2597675  48.8632812
   4.1284275  11.2015724  48.7070808   4.5437026   9.8607206  48.1408234
   6.2525611  42.2037544  49.1059227   5.8147912  41.9265633  48.3010902
   6.1574478  41.4585953  49.6991539  27.1695404  58.9777908  44.6549644
  27.0154018  59.7458763  44.1049423  27.5264015  59.3336639  45.4687424
  66.5836868  28.0874023  55.7361832  66.8127289  28.9393368  55.3647308
  66.0366592  27.6741219  55.0682068  14.7191668  36.6121178  13.1061134
  14.6652870  37.5666695  13.1525640  13.9304504  36.3056450  13.5535879
   3.2722118  62.0570412  77.3722687   2.5200398  61.7235794  76.8831177
   3.9809952  61.4474831  77.1666031  18.8343067  41.3469086  17.1730118
  19.4580746  41.1469574  16.4750385  18.8458824  42.3018112  17.2382679
  64.4804993  30.4902039  64.0485535  64.1180191  30.9112988  64.8279877
  64.9454575  31.1912746  63.5918884  14.6967344  51.4523964  20.0663242
  15.2899485  52.1913223  19.9309673  14.5807028  51.4091530  21.0154819
  43.7147408  66.7000656  46.9580574  42.7689781  66.6209412  47.0825729
  43.9920197  67.3300171  47.6232758  19.6034298   7.9613490  11.5107403
  19.5058823   8.7798567  11.9973221  20.4433613   7.6074934  11.8031998
  64.8155975  69.3733063  24.5243835  64.8400955  68.4337692  24.3429985
  63.9724731  69.6626663  24.1756172  80.7112274  47.8889046  38.2130852
  81.4697342  47.4505844  38.5988045  79.9928894  47.7002754  38.8169441
  46.7193527  42.6996002  83.1619797  45.7791748  42.8780823  83.1409531
  46.7916832  41.7704048  82.9438171  55.5901871  37.2313957  24.6178226
  55.6686859  36.3907280  25.0687675  54.7720718  37.6040421  24.9465389
  53.5380516  20.3687859   5.6004748  53.5490990  21.3227310   5.5223680
  54.3481750  20.0844269   5.1773090  44.6589737  42.2207489  72.1265335
  45.0716515  41.5299110  72.6448746  43.8066826  41.8600807  71.8820953
  32.1865044  63.7172813   5.4217868  31.6323757  63.0522690   5.8303576
  31.9254608  64.5371780   5.8411303  80.1384277  61.2392426  64.3442001
  80.4807129  60.3761902  64.5770416  80.5037689  61.8279533  65.0046310
  16.9409962  49.2376823  58.7010765  16.2373543  48.5935478  58.7798767
  17.6966915  48.8184433  59.1126518  73.9807358   4.9798198  51.8084908
  73.6951294   4.8643651  50.9022179  74.8147736   4.5127530  51.8581200
  81.0653610  59.8637619   8.0265608  80.7771225  59.3607025   8.7881899
  80.5869980  60.6903915   8.0905066   6.7372961  21.5507565  30.7205544
   7.1478515  20.9066658  30.1436462   6.5549583  22.2992840  30.1524944
  60.7548599   5.3886557  36.7491035  61.4969864   5.7397265  37.2412758
  60.2801208   6.1629219  36.4468384  82.6110458  17.8785324  59.3495064
  83.3497925  17.3844624  58.9939995  83.0102310  18.5052280  59.9529419
  69.3839417  45.2173119  86.2480545  69.4344330  44.2705269  86.3795166
  70.0610428  45.5752792  86.8221893  61.3494263  66.7791901  78.4440613
  61.3769188  67.3638916  79.2014313  61.7163162  67.2975388  77.7278671
  73.8363800  51.9127922  70.0428391  74.7161407  52.0543976  70.3924103
  73.3130722  51.6640549  70.8047485  58.3852310  40.6590424  11.4254713
  58.2982559  40.6861763  10.4726171  57.8724518  41.4060402  11.7341528
   3.4844389  50.3573532  71.3732300   3.0284548  51.0010414  71.9154282
   2.9819891  50.3311691  70.5589218   5.6790123  69.4527435  50.3928604
   5.6420813  69.5543060  51.3439407   5.0435848  70.0862503  50.0594864
   2.5899568   1.1638440  75.0615921   3.0171549   1.5996654  75.7990189
   3.2153029   0.4943983  74.7840729  74.2877426  37.6962395  76.9867477
  74.7635422  36.9606476  76.6010666  74.9406891  38.1515083  77.5183716
  11.3644629  20.0671120  82.2681732  11.5872917  20.0744381  81.3373032
  10.4082413  20.1065903  82.2858734   6.8980513  16.6602325  27.9398861
   6.7118249  15.7467012  28.1567078   7.6767440  16.8744049  28.4536953
  34.8606949  10.7202272  87.1191025  34.0264626  10.7101049  86.6498642
  34.9422073  11.6171160  87.4434204  67.6044846  44.7234039  23.5971012
  68.2812347  44.1669807  23.2115650  68.0543747  45.5444107  23.7965508
  80.7835159   9.3740463  27.0487995  81.1472855  10.2139015  26.7685375
  80.4973984   8.9542742  26.2375278  20.6166039  70.4703293  86.2668762
  21.5644093  70.4317551  86.1387787  20.2792206  69.7131042  85.7883224
  75.1379852  57.7826004  58.6073952  75.1171570  58.7019310  58.3416328
  75.8681107  57.4074364  58.1150551  74.0338135  44.4444046  51.5473900
  73.2956314  43.9471054  51.1952400  73.6494217  45.2726631  51.8345528
  76.9510574  45.8560677  88.1140213  76.7553177  45.2830963  87.3726578
  76.3397522  46.5866165  88.0200577  14.7050562  70.0714340  21.9516888
  15.0914745  70.5371399  22.6933289  15.0868645  70.4905396  21.1804523
  58.0307884  33.2642670   9.2260370  58.2974892  33.6515923  10.0597525
  58.4083176  33.8413315   8.5621872   0.9535064  17.6512623  67.2530899
   1.3350710  16.9241867  66.7611542   0.4266652  18.1253777  66.6097565
  61.7698975  10.4157248  63.3702316  61.3870087  10.9099054  62.6453781
  62.3650017   9.7953682  62.9492264  57.7797661  15.1557140  84.3487015
  57.9889565  16.0376091  84.0409164  58.6184654  14.6944447  84.3419418
  51.6542816  33.8293343  21.8875237  51.9231682  33.3772316  22.6872349
  52.2278519  33.4753380  21.2078686  67.1261368   7.1222887  22.8791943
  66.6389084   7.3979521  23.6556263  66.5143280   6.5654397  22.3976974
   0.7988212   5.7936378  77.3990936   0.4935993   5.9659100  78.2898178
   0.4600847   4.9221430  77.1941833   6.2799215  62.8079338   8.8364534
   5.8397532  63.1319199   9.6222763   5.6424956  62.9375420   8.1342268
  85.9281616  35.9097176  81.9224930  85.1650772  35.4507980  81.5713196
  86.4363403  35.2279587  82.3620300  71.1580429   9.1586685  22.3281784
  71.7060165   9.6316061  22.9545097  71.5995255   9.2763176  21.4870586
  47.9700584  51.1916695  55.9341545  48.5025520  50.3962593  55.9365959
  47.4242821  51.1169281  56.7169533  28.3465309  54.3628693  51.8212128
  29.1066132  54.3528900  52.4029388  28.5462151  53.7052879  51.1549187
  55.6067581  43.5927963  36.4381256  56.3029327  43.1478462  36.9214401
  54.8199654  43.0810242  36.6259384  42.8198395  61.4494820  85.8391418
  42.8868370  61.4813080  84.8848190  43.3225822  62.2064590  86.1399155
  61.1130867  11.9941521  14.3608370  61.6905899  11.9354343  13.5997343
  61.1546631  12.9139118  14.6226454  59.7706718  32.3426476  19.6307716
  58.9007607  32.6707230  19.8584862  60.1508141  32.0717735  20.4664478
  79.5355911  32.2176895  21.3573647  80.2802734  31.6192150  21.2981434
  79.9137802  33.0407028  21.6669788  20.2793331  44.6809120  85.2441559
  20.6076469  44.0796928  85.9127121  20.0372772  45.4696808  85.7294235
  80.6422119  63.7534904  19.8391762  80.9375687  63.6790771  20.7466221
  81.2206955  64.4105835  19.4521255  58.5058060   4.6260672  27.4321194
  58.2578964   5.5468240  27.5156651  58.7780228   4.3703985  28.3134594
  28.6286182  63.8560791  14.7694340  29.0500679  63.0741196  14.4128504
  28.1125870  63.5341034  15.5085382  86.2103043  45.5940781  18.2480793
  86.0554581  46.5065193  18.4924240  87.1435165  45.5573578  18.0383244
  15.8704510   2.9968038  39.4189720  16.2075462   3.8823941  39.5543556
  16.6151638   2.4256730  39.6072388  70.2194977  17.6639214  31.8652077
  70.2106857  18.4913521  31.3840523  69.5404282  17.1356449  31.4456635
  51.7808609  47.2383156  52.9304543  52.1674957  46.8207779  52.1607742
  52.0293083  46.6714516  53.6606407  82.3206711  29.1473541  78.6472931
  81.6278839  28.5297890  78.4129868  81.9340363  30.0097904  78.4957886
  62.2681770  36.2343369  81.3227005  62.9495926  36.7854500  81.7076492
  61.8510056  36.7925148  80.6664734  28.0410633  57.4275093  69.1723862
  28.3372059  57.2611504  70.0672913  28.6281910  56.9061012  68.6249847
  79.5112152  66.9558334  43.4699936  79.2115173  67.7245789  43.9552269
  79.7314529  66.3160858  44.1470871  61.5701408  23.9710407  19.6291485
  62.0177727  24.3564682  20.3823414  62.2772789  23.6711636  19.0579548
  31.9178486  33.9959984   7.5704718  31.4861813  33.4694557   8.2432623
  31.3769588  33.8772354   6.7897248  45.9958725  45.1961479  34.6608582
  46.2045135  46.0591125  34.3030930  46.6672630  45.0438652  35.3258972
  73.7399750  44.0150032  83.2114716  73.3631287  44.4289246  83.9879303
  73.7800369  44.7166481  82.5616150  24.6722126  40.3299980  76.5578995
  23.9378719  39.7522926  76.7658310  25.3566036  39.7419319  76.2384949
  66.6690674  65.8412704  74.3562469  67.0308075  65.0034714  74.6451569
  66.5784531  66.3529892  75.1600952  66.8763962  61.1606941  23.2067928
  65.9885941  61.2808723  22.8697376  67.1585464  62.0403481  23.4574490
  25.1888752  30.1701145  74.7315063  24.6501617  29.4414024  74.4232864
  26.0557175  29.9997616  74.3630066   6.5834665  27.3201866  12.7208281
   5.6560740  27.2557812  12.9489222   7.0317941  27.4044533  13.5623341
   3.6117480  51.6186256  36.0894356   3.4340296  50.7711258  35.6815224
   3.5025499  52.2530098  35.3810120  60.7358551  24.9967899  46.5763245
  60.6358376  25.9473438  46.5245667  60.9494858  24.7294083  45.6823997
  66.4946136  63.3619843  71.0931396  66.9253540  63.0933304  70.2816467
  66.3566666  64.3036346  70.9906845  18.3063583  50.7188034  28.0032597
  18.3251743  49.8590317  27.5829353  18.7461357  51.2989273  27.3817425
  17.5269604   7.0356412  59.0438652  17.9286671   7.8034201  59.4505348
  16.9956913   6.6469340  59.7387733  50.5453835  59.7954903  73.1988297
  51.2100029  60.1023750  73.8155441  49.7453995  59.7323608  73.7206268
   4.7056108   8.8364058  25.2514038   4.1489139   9.0341415  24.4982624
   4.5304260   9.5444908  25.8712082  52.6279144  44.1333656   0.7583045
  53.3692856  44.7387276   0.7700732  52.9854431  43.3103142   1.0914577
   7.7471437  54.8899765  42.7016869   7.3189373  55.4017220  43.3879738
   7.7456679  53.9929161  43.0356216  59.5393524  63.9040375  47.2206459
  60.0510025  63.2938385  46.6895103  60.1692085  64.5718689  47.4917870
  27.9153881  26.0416374  26.1523991  27.5192261  26.7196617  25.6050701
  28.6037483  26.4970341  26.6371708  59.1554260  40.3947639  36.0335083
  58.2810326  40.3283386  35.6497726  59.7119751  40.6879463  35.3120346
  72.6984634  32.5735817  66.3755035  73.1539993  31.8964539  65.8752899
  73.2492905  33.3509445  66.2831650  11.8837414  46.3789253  82.5603104
  11.7652426  46.8614120  81.7421417  11.1635056  46.6727638  83.1181183
  50.1867828   7.7790818  80.0663681  50.3753281   8.0388174  80.9681549
  49.6356735   8.4831371  79.7245789  40.3472290  49.5303001  24.6540108
  40.6072006  49.7612534  23.7622108  41.0506516  49.8735275  25.2050304
  20.2581024  25.5630836  19.5528355  20.4438152  24.7514973  19.0805321
  20.8114700  26.2189732  19.1287804  77.3917847  26.3616657  59.3419304
  77.8482437  25.5963268  58.9924583  76.4655457  26.1218739  59.3132858
  57.1123924  29.5149841  72.8654556  56.6242104  28.7212601  73.0843506
  57.6467438  29.2671013  72.1109695  73.7116623  43.9624596  86.2450943
  73.0609207  44.5470352  85.8564606  73.2005920  43.3624420  86.7882462
  71.3811874  23.1840496  69.6385803  70.6443024  22.6111794  69.8508224
  71.9861145  22.6253300  69.1505890  72.5890961  60.9977341  77.5315018
  71.7967529  60.7195969  77.9909210  72.3367004  61.8071251  77.0871887
  43.5588646  39.5463142  79.0085678  43.0553551  39.6608925  79.8145294
  43.9821892  40.3932571  78.8681717  45.6403084  55.2363167  46.7871780
  44.8723373  55.4614067  46.2620277  45.4111824  54.4048767  47.2024384
   2.4888554  66.4045105  37.4370041   2.2192030  65.6120605  37.9012756
   2.6567967  66.1118622  36.5412445  26.3699150  10.8328562  50.2858658
  25.8701248  11.4528675  50.8169250  27.0880547  11.3519955  49.9239235
  24.9016552  47.9836235  54.3258018  25.0832481  48.7735786  54.8349495
  24.1914215  48.2367401  53.7361145  49.7973328  46.8189621  25.8252983
  49.0910759  46.7803421  25.1803627  50.5864410  46.5999107  25.3297577
  48.6916161  60.9480247   5.7148170  49.3575706  61.6355743   5.7180591
  48.1269264  61.1650276   4.9730163   7.4373636   0.2892213  36.2355003
   7.7704773   0.4680255  35.3561249   6.5121584   0.0822382  36.1036453
  13.4356403  26.1780148  19.3327446  13.0165453  25.3278427  19.4661522
  14.1818314  25.9904842  18.7633018  72.4727859  57.3148499  57.6318817
  73.2354050  57.3058929  58.2102928  72.6212234  56.5867271  57.0285301
  70.9660110  53.8303719  51.7381210  70.4717178  53.7780571  50.9200897
  71.4030685  52.9816971  51.8085632  59.2606125  38.2708626  61.2142792
  59.2784233  37.5380058  61.8297729  58.6562996  37.9914246  60.5265656
   6.8856273  50.1151314  67.8026733   6.6179938  49.3882027  68.3649673
   6.0854878  50.6239700  67.6719284  22.1079197  67.9847488   5.8617239
  21.9593983  68.8858948   6.1482701  21.2906704  67.5304947   6.0666213
  66.6909409  43.0323219  82.8200378  67.3725510  42.6223221  83.3525162
  66.4606781  42.3667641  82.1717682  75.8466644  35.9402962  40.7739143
  75.0920715  36.1742859  40.2334824  76.0503159  36.7394714  41.2597923
  72.0804977  48.9786644   6.7539654  71.3237228  49.4156837   7.1445265
  72.8371429  49.4307480   7.1272345  38.8166351  31.9443378  15.4465847
  39.4055443  31.2049541  15.2958231  39.2827072  32.4978676  16.0731735
  63.4846268  11.4162426  42.0573692  63.7041817  11.0279303  42.9042702
  62.6630096  11.8819618  42.2132034  42.7377548  38.1382332  77.0956192
  42.5651703  38.7806435  76.4073181  42.8454781  38.6613693  77.8899460
  75.9824829  64.0969772  53.7822495  75.7156601  64.9202499  53.3732681
  76.0582657  64.3056183  54.7133560  78.2439270  60.7635956  52.6468163
  79.1984024  60.7177048  52.5911484  77.9632797  60.9959106  51.7616615
  53.4995155  46.3094749  23.7108250  53.5125122  45.9445343  22.8260212
  53.8487663  45.6102867  24.2634487  31.5637798  66.9123688  88.5160751
  30.9188786  66.9647446  89.2214737  31.7836151  67.8240433  88.3243561
  55.4082413  62.9540443  22.8361492  55.0317383  63.8183174  22.6702900
  54.6505089  62.3770485  22.9317970  23.4332886  61.6978340  37.6052208
  23.2644978  60.7875710  37.3619804  24.3114643  61.8767014  37.2689934
  79.7822800  14.4623623   7.0502572  80.4282227  14.6092625   7.7412090
  79.1487503  15.1714754   7.1599488  75.8941422   8.8902617  77.1225967
  76.6686478   9.4445343  77.0269165  76.1742249   8.0308781  76.8075714
  32.6717987  28.0482426   4.0778151  32.8250809  28.1442661   3.1378591
  33.0526886  27.1978722   4.2969604  53.2890167   5.4527407  27.4395161
  53.5873871   4.7427506  26.8710785  52.6871643   5.0314484  28.0531254
  72.6677551  55.3869476  61.3067131  72.6716003  54.4450760  61.4772835
  73.5892487  55.6421432  61.3510284  44.3380051  12.6953096  74.5727234
  45.0185242  13.1370354  75.0806656  44.7691765  11.9164448  74.2210312
  35.3120956  34.4624634  71.5427170  34.7743073  35.2139778  71.2932358
  36.1025314  34.8483658  71.9202423  75.1756439  70.9424973  22.5768890
  74.6862183  70.9914932  23.3980465  74.9398956  70.0912933  22.2079735
  10.0580959   5.4785819  60.6605110  10.3680420   6.3441067  60.9270287
  10.6099348   4.8662548  61.1470909  14.2884998  43.5596008  71.8048172
  14.0828524  44.4599228  72.0565338  15.2116737  43.5861511  71.5532684
   1.3417182  57.5011902  34.8417854   1.8368894  57.2914200  34.0499306
   1.7351099  56.9546852  35.5220833   1.8131317  44.3975449  76.3184204
   2.6564572  44.0844688  76.6455536   1.3088791  43.6005554  76.1547928
  58.9461060  11.7613878  71.3381958  59.1771660  10.9121208  71.7144852
  58.0347443  11.6615028  71.0631104  17.4368668  26.2612629  71.8815994
  16.9815197  25.4194145  71.8950577  16.7634735  26.8938217  71.6313171
  10.9115725   7.3073392  87.7662735  10.4241314   8.1028318  87.5522079
  10.3043985   6.7892780  88.2946548  18.8627701   3.2224395  10.0604897
  18.5585327   2.9287009  10.9192038  18.7687740   4.1746731  10.0859346
   1.5921559   0.5966869  14.4221487   0.7175562   0.3681716  14.7369318
   2.1104145   0.7132816  15.2184191  74.4760513  53.0965919  37.0522499
  74.4904175  52.1988220  36.7205429  73.9890747  53.0404015  37.8743973
  25.8615646  11.3050680  69.4492035  25.1425152  11.3651323  68.8202438
  26.2657013  10.4559469  69.2705994  15.8554726  52.3187332  30.0956764
  15.1846571  51.8070450  29.6435547  16.6471596  51.7843933  30.0328636
  45.0594063  42.1019783  78.9077759  45.6594582  42.7865448  79.2036362
  44.3975601  42.0492172  79.5972748  30.2323933  51.7567978  80.5872192
  29.8444767  52.5276718  80.1730881  29.9404659  51.0223770  80.0471878
  54.4927368  54.4287415  78.9078522  54.9993744  53.9022675  79.5262222
  55.1349945  54.7244415  78.2626419  76.8297043  58.4587746  29.2882347
  76.3195724  57.9309578  28.6738987  77.2213058  59.1444244  28.7471581
  29.7097569  25.7139187   2.0035810  30.3873215  25.0522518   2.1426370
  29.1635151  25.6659260   2.7881491  26.0786381  25.6008682  78.1804810
  26.9517021  25.3992157  77.8438339  26.1979408  26.4015312  78.6912994
  68.4649887  49.2035408  26.1200218  69.2062988  49.6748848  26.5001907
  68.0946274  49.8138962  25.4824238   6.3576660  38.6837044  12.0208187
   5.8659554  38.1690559  11.3808279   6.8912201  39.2769585  11.4920435
  49.8699265  26.2269497  19.8119793  50.2903709  26.5480537  19.0142651
  50.4623642  26.4884186  20.5168781  31.1985855  19.6472321  78.2716599
  32.1114922  19.8743324  78.4484558  31.1215916  18.7334843  78.5461960
  60.1313782  21.9513397  13.3287382  59.5463524  22.6513557  13.6184902
  59.6784210  21.1442184  13.5729046  68.1104736  68.8487778  56.5209198
  68.8615570  69.2566528  56.9519005  68.0811005  67.9617996  56.8795738
  18.2633839  32.4450531  81.4766006  17.8786793  31.5694942  81.5169449
  17.5111656  33.0354156  81.4333572  37.5573120  24.9014511  20.1531010
  37.9112625  25.6688366  20.6026249  37.3408623  24.2901230  20.8571320
   2.8824041  52.5304642  73.7851257   2.8778632  53.4726868  73.9537277
   2.1838913  52.1843834  74.3405914  22.4259281   9.8491259  23.1138306
  23.1549759   9.7883205  23.7311020  21.8278675  10.4821386  23.5111332
  58.3761444   4.3097081  30.2276192  58.0970993   3.5095680  30.6727524
  58.9070930   4.7719045  30.8762321  14.3427467  64.5263367  27.7901993
  13.5994854  65.1237640  27.8730755  14.7637348  64.7802658  26.9689083
  64.9429932  14.6305361  65.1753616  64.6799850  13.7173786  65.2902679
  64.3754654  15.1199875  65.7708359  84.4159775  67.9117966   5.5321445
  84.9342422  67.3520050   4.9539824  84.8293610  67.8177032   6.3903365
  19.9353867  64.4852829  31.6585541  19.9889507  63.6167946  32.0574150
  19.7932758  65.0790634  32.3957520  35.0907669  28.5418816  85.7428055
  34.8965416  27.8877316  85.0715332  34.3304596  29.1233788  85.7376556
  19.8824024  10.8615646  57.2435799  19.5458202  11.2575016  56.4397278
  20.1428242   9.9776917  56.9843864  51.3685608  37.5644836  23.7011967
  51.7434120  38.4203568  23.9090290  51.5142326  37.4611702  22.7608051
  75.3192749  14.1977568  69.6381760  74.5043335  13.6989040  69.6951599
  75.8994064  13.7825174  70.2763443  20.0558376  51.9689560  26.2249069
  20.7182331  52.6567154  26.2916393  19.5606461  52.1890984  25.4358864
  42.8999786   6.5867686  45.2729378  42.6161957   6.6514077  46.1848183
  43.4182396   7.3781323  45.1267128  67.8861389  11.7212629  57.9739952
  68.3980560  11.7548132  58.7821083  66.9754028  11.7643976  58.2654266
  74.5387573  27.5330925   6.3380394  75.0980988  28.0305386   5.7414532
  73.7358017  28.0503521   6.4007969  30.4437599  58.6839561  48.9336205
  29.6046772  58.2235336  48.9472122  30.2832909  59.4584198  48.3944664
  16.1218739  45.3169250  48.7559280  15.8025160  44.6964760  49.4111290
  16.2240829  44.7940521  47.9607010  82.0175552  34.6197472  57.0243530
  82.0757370  34.6094131  57.9797249  81.4057083  35.3295631  56.8293228
  46.8254738  34.6678200  21.1114788  46.5674744  34.4733505  20.2104511
  46.4141197  35.5109177  21.3017464  39.6998863  67.2035904  54.1580887
  39.9719315  68.1154785  54.0547600  40.4955902  66.7454529  54.4286499
  40.7237473  57.8879318  48.0020943  40.9728966  58.2946625  48.8319931
  39.8558350  57.5194588  48.1669922  68.1751022  26.1672096  18.4512806
  67.6586838  26.8800926  18.0753174  67.8801117  25.3855553  17.9841309
   8.9061718  61.7149086  17.2610512   8.1990948  61.8941689  16.6412582
   8.7048674  60.8463707  17.6094036  85.9980545  22.6411762  54.1415901
  85.7263794  23.1145916  53.3552704  86.4971161  23.2828121  54.6470299
  78.8828278  65.4306793  35.3366013  78.3628922  66.2338028  35.3664665
  78.3968887  64.8104172  35.8800888  46.5571098   0.9286398  57.4433479
  46.6928368   0.7978562  56.5048904  46.9434624   0.1538018  57.8515015
  73.7926178  11.7109318  33.9816437  74.3286591  11.2770252  33.3178520
  74.0413055  11.2886572  34.8038788  73.8264923  31.5004025  69.2167969
  73.4086380  31.8517208  68.4305344  74.7629623  31.5205288  69.0196915
  61.7424126  51.9249878  80.0497284  61.8512955  51.3953018  79.2599182
  61.9379730  52.8185463  79.7677002  76.0285263   5.2387004  79.0926743
  75.5329590   6.0547595  79.0241547  76.1514053   4.9562860  78.1863785
  28.8432827   5.3945351  47.4948463  28.3371830   5.6854968  46.7362709
  29.6810741   5.8501925  47.4128914  63.7015953  24.0759716  32.8589706
  63.1245728  24.8318844  32.9679489  63.4749603  23.7237682  31.9982624
  74.6396027  50.7027016  53.0220184  74.8341904  51.1204262  53.8609886
  75.2636795  51.0926132  52.4098663  66.5562134  22.6879425  74.8688202
  67.2737350  22.9543400  74.2939835  65.8926468  22.3352642  74.2759247
  37.5387878  34.0439758   5.7446432  36.6400871  33.8904190   6.0361743
  37.7682762  34.8964119   6.1146727  24.0624104  49.8858109  27.7215958
  24.1244144  50.8375244  27.8030148  23.1367664  49.7205544  27.5424156
  32.2741623   1.0492547  45.3712540  32.1016312   0.1200084  45.2197113
  31.8403854   1.4951527  44.6437645  33.1629982  70.8898010  83.5944366
  33.3991394  70.2683105  82.9057999  33.9698257  71.3755493  83.7656403
   2.4705284  60.2628975   9.1098680   3.0274663  60.6513519   8.4352169
   2.7379842  59.3443680   9.1416044  68.2668762  66.0931473  16.2405357
  68.8067093  66.4163589  16.9618835  67.3908691  66.0074387  16.6166954
  15.9563704  53.4052162   2.3031342  15.1492863  53.1696777   1.8455642
  15.9310312  52.8940277   3.1120064  63.1622696  14.0917978  12.7296648
  62.5005951  14.6750164  13.1015224  63.9871025  14.3901367  13.1129084
  78.6068268  16.3862495   8.7511902  79.2051468  17.0155354   9.1539888
  77.7343826  16.6949177   8.9957294  17.5008297  -0.1832817  63.9515800
  18.4355564  -0.0445759  63.7989998  17.1835442   0.6593553  64.2764282
  65.9717712  34.0352135  84.9465561  65.1823425  34.5409126  84.7534180
  66.1234207  33.5167885  84.1563263  62.4619064  33.9293137  59.8877602
  62.9306412  34.4960556  60.5003967  62.6357574  34.3110733  59.0273705
  75.7860794   5.8430157   3.3255577  76.5968857   6.3421450   3.2271073
  75.4701996   5.7202477   2.4303589  69.6954956  51.2482567  50.3224411
  69.4153748  51.9555435  49.7414894  70.5883865  51.0474129  50.0420151
  47.6074409   7.5171151  10.5538120  46.8371849   7.9741650  10.2161112
  48.3049431   7.7338862   9.9351578  83.7175751  25.7164993  88.7048798
  84.0541763  25.8629036  87.8208542  82.9705582  25.1305962  88.5827484
  53.8420677  29.4030933  17.2047005  53.8790283  28.5403538  16.7917252
  54.7550278  29.6875572  17.2472820  74.0987625   7.7193141  55.4528427
  73.5731277   8.4204454  55.0676727  74.7112656   8.1706161  56.0336952
  51.9504242  70.6717453  32.3753929  52.5756836  70.2228928  32.9444389
  51.3503532  71.1108093  32.9781876  81.5820312  41.7080765  35.1614227
  81.9626389  41.2100906  35.8848724  81.5092163  41.0750847  34.4471054
   8.3893938  11.0392475  47.8159981   8.2724314  10.4429579  48.5555840
   7.6961370  10.7978115  47.2017212  16.6526089   0.9070828  44.9143562
  15.9378500   0.9336678  44.2782402  17.1816635   0.1548546  44.6488647
   8.1600132  17.9362812   6.2791548   7.2454500  17.6543598   6.2610798
   8.1378183  18.8414059   5.9685311  39.4191170  62.5359573  57.0115585
  39.0926056  61.7888298  57.5129814  39.8430099  63.0947342  57.6629562
   3.1633079  52.2137299  10.3791466   2.6257069  51.5803604   9.9036865
   4.0064955  51.7750320  10.4923382  35.9276199   1.8402508  14.8727188
  35.4894600   0.9904247  14.8275461  36.8497581   1.6433314  14.7080469
  69.8116150  65.5088272  72.1346130  70.2029724  66.3015671  72.5015259
  69.4653549  65.0393219  72.8934937  34.7566910  18.3025742   2.3595376
  34.8701553  17.7338085   3.1210260  35.0602913  19.1611023   2.6544769
  17.2544785  69.0444565  49.9101067  17.0556259  68.9151077  48.9827690
  17.1797180  68.1713104  50.2951546  86.1322021  21.5108185  82.4798660
  87.0077972  21.1414433  82.5944595  86.2086868  22.0738106  81.7095337
  62.6675186  63.7662964  32.7491379  62.9059372  64.6909637  32.8153381
  63.2068443  63.4305611  32.0331459  28.3582821   2.4956601  35.2313805
  28.9453869   3.1076157  35.6752815  27.6521587   3.0451686  34.8912926
  50.1265793  49.0534668  51.4647255  50.6623878  48.5259743  52.0570869
  50.5181694  48.9170456  50.6020126  77.6055145  53.5429688  83.6351013
  77.3235626  54.4345016  83.4303970  76.8781586  52.9901886  83.3494034
  54.2128525  16.1788273  19.0024128  53.6738815  16.7861061  19.5093174
  54.6162720  15.6111841  19.6591206  84.3836212   5.9515510   6.9745560
  83.5529251   6.1150122   7.4211574  84.3998337   5.0042686   6.8380833
  63.1890259  68.9520569  14.3373976  62.6408730  68.7441177  13.5807486
  62.5687180  69.0752563  15.0559177   8.7651730   4.4406619  67.7252731
   8.3651676   5.2716761  67.4690704   8.0737000   3.9778209  68.1984329
  43.4370918  59.5447960  56.1792793  43.8788681  59.9460564  55.4309082
  43.2412987  58.6529999  55.8918839  31.1957512  13.1801653  26.9162273
  30.9982471  13.6501970  27.7263470  31.4712219  13.8627672  26.3043442
  67.7772217  42.3406029   5.7713575  68.6724091  42.0850105   5.9939308
  67.8729553  42.9045143   5.0038476  76.2371597  21.5758915   0.4654399
  76.8558121  21.7910976  -0.2325486  76.3804016  22.2507858   1.1289408
  42.2322350  46.0914726  76.3526230  41.7132187  46.3740845  77.1056061
  43.1234627  46.0113640  76.6925201  38.2321167  67.3212128  63.7114296
  39.1207542  67.1573792  64.0271988  37.8025017  67.7807922  64.4328537
  54.7978592  42.3185654  79.2245331  55.0623131  41.9313622  80.0590210
  54.7492905  43.2580795  79.4011307  26.6856594   9.8767891  25.4808235
  27.1139069   9.1114759  25.0972443  27.3620491  10.5540810  25.4823418
  65.9435577  45.1124763  39.2253761  65.3872604  44.4325867  39.6055336
  65.5212708  45.3306313  38.3945236  51.1086006  54.6940956  31.0816746
  50.5573883  55.4698639  31.1845322  51.5430984  54.5949783  31.9287987
  10.6130657  66.6183395  64.1324234  11.5473537  66.4825516  64.2902222
  10.5531654  67.5165787  63.8071442  84.3256302  59.5785828  66.4366608
  83.7109985  58.9832954  66.8657227  84.9817581  59.0030060  66.0436630
  23.2376289  65.5054855  40.5667686  23.4157963  64.9742737  39.7906914
  23.4574146  66.3985062  40.3013763  -0.0975952  29.1283169  47.6433945
   0.4879253  29.8829269  47.5804443   0.2412534  28.6232376  48.3825188
  36.8959045  55.0613785  74.9065933  37.4232178  54.4300804  74.4170685
  36.1141243  55.1883392  74.3690643  70.7527466  48.9624901  22.4313354
  71.6510925  49.1935043  22.6676388  70.2886963  49.7993317  22.4071865
  57.0689049  13.1823597   3.2466309  57.2855034  12.9535122   2.3427806
  56.3390846  12.6052732   3.4714992  83.6380386  30.8862934  50.5902786
  83.3165817  31.3732700  49.8314934  83.4095154  31.4344025  51.3410034
  78.7187500   1.4199345  73.8976440  79.4862518   1.0290335  74.3152161
  79.0786133   2.0795174  73.3046188  55.1339378  57.7582626  50.6474533
  54.7173119  56.9093819  50.4989548  55.5730438  57.9574776  49.8205757
  52.6344681  43.5826912  15.0808849  52.1332130  42.9228516  15.5600367
  52.0483971  44.3377190  15.0290613  68.1548157   3.7251966   1.8947555
  68.1892395   4.4659247   1.2894711  68.7202072   3.9840579   2.6224594
  86.1699295  38.0640907   9.5625982  86.0173035  37.3524780   8.9408703
  86.5306625  37.6323166  10.3369846  75.6835785  33.7003174  58.0853577
  74.7634430  33.4849510  58.2376442  75.6585236  34.4948769  57.5521736
   3.2035909  14.9796286  50.1774025   3.9098706  15.6235247  50.2303123
   2.5464466  15.3905449  49.6156731  38.9224968   7.7858362  66.0977173
  39.2136841   8.6748848  66.3002930  39.1061440   7.2865086  66.8934402
   6.5820608  69.4381714  44.3497849   7.2929215  69.9037476  43.9091682
   7.0164032  68.7240219  44.8162346  58.1851616  30.2951450  68.4352341
  57.4549103  29.6927776  68.2933960  58.6593018  29.9255524  69.1800995
  76.0398407  51.8614731   5.9450231  76.3749695  51.0357323   6.2944136
  75.3560867  52.1226273   6.5618796  70.9094009  47.4459229  37.9208336
  70.1588211  46.8648682  38.0442734  71.6498108  46.8549461  37.7838135
  78.7975159  50.9390831  60.7089119  77.8835144  51.2202187  60.6664505
  78.8859634  50.5420303  61.5753746  70.5767136  29.2940807  15.6636534
  70.3293457  28.4297676  15.3350163  70.2650452  29.9030895  14.9941721
  10.2934351   1.6764822  75.0181198  10.4721394   1.9820634  75.9074554
   9.8305130   0.8473244  75.1382523  35.5245476   8.4178524  64.9818573
  34.6703224   8.2661991  64.5774689  35.5579109   7.7982335  65.7106857
  69.9182053   3.9238136  22.0120564  69.4794464   3.6539679  22.8188457
  70.1165848   4.8506341  22.1457710  76.8741608  38.3151321  74.3837967
  77.4138107  39.0123863  74.0111771  76.6315613  37.7729568  73.6331787
  13.5883808  46.5517311  45.1697464  13.6479368  45.6910400  45.5843544
  13.4381275  46.3616257  44.2437248   9.3102112   1.8839704  26.6628494
   8.5180664   2.4211001  26.6476879   9.4858294   1.6901524  25.7420769
  71.2970734  42.2945862   3.6658335  71.7429810  42.4326630   4.5014992
  71.9064865  42.6338120   3.0102618   1.3692577  34.5604134  42.5110779
   0.5258691  35.0072212  42.4383469   1.4710193  34.1034813  41.6761627
  85.9431152   4.9399123  14.0416269  86.4682693   4.6973987  14.8042774
  85.5829239   4.1113043  13.7255516  26.1693649  38.3150940  52.0211334
  25.4177265  37.9473686  52.4859467  26.0374050  38.0556526  51.1092606
  47.8354530  68.6633453  63.0064507  47.3780861  69.4036255  62.6076584
  48.4084969  68.3345566  62.3138084  52.6474724  60.6647110  74.9578476
  53.3764381  60.6794243  74.3376694  52.5338516  61.5795097  75.2156677
  55.0383072  65.8192749  55.7928963  54.7795792  64.8977661  55.8033218
  54.6580124  66.1838760  56.5920677  76.7250824   3.1655128  76.9114151
  75.9737320   2.5904984  76.7662735  77.1125946   2.8516335  77.7284546
   9.6749935  36.1444435  51.0804138   9.5917606  35.9949036  52.0221863
   8.7734280  36.1552734  50.7590179  18.5396557  56.2189713  67.5427475
  18.1230469  56.8178253  66.9230347  17.8238621  55.6706657  67.8640442
  83.0292664  29.9555206  81.3518219  82.8839798  30.3540287  80.4937363
  83.9795456  29.8581829  81.4128876  83.4084015  47.9104729  59.1474228
  83.4152908  47.5245857  58.2714806  83.5408478  47.1682587  59.7371712
  79.4365616  58.4846916  35.2635384  79.0371552  57.8437386  35.8516579
  79.8780365  59.1022606  35.8465843  81.1503983  50.5885353  39.3760262
  80.7810745  50.5897865  40.2591095  81.4870682  49.7002411  39.2584763
  76.7609940  28.6348381  68.6605453  76.6677780  29.1338863  67.8490677
  75.8634644  28.4177876  68.9126816  10.9714975  69.0059433  73.3173828
  11.5727901  69.7463913  73.2372742  11.4382505  68.2737122  72.9146347
  10.2255859  23.9588680  85.1649475  10.8272419  24.6750069  85.3683853
  10.7871752  23.1869316  85.0945053  68.3213348  26.9388599  28.8052769
  69.0617142  27.2641239  28.2931557  67.6150970  26.8370037  28.1672421
  68.4706345  22.2101784  69.1505280  67.6329193  22.1810284  68.6883545
  68.4290314  23.0121613  69.6714172  32.5577888  59.3365211  50.8936806
  32.1125069  59.1318169  50.0714569  32.5077972  60.2899551  50.9622154
  79.9711761  45.4651642  52.7013779  79.9989090  46.4188309  52.6240273
  80.8369675  45.2264481  53.0325127  47.6850891   3.5397196  64.0283356
  47.0883904   3.2081394  63.3573380  47.1107979   3.8335831  64.7354889
  72.4739151  66.6361771  75.3216782  71.8818359  66.4912567  76.0597000
  73.1584549  65.9760361  75.4305801  43.8920097   1.7235073  23.1353931
  43.2100677   2.3255799  23.4332123  43.5970955   0.8622988  23.4313278
  43.1906319  55.3284874  17.0721302  43.6391640  55.8026924  17.7722588
  42.3486061  55.0791435  17.4529934  55.8974152  57.9100418  10.3801012
  55.9361305  58.6752129  10.9538984  56.6959496  57.9637566   9.8550386
  31.1556892  43.0567665  80.0722885  30.4838238  43.3826523  79.4734344
  31.0715027  42.1041641  80.0311890  82.3421173   1.2368424  22.9856682
  82.0392151   0.4510824  22.5306282  82.3923111   0.9766096  23.9054451
  68.5843353  10.6844997  71.1844559  69.1426086  10.7581053  71.9585037
  69.0308685  10.0474424  70.6267929  43.9338570  55.6242065  65.2017517
  43.5118256  55.6986542  64.3458405  44.4678268  54.8323898  65.1374512
  65.0868225  67.4752426  35.2122612  65.9852066  67.7099533  35.4447632
  65.1742401  66.6715622  34.6997375   8.1573782  24.1780052  86.8235931
   8.8467169  23.9262733  86.2090378   7.5193439  23.4662933  86.7724991
  32.7472916   5.7356048  67.0319748  32.3754883   5.5457640  66.1706085
  33.5469437   6.2272196  66.8446198   5.4948745  47.1576805   7.2171164
   6.1685643  46.8661575   7.8314357   5.7910986  46.8350945   6.3659873
  63.6151237   5.1575494  16.8347645  63.8716011   5.9018779  16.2903137
  63.2761841   4.5123930  16.2141800   7.0458345  63.3530655  74.7718887
   7.2841125  62.4328613  74.6592941   6.1122437  63.3347054  74.9823761
  43.8314819   4.2056327  21.7250233  44.6804047   4.5736775  21.4798717
  44.0363045   3.3316791  22.0574169  58.8938599  41.3885307  41.1548042
  58.4673805  41.2545700  40.3083992  59.7925606  41.0876694  41.0204582
  39.4922218  55.6344452  72.6610870  39.4841309  55.8678741  73.5893478
  39.3101082  54.6948090  72.6488113  14.8338833  30.3450241  48.5931511
  14.3141813  30.1540546  47.8123360  15.2804985  31.1665573  48.3885765
  84.4480133  11.6259537   1.1416532  84.7801285  11.1381474   1.8952953
  84.7788315  11.1471014   0.3817223   4.7152476  14.3301802   7.1539063
   5.0442276  14.6514091   7.9934392   5.4972935  14.0358696   6.6869831
  12.3359947  58.7347565  75.0321808  12.7030067  58.1400337  74.3780899
  12.5639896  59.6089172  74.7157974  14.5390253  66.4313736  32.4331512
  15.4802723  66.5901413  32.3618622  14.3570175  66.4876099  33.3712044
  75.3050919  49.5108566  64.4638443  75.7871399  48.6876602  64.3850479
  75.3693542  49.7381973  65.3914337  74.1177063  60.8242378  59.8812065
  74.2234344  60.6299782  58.9499092  73.1770935  60.7410660  60.0379372
  68.1586990  34.7342873  54.6298866  67.3288803  34.6661720  54.1576691
  68.5682983  35.5261307  54.2813873  74.8342133  23.7282887  60.0116234
  73.9967575  23.4512768  60.3833237  74.7065735  24.6520386  59.7956886
  23.5624390  37.4582596  85.7999496  24.5012207  37.6328583  85.8665619
  23.4845142  36.8420334  85.0716476  74.4429779  49.6057434  42.7307739
  73.5445251  49.8151703  42.9860268  74.7983246  50.4326515  42.4049225
  32.9056358  70.3099747  10.3857422  32.9288864  70.6033096   9.4748917
  32.4175835  69.4869537  10.3599367  34.5854950  20.4367218  28.4259949
  34.2757835  21.2943001  28.1346703  34.9826469  20.6032162  29.2808514
  47.2539291  51.0125885  76.1974716  46.7322197  50.4822502  75.5951462
  46.6735878  51.1699066  76.9422455  74.8479691  11.7929249  59.4711647
  75.5554123  12.1297369  58.9213295  74.6586533  12.5058088  60.0812378
  60.4290237  41.9552612  50.2217979  60.3853607  41.4474106  49.4116020
  61.1877632  42.5271072  50.1054268  14.1489811  31.7580910  10.0771656
  13.9151173  32.0957108  10.9417763  13.3889713  31.2422485   9.8078632
  15.0340033  39.8970757   4.8641429  15.5688133  39.5987892   5.5998297
  15.5032358  40.6568375   4.5194535  27.9278011  53.3926277  88.8266525
  28.5468655  53.4779549  88.1015930  27.4497700  52.5847092  88.6396255
  39.0690880  64.4147110  21.1099663  38.1933136  64.4575195  21.4939175
  39.6484299  64.7426605  21.7977467  77.6513367  70.1072845  74.4950409
  77.3721466  69.2963257  74.9200363  77.7581253  70.7300415  75.2140732
  14.0856476  30.0752869  45.8124390  14.0897789  31.0142269  45.6264191
  13.1718140  29.8130856  45.7011299  23.4687691  11.1090097  10.2647495
  23.2298832  12.0350046  10.2235498  23.1236496  10.7362967   9.4534483
  17.6324253   3.6569419  74.0242233  17.1255932   4.4680839  73.9867859
  17.1986046   3.0744593  73.4007263  37.2622185  40.2072754  20.0682507
  37.9941330  40.2955780  19.4577312  36.4949112  40.0934792  19.5074272
  56.5438995  43.2977943   4.3579488  55.6060829  43.3861809   4.5279903
  56.9640656  43.6769180   5.1299334  19.3750191  20.5159874  86.5925064
  19.5793457  21.1602573  87.2702942  20.2173195  20.3291092  86.1779785
  77.9014664  52.1180153  33.1687012  78.2952194  51.3340187  32.7858963
  78.2363281  52.1409225  34.0651245  72.1429367  31.4356136  27.3183517
  72.4262543  31.6936569  26.4412098  72.9527359  31.3839397  27.8260841
  20.1310139  34.1313667  76.1364594  20.8281269  34.5083275  76.6732712
  20.5916252  33.6570358  75.4443054  58.9532852   2.0809650  56.0163612
  59.2998123   2.3900778  55.1793442  59.7159767   1.7307872  56.4766960
  42.4807587   0.4084845  60.8071365  41.5893860   0.7436053  60.7102852
  42.7031555   0.5803534  61.7221375   6.5222836  68.8983994  17.1387119
   6.0399799  69.6690216  16.8391266   7.4364939  69.1812515  17.1597729
  18.2675800  34.0696068  87.0378799  19.1929836  34.0300026  86.7964401
  18.2674026  34.4171829  87.9297409   6.2072525  37.3152351  40.8760338
   5.9997110  37.0839958  39.9706650   5.3852363  37.1889915  41.3499336
  66.5186234  49.4292297  49.0067520  66.8470306  48.8645668  48.3070831
  66.7651596  48.9781380  49.8141937   0.7078829  33.1354103  78.9550705
   0.2756311  32.3143349  78.7200699   0.7524186  33.1175652  79.9110718
   3.2777376  21.5765343   3.3776691   3.9291723  22.2106991   3.6771669
   3.0675766  21.8522663   2.4854608  81.4232101  33.9550323  26.9062424
  82.0479126  34.6129913  26.6011829  81.9249496  33.4121399  27.5143185
   5.2651844   6.3236971  58.7551575   4.5711489   6.6645684  59.3193855
   4.8111577   5.7530942  58.1350708  56.6230240  33.6621742  30.8753834
  56.5853119  34.5794373  31.1463852  57.1936493  33.6627541  30.1068649
  25.0626144   0.0624053  19.5969086  25.6626377  -0.6684524  19.7454090
  25.5781708   0.6986560  19.1013088  11.7762327  42.5040894  35.3328743
  12.1818104  42.5055504  34.4658470  11.0038586  41.9472237  35.2350578
  42.0021057   6.6802802  15.0221558  42.0552025   6.6715989  15.9778433
  41.1013489   6.9443436  14.8347073  30.0934601  63.1501694  33.7123260
  29.5443859  63.0252647  34.4863739  29.5995026  63.7598572  33.1641312
  14.3763590   5.8527288  30.3091984  13.6827946   5.3102913  29.9337482
  15.0530882   5.8783293  29.6327267  21.8143826  62.1166153  22.8640747
  21.7826271  61.2124863  23.1767616  22.6591682  62.1867599  22.4194965
  12.6399651  59.0728722  18.6989231  12.1115761  58.3680611  18.3243866
  13.0989285  59.4523087  17.9495144  86.2381668  47.6490784  79.5232697
  85.8919373  48.0694695  80.3104324  86.0410767  48.2641716  78.8168335
  72.3713531  58.6765251  64.9908142  71.5851517  59.0973701  64.6429443
  73.0585022  58.8951302  64.3613205  61.0324287   4.2651930  20.8901978
  60.4308014   4.9383960  21.2081223  61.1993828   4.5043869  19.9785252
  56.3244820  71.7399750  88.0654755  56.2074585  71.0561600  88.7249680
  57.2727356  71.8023453  87.9507828  42.6771240  31.0967121   1.4389515
  42.3958549  30.7250118   0.6029127  42.6296310  30.3651428   2.0544043
  25.3937473  18.0763874  57.8269386  24.5984211  18.5915413  57.6916313
  25.3156853  17.3487759  57.2099152  74.9680862  68.8500061  14.7444010
  75.0338745  69.5611267  14.1070490  75.6958160  68.2668610  14.5285854
  14.1919069  28.0162296  84.8696594  14.5477133  27.3970985  85.5070877
  14.5934296  28.8541336  85.0997238  84.9832077  60.6923676   0.0600327
  85.1140366  59.7753601  -0.1812360  85.7340927  60.9035339   0.6148355
  70.9112320  51.6525536   9.9724283  70.9634171  52.4511986  10.4974785
  71.7954102  51.2871933  10.0036488  68.5106583  22.8285675  32.7789764
  67.6625671  23.2559052  32.8987846  68.7298660  22.4843674  33.6448326
   5.4977608  46.1196022  68.7714615   4.5770812  46.1062469  69.0329971
   5.8326535  46.9474525  69.1160431  37.7196274  12.5464869  17.1822052
  37.5864639  12.9001369  16.3027573  37.1397400  11.7861347  17.2249413
  18.7172146  24.0177097  15.6471891  18.7250423  24.9528561  15.4430580
  18.0951805  23.9355526  16.3700695  34.9837646  51.6058044  34.8382454
  34.9075394  51.3220215  33.9272614  34.0810661  51.6400452  35.1547737
  16.5495090  15.6308708  32.3071022  17.5057278  15.6355219  32.2640533
  16.2699852  15.9824295  31.4618187  12.9734449   2.8611448  76.2986755
  13.4904079   2.0787802  76.4907379  12.1987524   2.7788141  76.8548279
   2.2159398  30.9778233  40.5427589   1.8395773  31.1918964  39.6890869
   1.5410943  31.2314358  41.1724358  62.2494850  27.8290176  20.6286621
  63.1173859  28.2311420  20.5929852  62.3729401  27.0391464  21.1550598
   7.0343657  28.8604908  49.7709770   7.0804410  29.7279797  50.1729393
   6.1567407  28.8188210  49.3911476  48.2610016  16.4295216  79.1108627
  47.3765793  16.1354923  79.3289871  48.2204666  16.6389198  78.1777267
  62.7026291  21.7783775  13.4876604  61.7477226  21.7975922  13.4243155
  63.0053062  22.1330128  12.6516867  44.8959732  13.2368469  83.8790207
  44.1277847  13.3983479  83.3312683  45.6059875  13.0817156  83.2560806
  13.7948055   4.5369954  88.5790176  14.3486643   3.7623045  88.6755905
  14.4047604   5.2419081  88.3615646  11.3767595  58.9339523   4.2680888
  11.2596207  59.8777657   4.1598048  11.5881357  58.8236351   5.1951175
  58.6813469  29.3120880   2.5087802  59.2086296  29.8767719   1.9436814
  57.8989143  29.1196136   1.9920732  65.0938721  17.7721767  11.4546089
  65.7891693  18.3231506  11.8140879  64.3144989  18.3275757  11.4730396
  11.6836882  31.3791237  74.1394196  11.7818022  30.8988495  73.3172607
  10.7417431  31.3728714  74.3095169  27.5871792   0.0283616  24.1286163
  27.7427750   0.6427289  23.4112778  28.4562664  -0.3058265  24.3505077
  73.2225037  58.1263351  70.6544647  72.6310577  58.6551132  70.1189041
  73.3648758  58.6503754  71.4427185   8.3290186  43.8339348  55.3244476
   9.0859127  44.2521782  55.7348289   8.0985842  43.1197586  55.9186592
  49.5479965  21.6142845  15.7313480  49.2411346  20.7668266  16.0536575
  50.2071381  21.3956013  15.0726042  36.6997414  42.0765038  10.2654600
  36.3111000  42.7673607   9.7288914  37.5934067  41.9897156   9.9336977
  19.7634621  15.5898752  76.1855392  20.0546398  16.1329975  76.9179764
  20.5712128  15.3392601  75.7372513  73.9564438   7.2571220  34.6814651
  74.1839066   7.9210658  35.3323631  73.0035248   7.1848950  34.7359276
   5.1779461  38.1940422  26.5705452   4.5196562  38.4127884  27.2301178
   4.8371925  37.4080544  26.1435356  81.3635559  43.9438553  36.5844650
  81.8268890  43.1671028  36.2710762  81.4626770  44.5828705  35.8787270
  32.8277702  67.6770935   4.6803331  32.7155151  66.9252319   4.0986648
  32.2763405  68.3598938   4.2983146  45.7831078  31.1150188   8.0720596
  45.3643570  30.4562645   7.5180526  45.6428642  30.8009548   8.9653282
  17.6873226  22.7812500  72.0975876  17.1333046  23.3938789  72.5812988
  17.7290916  23.1435661  71.2125931  85.3215485   7.9693556  79.9913177
  84.8399353   8.3885679  79.2781982  85.7377243   8.6941919  80.4578400
  33.2255707  36.3393288  76.8445587  32.4266281  36.3950348  77.3687897
  33.6823730  35.5701942  77.1851425  30.6474323  47.0641975  24.3077888
  29.7373924  46.7708473  24.3525848  30.9121094  47.1642685  25.2222099
  14.4070520  21.5416431  27.6404819  13.7267008  22.2138977  27.6026802
  15.0384359  21.8754349  28.2777958  66.9832916  24.9898319  84.7863235
  66.1153030  24.6016922  84.8966751  67.0112610  25.7001896  85.4272919
  37.6063995  35.6945801  72.7949753  37.6911621  35.9398346  73.7163315
  37.9511223  36.4470367  72.3141403  24.3626480  43.4558182  42.1267548
  24.1889038  43.8414459  41.2680740  25.0675793  43.9909134  42.4914169
  84.1902313   4.5245380  58.7948036  84.2860794   3.6853516  59.2451515
  84.3744202   4.3260722  57.8767014  67.2762146  37.4856796  68.5794296
  67.6309433  38.2351685  69.0576172  67.6692734  36.7230110  69.0037766
   5.5720577  69.1296844  53.1547356   4.7140222  68.7989044  53.4204254
   5.8767767  69.6367569  53.9072380   6.8535242   6.0895905  76.6281891
   7.0612135   6.3250685  75.7239456   6.3054070   5.3085270  76.5524292
  14.9556236  20.0631905  12.6931448  14.5425940  20.7855415  12.2200212
  14.2637701  19.7210102  13.2592573   2.8464859  64.6402359  77.8332291
   3.0693312  63.7106285  77.7842636   2.3325305  64.7213287  78.6366653
  16.9137917  51.8012924  58.1843643  16.2839909  52.1833229  58.7956238
  17.1189079  50.9436455  58.5566559  26.5285606  51.0200691  34.1098633
  26.9603367  50.2210617  34.4121628  25.8294868  50.7111893  33.5335655
  51.7750320  53.8379135   8.1414204  52.1108704  53.9684792   9.0282116
  51.9914436  54.6490135   7.6815133  13.5564699  36.2645569  77.7463760
  13.2430658  35.8840103  76.9258957  13.6654825  35.5151100  78.3317642
  61.4211082  62.5031509  73.7659302  62.2714462  62.7722816  73.4184723
  61.1291389  63.2495117  74.2893143  34.7992439  29.3920078  81.1238785
  35.7541885  29.3272743  81.1129684  34.5886841  29.6776943  82.0128555
   4.7539902  71.0813980  64.2873917   5.3941545  71.0983963  64.9988174
   5.2809711  71.1298828  63.4897842  74.5000610  33.8381233  63.5276909
  75.2559509  34.0830803  62.9939651  74.8605194  33.6975098  64.4032059
  14.4880657  34.5135155  25.1956253  14.2941370  34.0635796  26.0179291
  15.3518095  34.9023895  25.3333035   7.5931120  36.7116280  10.1049604
   7.4551258  37.6264153   9.8592796   8.5191755  36.6644897  10.3424807
  17.1269455  12.3287268  11.2706079  17.3974552  12.9213371  10.5692739
  16.5063572  12.8398838  11.7900505  50.3287811  12.8736982  30.0444527
  51.1722221  12.5865259  29.6946335  50.2301369  13.7708015  29.7255383
  11.5535526  57.9533348  28.1502533  11.6940079  58.8838692  28.3252201
  11.5022297  57.5516281  29.0175629  64.6426315  38.6748772  38.9291306
  65.5526733  38.3805428  38.9669762  64.3208694  38.5741463  39.8249817
  17.7851410   2.8581021  80.8839951  17.3771400   3.5981174  80.4343948
  18.7220440   3.0532484  80.8649063  42.6824722  19.0820866  82.9416733
  41.8669701  18.9693336  83.4300156  42.5101585  19.8180428  82.3543854
  82.7664642  52.9454079  41.7520943  82.3635406  52.0820618  41.8443832
  82.1196213  53.5514603  42.1133842  33.2140198  11.6996546  16.3261127
  32.3055611  11.6966372  16.0245762  33.7284279  11.5232191  15.5384026
  50.1166687  64.4442215  15.6972151  49.6564789  64.2303314  14.8856077
  50.1575661  63.6157150  16.1748486  52.1806068  36.9535294   7.5795975
  52.2357407  37.8874359   7.7821178  52.5567207  36.8759766   6.7028089
  61.9943428  59.3526917   1.7736905  61.6722336  58.6301498   1.2347940
  62.0269737  60.1004562   1.1770207  79.3556671  34.7494659  69.3863602
  80.2705307  34.5289612  69.2113266  78.9856339  34.9384079  68.5240326
  83.9358215  54.9936371  27.2231483  82.9889450  55.1240196  27.1715221
  84.1802139  55.3485565  28.0778618  34.4384041  19.3504372  11.2036572
  35.1962547  18.9721031  10.7578335  34.2354813  18.7275429  11.9015493
  40.9952469  40.7107964  20.1821499  40.3551750  40.3701363  19.5572548
  40.6723022  41.5842209  20.4036694  51.7883720  50.2252541  25.2108402
  52.0966454  50.1391602  24.3087387  52.5465508  49.9915848  25.7463722
  67.4459152  59.6040382  80.2588272  67.7460938  59.6260948  79.3501816
  67.9269485  60.3120613  80.6872406  22.1713963   5.0096264   6.8921256
  22.9363441   5.0385447   7.4668007  22.1048927   5.8960619   6.5371022
   1.6507300   0.4927182  37.3949890   2.3591659  -0.1437967  37.2990761
   0.9733126   0.0252954  37.8837166   2.0979586  32.5765686  75.8311768
   1.7223392  33.4012299  76.1395187   2.9152071  32.8310165  75.4027023
   5.2130661  13.5941525  84.4458160   4.7242246  12.8003559  84.6629562
   5.4469290  13.9709921  85.2940674  73.8541336  59.7246819  49.3797531
  73.2769699  59.4177780  50.0789833  74.6784668  59.2616310  49.5290680
  38.0260162   7.8853307  71.5208893  37.1870117   7.4495144  71.3713303
  38.2698326   7.6360941  72.4123306   1.0961299  60.7578926  76.0655594
   0.3383575  60.7344856  76.6499100   0.7985200  61.2607956  75.3074341
  37.9383736  48.5415306  19.7691460  38.1974144  48.9898911  20.5741920
  37.5322533  47.7279587  20.0681515  72.3561783  36.0051041  47.4836578
  71.5301895  35.8705254  47.0190544  72.1874771  36.7493706  48.0614510
  50.4465828  48.5496140  83.7708435  49.9275131  47.8049736  84.0746689
  50.6174812  49.0610466  84.5617065  75.2574615  28.4425716  60.5307236
  75.3068542  28.6611614  59.6001244  74.3685913  28.6879196  60.7875366
  63.3751564   7.4400201  68.8904037  63.2234268   8.3851147  68.8879318
  63.6436081   7.2381926  67.9940643  74.2224503  55.5716705  42.1680336
  74.2501678  55.6064491  41.2118645  74.0546265  56.4752007  42.4358025
  45.4995613  59.9680519  39.2578812  45.8363838  59.9091682  40.1519241
  45.0650215  60.8201485  39.2212830  36.6063080  12.9787149  84.7380447
  37.4699745  13.3836098  84.8178711  36.1624985  13.1976271  85.5573959
  31.4153385  64.5492249  24.4674644  31.1417503  64.1206055  23.6564999
  32.3704453  64.5795593  24.4119167  63.8190193  70.4220352  30.5651131
  63.1784401  69.7592773  30.3069439  64.1688690  70.1053925  31.3979225
   7.4708066  53.3546791  77.0783005   8.3057976  53.8091507  77.1900101
   7.0160007  53.8527718  76.3991241  62.2139969  64.4325714  14.0904884
  62.9618530  64.3308716  14.6792154  61.5306511  63.8829803  14.4741850
  47.7043877   4.8257661  68.8710403  47.7539711   4.3141637  69.6785278
  47.6805801   4.1706715  68.1735306  42.8138847  19.2727280  26.2086849
  43.6268539  19.7760296  26.2534218  43.0326881  18.4286861  26.6035900
  84.3682709  14.6395569   5.2495160  84.6876755  14.2106419   4.4556384
  84.1040039  15.5128641   4.9601498  63.7824898  43.7418022  82.5630493
  64.6363602  43.8895912  82.9696121  63.1610909  44.1788597  83.1453552
  51.9267006  60.7161331  48.5328064  51.9544373  60.5015602  49.4652328
  51.5129967  61.5785980  48.4977112  85.3881989  68.9338913  47.2403679
  84.9794769  68.9306564  48.1059113  85.9788666  69.6869278  47.2572365
  37.2792778  64.6990738   5.5588870  37.0358620  65.2899323   6.2715354
  37.8143692  64.0253983   5.9784980  30.6813831   7.6639385  76.3977051
  31.5010052   7.4722757  75.9419479  30.1012707   8.0018053  75.7153931
   4.4329586  68.1106186   8.5451889   3.8720312  68.7785797   8.1509523
   5.2729197  68.5503922   8.6767149  11.1181450  66.2675171  87.1023331
  11.2597485  66.9890900  87.7151260  11.5885086  65.5290146  87.4891129
   3.5273571  57.3746452  58.6146736   3.6941617  56.5092659  58.9882050
   4.0609322  57.9697495  59.1413422  71.4454803  70.3359375  62.1488953
  71.7417145  71.0807266  61.6256752  70.5821228  70.5967636  62.4695435
  53.0141068  30.2093658  77.3756638  53.6884003  29.7165928  77.8433533
  52.6933479  29.6025143  76.7085266  38.1664047  45.4931374  70.0658798
  37.6159897  44.7349815  69.8697205  37.6498413  46.0107498  70.6835175
  70.3800964  51.7032318  85.8385544  70.8809433  52.5135803  85.9319077
  70.7181625  51.3036957  85.0371094  27.5618286  70.6720657  28.8200684
  26.8075027  70.9086609  29.3597393  27.4837856  71.2259750  28.0433292
  25.5550098  33.3885880  73.4962006  24.8125210  32.7943306  73.3875732
  26.1708851  33.1302223  72.8105011  68.4201050  66.1922226  82.0828781
  68.5287170  65.4180908  81.5304718  67.4829330  66.2192154  82.2758102
  62.1138115  27.7021866  69.9667206  61.5753975  28.4573040  69.7297745
  62.6742439  28.0202694  70.6745071  45.8827744  28.2575989  15.0498896
  46.2181129  28.9044151  14.4290791  46.4849052  28.3037739  15.7925434
  40.3737755   5.0641575  39.3830338  40.5069046   4.1328788  39.5597458
  40.9402809   5.5107126  40.0122299  82.7341766   8.7220926   8.8367300
  83.6474686   8.4994316   9.0171766  82.2870483   7.8772225   8.7867556
  70.7198639  54.3993301  82.9135742  71.6117783  54.5789833  82.6161575
  70.6705093  54.8028717  83.7801437  66.6494064  71.4750214  24.8344593
  65.9814301  72.0748825  24.5024891  66.2555389  70.6068268  24.7488003
  71.0670013   2.0082018  60.9356079  71.5911636   1.5772891  60.2604790
  71.2370987   2.9419267  60.8112831  20.1482468  55.4313011  32.5324631
  20.1504822  54.7469330  31.8632336  19.2564735  55.7787590  32.5167427
  25.7497654  53.5731735  52.1270943  26.4498577  54.1183167  51.7680321
  25.2183514  54.1769104  52.6460686   3.0858457  69.6092148  56.5105705
   2.3629572  68.9832687  56.4675407   3.8676815  69.0843658  56.3388214
  14.8500986  33.6790085  14.0498762  14.5877876  33.8342056  14.9572573
  14.8838482  34.5515442  13.6577358  68.8062744  69.6723709  16.0012417
  68.2518005  69.0850677  15.4875603  68.2451172  69.9640961  16.7197342
  68.8185043  10.3845253  23.0291576  68.1209717   9.8415346  22.6619453
  69.6219864  10.0354652  22.6434002  29.2532158  60.6388893  30.8875542
  28.6380768  59.9755707  30.5747566  30.1163979  60.2853317  30.6727352
  69.9177856  29.8424015  25.1444950  70.5198212  30.5649624  24.9664707
  69.1195297  30.2674751  25.4580631  60.0854340  46.5814133  14.9227352
  60.7596207  45.9991608  15.2730055  60.1658173  47.3810349  15.4427099
  15.0105791  15.8401127  52.9349213  15.6989260  15.3075686  53.3334274
  15.4547424  16.3233585  52.2381973  47.2704163  63.1874084  10.2491302
  47.4033546  64.0529327  10.6356907  46.8853226  63.3649406   9.3909826
  53.0653915  46.1271553  60.9636536  52.3405724  46.7093582  61.1914902
  52.9213638  45.9149590  60.0414467   3.8087192  46.2584343  86.0021362
   3.6568513  47.1960526  85.8836517   4.6565113  46.0988274  85.5874023
  56.8650780   2.0061557  13.2955647  56.6193466   1.1397588  13.6199188
  56.3465462   2.6148269  13.8217564  63.6239166  13.1764431   4.8588157
  63.8730659  12.8266134   5.7142553  63.4555283  14.1049051   5.0195475
   8.7006378  32.7664452  16.7524567   9.6349325  32.7367401  16.9584713
   8.2835884  32.2749901  17.4601097   6.8488898  54.0927773  39.8793640
   7.4427891  54.4600868  40.5340385   6.1997857  54.7806740  39.7320709
  61.6498680  27.2136593  29.7441998  61.2992783  26.5160122  29.1904812
  62.5813675  27.0091381  29.8261318  79.0632248  33.5722046  50.3242340
  78.2964935  34.1004372  50.5463295  78.7510757  32.6682205  50.3644028
  29.9756699  38.3401947  13.4569912  29.2002487  38.8717880  13.2771015
  29.8111897  37.9611855  14.3204317  55.8155556  19.2894344  13.5553875
  55.0211830  19.6243744  13.1394291  55.6861267  19.4572277  14.4888353
  32.0482063  53.5513077  25.1370602  31.6281662  53.4535179  25.9915981
  32.9460945  53.8135872  25.3401375  21.6241150  42.2918854  19.4394016
  20.8955727  41.7441559  19.7317162  21.5904713  43.0597038  20.0099754
  21.5068607  62.2474251  51.0693741  21.6099339  61.8733139  50.1943626
  20.7453728  62.8227005  50.9957237  80.1232529  71.0145111  78.1062241
  80.1348267  71.3666992  78.9962006  80.9567413  71.2937088  77.7272949
  15.4260759   4.0618634  32.4053230  14.9187336   4.6279020  31.8235703
  14.9008484   3.2653608  32.4824677  63.1432343  26.7953491   2.6520329
  62.5562706  26.2465611   2.1319020  63.1518402  27.6366119   2.1954863
  36.8756676   8.5091915  30.6604404  36.2366257   7.8164463  30.8276558
  36.9169884   9.0001183  31.4811211  74.4058456  19.1434326  67.1651840
  75.2706451  19.3886318  67.4941635  74.2268982  18.2951584  67.5709381
  82.7417755  47.1112785   1.7212210  83.5457306  46.6184769   1.5568024
  82.3134918  47.1628838   0.8667378  59.8309212  22.1414585  61.4170036
  58.9582748  21.7817116  61.5760765  60.4177322  21.5786495  61.9221115
   6.8363476  69.2769928   9.1098423   7.2230377  69.2360764   9.9845009
   7.1352382  68.4766617   8.6781454   6.6085901  13.2975512   0.5445119
   7.5587792  13.2664652   0.4331259   6.4569840  12.9254818   1.4133109
  72.5517426  21.7064037  65.1426544  71.5979004  21.6737556  65.0694962
  72.8679657  21.3250866  64.3236084  77.3881073  64.4708557  74.6187897
  77.2587357  64.0229950  75.4548035  78.1245117  64.0131226  74.2133026
  13.3672915  51.7697601  44.1889229  13.7330294  52.0489960  43.3495827
  13.4667864  52.5321732  44.7590637  14.1472731  48.4398727  58.9170799
  14.2614965  47.9295158  58.1153793  14.0415058  47.7835693  59.6057777
  77.9589615  51.9338264  24.1271400  77.8749313  51.6675072  25.0426998
  78.7745209  51.5278053  23.8334866  31.6954155   8.4197130  16.2042427
  30.9658432   8.8565731  15.7648010  31.7630653   7.5699477  15.7688637
  14.8536530  32.7715950  75.8031082  15.5253773  32.9112511  76.4705811
  15.3456879  32.5864410  75.0032043  84.0092010  54.4748192  66.9614563
  84.2213593  54.0209122  66.1458664  83.0537643  54.4444389  67.0109329
  79.5320358  47.9339333  14.1004534  79.3089828  48.5896301  13.4397421
  78.9790192  47.1820908  13.8880033  29.6314068  47.7639389  83.9022675
  29.2530861  47.9875183  84.7526321  28.8876667  47.4608841  83.3814621
  73.5662842  41.9220352  12.4015160  74.4125366  41.8875999  11.9555378
  72.9401398  42.1387939  11.7107210  63.6777420  30.1686153  44.8246346
  63.1802559  29.6423759  45.4505806  64.5879517  29.9053555  44.9604568
  50.4722176  66.9979248  41.5292130  49.6146851  67.1089554  41.1186752
  50.2897110  66.9978256  42.4688530  61.4956512  56.8039398  83.7154770
  61.1468430  57.6444130  84.0124054  62.1563072  57.0359192  83.0628281
  33.4787369  35.9834290  79.9489746  32.9289169  35.2946205  80.3224335
  34.3417702  35.5791054  79.8599396  59.0416183   3.2263472  14.9142561
  58.3985252   2.5961709  14.5893850  59.8666344   2.7411749  14.9279299
  80.3425827  43.2066231  30.9495735  79.4982834  43.5955620  30.7212601
  80.4247284  42.4526863  30.3655682  78.9234085   6.6299262  20.5042858
  79.7231598   7.0952983  20.7493572  78.9654007   5.8078523  20.9928169
  23.0765095  32.3473969  71.2933044  23.5726910  31.6719704  71.7557297
  22.1608047  32.1463699  71.4864578  22.1950722   9.2247534  43.6691132
  22.4340153   8.8141947  42.8381042  23.0303211   9.4900665  44.0540810
   2.6997490  20.3314934  36.5190887   1.9813198  20.7021828  37.0316124
   3.3281007  20.0261230  37.1734238  31.2946587  67.0821075  55.3599739
  30.4064312  67.4349365  55.4128799  31.6349430  67.1552811  56.2516518
  47.5239944  23.6426620  85.4095840  47.1380692  23.7799435  86.2747116
  46.8950958  24.0322933  84.8022079  73.5529099   8.1648417  87.2965012
  73.2085571   7.6138740  87.9994125  73.7177048   7.5576372  86.5751266
  58.5081100  18.7025452   3.4343367  59.0196686  18.9664383   2.6695507
  58.3083229  17.7789402   3.2817783  18.9932060  58.4979324  52.9492226
  18.2426853  58.7884102  52.4309807  18.6442318  57.8031693  53.5075684
   9.6807489  44.8658295  17.2173538  10.5909166  44.6319618  17.3993778
   9.4231310  45.4180679  17.9555225  50.2024956  32.6838074   1.8563929
  49.7096939  33.2161713   2.4808683  49.6792145  31.8888683   1.7540073
  35.1265564  11.0181627  23.5530529  35.5840073  10.1798077  23.4887924
  34.1994781  10.7913542  23.4801369  67.3926086  41.8442345  27.3858948
  67.4327087  41.8981400  26.4310551  66.9214706  41.0294533  27.5602150
  29.2793541  55.8935814   5.5488114  28.8267937  55.0579567   5.6635036
  30.0083694  55.8581161   6.1680923  58.6143799  53.8876076   4.5718026
  58.7656212  54.7347755   4.9909315  57.7422562  53.9641571   4.1847944
  62.8236694  59.1545219  25.2428856  63.5659752  59.0164337  24.6545410
  62.2087440  58.4553986  25.0207996  68.9429474   8.0907469  16.1159592
  68.4553604   7.6494937  15.4204092  69.0402527   7.4268036  16.7985592
  67.4495087  27.4188080  86.4058685  67.6486969  27.8794136  87.2209778
  68.2855301  27.3818359  85.9411926  67.1290054  63.2790375  75.3985901
  66.4573059  62.6490211  75.6596146  67.6924438  62.7928162  74.7966309
  72.0315933  69.4450302  27.1208324  71.0945129  69.6094055  27.2261333
  72.2275238  68.7586899  27.7586250   8.3266315  40.8933678  75.0259018
   7.6049156  40.3633080  75.3641205   9.1084719  40.5223389  75.4349136
  73.1434784  13.6676064  80.4312363  72.5348053  14.2525158  79.9799805
  73.1317444  12.8632355  79.9124985  10.3123989  66.7870941   5.0122771
  10.4510126  67.6929016   5.2889199  10.5747337  66.7749710   4.0918069
  63.9742813   7.5977330  33.4106903  63.6948967   7.6951184  32.5003624
  64.7883835   7.0969319  33.3591042  85.9157257  12.6531801  38.1887627
  85.6153183  13.3850117  38.7276611  85.7368851  12.9285717  37.2896500
  51.0888977  46.3519096  75.7842178  50.8982620  47.0678444  75.1781387
  51.3856850  45.6355743  75.2229538  31.2287140  34.1592255  72.4387817
  31.5572338  34.1243019  71.5403976  31.8221455  33.5936737  72.9329681
  51.3445244  69.5586014  58.6154175  51.1445732  69.4558029  57.6849976
  51.0491676  68.7407990  59.0156555   7.5862942  61.5918884   5.4529610
   8.2552023  61.9510422   6.0358858   7.8493991  60.6814003   5.3187270
  64.0813980   7.2395010  66.3604279  64.2786560   7.1090398  65.4328995
  64.9386749   7.3189502  66.7787476  25.9296989  68.2336807  11.0956860
  25.3702240  68.3848724  11.8575001  25.6988354  67.3530655  10.7999630
  73.2935867  64.6679764  46.4717979  74.1576080  65.0172348  46.6902237
  73.2345657  64.7527008  45.5201836  11.3667269   9.0516262  46.7480011
  10.8961716   8.2565804  46.9984245  11.2764273   9.6315947  47.5041161
  70.9906845   1.4289379   7.6324167  71.1290359   1.6199428   6.7047272
  70.8181534   0.4878207   7.6600480  11.0555916  44.1766739  68.5674744
  11.9862022  44.3753433  68.6710434  11.0140696  43.2203941  68.5613251
  51.1972733  69.9705353  61.7177811  52.1198006  69.7168961  61.7467422
  51.2114143  70.8995895  61.4878006  29.6741009  54.2359467   1.8612591
  29.0431499  53.9839249   1.1870071  30.4230328  53.6576691   1.7165983
  42.2415695  62.7406540  45.6015625  42.2875824  62.6461449  46.5529747
  41.6836395  62.0172997  45.3157234  67.0670929  41.7713928  46.8532295
  66.6375885  41.4637375  46.0550385  67.0116119  42.7256355  46.8025017
  45.0423622  36.6258926  77.6499329  44.4727402  37.3242645  77.3273849
  44.7330742  36.4563293  78.5397797  73.8492966   3.2280700  21.5923653
  74.6089783   2.7408848  21.2733688  73.1856766   2.5576081  21.7546253
  16.3873138  23.2484188  10.4308081  16.3854618  23.5603962  11.3357382
  16.6239853  24.0177135   9.9127302  61.0232468  17.9304638  87.7035217
  60.8310738  17.5057049  86.8675308  61.0166740  17.2171001  88.3417206
  53.4859848  58.4544106  86.0197144  53.2811317  59.3493271  86.2906342
  53.5273170  58.4969101  85.0643539  35.9207268  47.8981018  82.3426895
  36.6687126  48.4064407  82.6562805  36.1718559  47.6211777  81.4615097
  85.8472137  14.8015146  42.6849136  86.5923615  14.2092524  42.5838623
  86.2338257  15.6235409  42.9866333  17.5649052  42.8269958  79.6878052
  18.2988415  42.2775993  79.4126129  17.8768063  43.7233429  79.5632553
  21.1623039   9.4853725  81.8754044  21.6772404   9.0885534  81.1728363
  21.7998447   9.9816933  82.3886642  37.3135719  15.5260677  12.5470772
  37.4407425  16.4445934  12.7845020  38.1793633  15.2289572  12.2671471
   3.9149666  61.6357574  12.9444990   3.1447663  61.5184364  12.3883886
   4.3640661  62.3957520  12.5744286  34.0056686  21.3898048  14.9326363
  34.4340401  21.5921860  15.7643652  33.1087379  21.1595402  15.1749735
  63.6172829  33.1544342  44.6481285  63.5005188  32.2116280  44.7652321
  63.5206070  33.5188599  45.5279465  13.7860031  65.9993973  47.6492386
  13.6644487  66.9243698  47.4350433  14.6847267  65.9448853  47.9741364
  50.3625526  61.6958771  22.3724480  50.5292358  62.5748634  22.7127857
  49.8571625  61.2641869  23.0612583  32.6157265   8.1968470  22.5421638
  32.8668365   7.4329958  23.0614967  33.2584991   8.2264795  21.8335037
  84.2038193  16.9744663  63.3374519  84.2746582  17.0548744  64.2886353
  84.0687103  17.8710594  63.0306969  55.1204643  65.5881577  17.3941250
  54.5914001  66.3858032  17.3847256  55.1575356  65.3145218  16.4776211
  80.6689835  68.4419403  65.0661545  81.4355545  68.3465271  65.6314011
  80.0536423  67.7809677  65.3834991  24.4101543  54.3191605  78.9741974
  24.5584736  54.9617538  79.6679611  23.4816742  54.0981178  79.0469818
  16.3455887   9.2970247  37.5983467  17.2631531   9.0468082  37.4901810
  16.3743992  10.0832310  38.1435814   1.3187435  48.9178314  65.4783783
   0.7628531  49.6801834  65.6397400   1.7631342  49.1156349  64.6539917
  79.9544678  19.6973648  85.3724213  80.2915039  19.1718807  84.6468201
  79.0452499  19.8789463  85.1345520   9.3428669  58.1412621  53.6766968
  10.0699425  57.7654877  54.1730690   8.7539244  57.4033813  53.5188828
  70.8006058  46.2906837  64.4162292  71.4176025  46.0573578  65.1098480
  70.9288788  47.2305069  64.2877426  12.6584311   2.8645189  79.9320602
  13.4175167   2.5180302  80.4010696  12.1922922   3.3876748  80.5841751
  86.8006973  20.7340450  22.5993118  86.0052109  21.2183304  22.3781834
  86.6179123  19.8352947  22.3253193  58.5298767  17.1617661  47.4480667
  57.9851646  17.7109928  46.8842697  57.9213409  16.5243130  47.8216591
  69.7846909  60.3099327  75.7810440  70.1837845  61.1548271  75.5734100
  69.9669495  59.7644539  75.0158920  70.8393860  58.2442284  37.1908302
  70.8344116  59.0431442  36.6636238  71.5700912  57.7326508  36.8435593
  72.1804199  61.6684189  52.6030884  73.0803070  61.9537201  52.4448814
  72.1993942  60.7229195  52.4550743  76.4498596   5.0808072  49.0767441
  76.5009842   4.4893332  49.8275948  75.6096725   4.8753195  48.6667442
  62.4476776  28.9666271  42.6003532  62.7300720  29.2133427  43.4810448
  62.8980637  29.5830479  42.0229378   8.8273077   2.4112418  17.3719749
   9.2105398   2.7839448  16.5779610   8.0460844   2.9406438  17.5321484
  29.7420750  70.4115906   8.7112513  29.8221588  71.1607590   8.1208630
  28.8188896  70.4034500   8.9640245  30.4829407   1.3749385  88.3189316
  31.0713444   1.9630157  87.8454590  30.1202888   1.9139373  89.0219193
   7.3808203  27.6037502  15.3418388   6.5600758  27.1628399  15.5614033
   7.4779682  28.2778301  16.0144520  11.5367060  35.7502289  25.4540596
  12.3971214  35.5462608  25.0875702  11.7272472  36.1778831  26.2889462
  43.9025154  48.1079597   5.3829484  44.7540665  48.5388832   5.4563899
  44.0957413  47.1763039   5.4874015  17.5962887  30.1035767   0.5647326
  18.3982315  29.9163189   0.0768235  17.8880138  30.2219296   1.4686801
  46.6610603  17.3595295  22.1543274  46.5185394  17.1353664  23.0739307
  46.4283600  18.2861042  22.0948219  17.3643036   0.5741673  67.1674652
  17.1918507   1.1414731  66.4160309  16.6395721   0.7460726  67.7686691
   3.5696611  52.9781990  53.5592690   3.7163906  53.1098137  52.6225815
   4.3104281  52.4435120  53.8449364  61.2400436  21.6244202   9.5494423
  61.0884399  21.1104336   8.7563047  60.3777847  21.6919727   9.9595375
  50.8845825  49.9807358  58.4677429  51.1401024  49.1043167  58.1799393
  51.6934395  50.3683853  58.8019791  74.6868820  33.5655975  87.6200333
  75.2673798  34.2266006  87.9972992  74.9471130  32.7480202  88.0443954
  56.7934380   4.9682178  56.1784439  56.6441269   4.7529120  57.0990868
  56.4915581   4.1961436  55.6999016  15.9605742  56.0965462  39.2384148
  16.4311943  55.9687576  40.0620766  16.1735878  56.9924889  38.9773674
  23.1915379  51.5673981  81.7118454  24.0537109  51.1678658  81.5966721
  22.7377110  51.3999786  80.8858643  67.6990280   5.1673961  34.4231758
  67.0878525   4.4385905  34.3157578  67.9570847   5.1298170  35.3441658
   8.4803047  29.6447277  85.2842102   8.4199238  30.3870010  84.6828613
   8.8206892  30.0210800  86.0958252  69.8797607  44.8666725  26.1089268
  69.1507111  44.7388268  25.5019913  70.3389435  45.6364212  25.7729530
  11.0237446  19.2482891  47.5278969  11.4210281  18.7520695  48.2435532
  10.0966530  19.0120640  47.5584106  10.4092503  53.2013741  50.0461388
  11.2325850  52.7766533  49.8053780  10.4303970  54.0417023  49.5882835
  38.5184288  30.3966236  75.6920547  39.4704208  30.3919563  75.7916718
  38.3190269  31.2627983  75.3367920  42.9912109  53.1812592  72.9488983
  42.5060959  53.1057968  72.1271896  43.2243385  52.2803383  73.1730042
  54.9622345  39.7635574   3.2314720  55.1833611  38.8838654   2.9257324
  55.8084831  40.1904716   3.3650327  29.5663986  27.3126774  45.4790993
  29.7624874  27.5961533  44.5861130  30.3920135  26.9523373  45.8027420
  74.5001068   9.5774651  31.3577156  73.7626877   9.1892099  31.8285751
  74.5559540   9.0756569  30.5445118  51.0314827  52.3147049  71.2270660
  51.2104149  53.0187302  70.6037140  50.6059036  52.7508240  71.9652481
  59.3063469   9.5198221  55.0531731  59.4210663   9.9251242  55.9127083
  58.6112404   8.8747625  55.1833916  76.9548340  50.5090294  80.0448761
  76.6507874  49.7146759  79.6058044  76.3437653  50.6298027  80.7716827
  81.6652832  57.0918922  38.8945312  82.2247925  57.6235046  38.3283424
  82.0289993  56.2088585  38.8297615  78.3286972  61.7657547   6.9002414
  79.1253281  62.1776619   7.2348185  77.7008057  62.4843521   6.8253508
  15.8589134  39.8226814  11.6275635  15.0679045  39.3496971  11.3690643
  16.3307571  39.9666023  10.8072701  17.5354576  53.7583122  73.6193695
  17.8934803  54.2033691  72.8512726  17.1397400  54.4581261  74.1388855
  51.4538841  64.6316452  23.6196690  52.1578217  65.1747589  23.2650890
  51.8821907  63.8090439  23.8565502  80.3401260   5.7018657   2.6524796
  80.9040604   5.7356439   3.4251823  80.4507599   4.8134203   2.3138709
  47.8703270  45.6278610  37.8284836  47.0955124  45.7090454  38.3846321
  47.6905174  44.8665199  37.2768822   0.5376593  36.6102486  69.9966736
   1.4275430  36.3499222  70.2345200   0.5937138  36.8337097  69.0676193
  48.4830856  65.7848511  86.5211258  47.8232117  66.4293365  86.2653122
  48.4091225  65.7316208  87.4739838  64.0439301  52.8843803  82.1716461
  63.9271622  51.9352798  82.1291580  63.2947311  53.2395248  81.6933060
  55.0510368  46.1152496   4.6796455  54.3875313  45.4968872   4.3736649
  55.8184166  45.9305649   4.1381135  79.3477097  43.9291420   6.4648275
  79.0120926  44.7630806   6.1359787  79.0791473  43.9083481   7.3833442
   7.9035630  60.9160233  68.2371216   8.4401960  61.3246193  67.5579300
   7.0019994  61.0959244  67.9705734  41.6741333  38.2705421   8.6883001
  42.2279739  38.5708847   7.9676862  41.4198990  37.3815994   8.4405508
  26.2994041   6.2412167  48.5826111  25.8473682   6.8482656  49.1686058
  27.2204609   6.4957676  48.6381836  27.6918163  18.1543064  83.4305954
  28.1197433  18.5965576  82.6974335  27.0797577  18.8033333  83.7775574
  46.1783104   7.2410936  48.1213531  45.6545105   7.5364223  48.8660965
  46.0599251   6.2913532  48.1068687   5.1048956  62.4515190  63.8696098
   6.0508914  62.5538177  63.7654037   4.7495842  63.3241463  63.7007790
  35.8513794  70.9582214  50.0817986  35.7118111  71.1589737  49.1563530
  36.8031464  70.9390488  50.1818352  76.6844635  68.0429688  64.8579330
  76.3386459  68.4411697  65.6567307  76.9758377  67.1729660  65.1307678
  48.2127151  66.9872208  48.7886887  47.8834534  66.2971344  49.3645401
  48.4243011  67.7107391  49.3785858  68.3833923  68.1588745  73.7501526
  69.2238693  68.1096344  73.2947311  68.0446777  67.2639542  73.7252350
  12.6925430   1.7409284  67.4958038  12.8011236   2.6597710  67.7410965
  13.4061842   1.2873381  67.9443588  18.7834549  69.0405731  75.2659225
  18.2872849  69.1375809  76.0787201  18.9107780  68.0963135  75.1742935
   5.8829288  10.6580305  68.4307251   6.6646271  10.1949453  68.1295090
   6.2111673  11.2932043  69.0671539  27.2922115  24.6454525  72.0981827
  26.9356709  25.1586170  71.3730850  27.1168003  23.7359161  71.8569183
  75.1352158  56.4980507  14.9760895  75.5085449  57.3774719  14.9171104
  75.8945389  55.9199753  15.0501547  56.5342636  70.8435211  41.2971382
  56.3134308  71.7744293  41.2678070  56.6980629  70.6652756  42.2232208
  57.2988968  37.3036919  84.2057800  56.5740929  36.7648964  83.8886108
  58.0840111  36.8691826  83.8725739  56.4725914  53.4924660  22.7029972
  56.9745865  53.1141090  23.4248581  56.3586082  52.7697220  22.0858459
  76.9178772  64.0208359  50.7572556  76.3461914  64.5114059  51.3478088
  77.7065887  64.5584869  50.6859283  60.3280640   6.8905377  49.4104233
  59.9688034   7.0848122  48.5447311  60.4405518   5.9399824  49.4152527
  86.4057465  24.8153648  29.0274792  85.6640320  25.3370323  29.3339920
  87.1266861  25.0600433  29.6076584  79.0914917   5.5879378  84.6864624
  78.2687378   6.0021620  84.4262161  79.7253723   5.8826909  84.0325928
  78.3759079  53.3844109  11.4743109  78.2448120  52.9207840  12.3014126
  77.5410309  53.8230934  11.3106956  76.9040985  65.2124405  12.7042828
  76.8304596  64.9459381  11.7878838  77.2255020  64.4319077  13.1556177
  59.0915833  35.9003639  24.3052711  59.1516876  36.8365250  24.4955921
  59.4251060  35.8156433  23.4120655  17.1034527  13.5662413  21.3671913
  17.4369431  14.0348988  20.6020927  17.1994133  12.6409044  21.1418571
  27.6739807  48.0764427  81.7238083  27.1225567  47.5522690  81.1429443
  27.0583363  48.6331329  82.2005844  44.9085236  55.9881783  71.2911758
  44.7574005  55.0855408  71.0107422  45.2902908  55.9067192  72.1651611
  11.0657778  64.2005920  77.5340500  10.6357698  63.8079529  78.2937622
  11.9208813  63.7722244  77.4948883  10.7881556   1.5128790  30.1719856
   9.9608088   1.8295734  30.5345268  10.6893921   0.5611535  30.1456013
  59.5624428   5.7978406  73.3020630  60.4212570   6.2161832  73.3625488
  59.3499031   5.8210440  72.3690491  23.8081951   2.1854000  35.3298531
  23.3709049   1.8099884  36.0941010  23.4513664   3.0709057  35.2606773
  60.0768661  63.2902222  50.3483620  60.4883080  62.5226860  50.7456474
  60.3752937  63.2781715  49.4389496  69.6591187  70.2549057  82.3327637
  70.0837860  70.5811691  81.5393829  68.9501877  69.6969681  82.0128250
  61.8904839   9.3263264  15.1301451  62.6630859   9.6015120  15.6236973
  61.4663620  10.1450253  14.8730736   8.7865629  36.1984863  83.2402191
   9.6754026  36.2311897  82.8864822   8.4623327  35.3323097  82.9935455
  83.5787964  23.3324833  45.8681641  84.3469543  23.8980236  45.7886124
  83.5826645  22.8091164  45.0667229   8.2421360  20.4553299  13.7479410
   8.9832649  19.9836960  13.3677826   7.5249295  19.8214779  13.7391691
  68.2592926  21.7091751  11.1696911  67.9012756  21.5787029  12.0477743
  69.2004776  21.8152485  11.3081064  37.0205193  27.1919765  87.4725952
  36.3328476  27.2155838  86.8071823  36.5574341  27.0044155  88.2890549
  62.8991127  64.0306091   2.6656590  62.2438087  63.3688431   2.8867333
  63.2277794  64.3342667   3.5118279  18.0648899  66.7915268  16.4202003
  18.3513775  66.3010101  17.1906223  18.1089268  66.1587372  15.7033558
  28.4849949  62.1000023  35.5269585  29.1554050  61.6338348  36.0264244
  28.1568680  61.4519806  34.9035530   1.8967184  64.1888962  88.6587906
   2.4434791  63.4798660  88.3203201   2.5144532  64.8907852  88.8636932
  38.4062729  42.3472404   1.8340526  37.6626434  42.7594414   2.2737556
  38.7404289  41.7150803   2.4704049  60.2962990  14.0148439  40.0120544
  60.1773720  13.3129187  39.3722191  61.0713539  14.4872122  39.7080994
  60.3065338  54.6547279  65.1951828  59.6005249  55.2615967  65.4176559
  61.1050682  55.1763000  65.2760315  70.4620514  41.7510490  37.4636002
  70.1436462  42.4756546  38.0019302  69.9580307  41.8158264  36.6524277
  23.1724606  54.7933540  69.7269363  23.5737076  53.9391785  69.8869781
  22.8001080  55.0451851  70.5720139  59.0300636  58.2113571  48.6279182
  58.3305244  57.5622749  48.5533142  59.7384949  57.8632965  48.0864296
  18.4180355  44.1944542  63.8816528  18.6824150  43.4334946  64.3986359
  18.9324341  44.9178391  64.2398987  27.7800922  36.3297844  76.2633820
  27.9028931  35.5893631  75.6693039  27.6379318  35.9281120  77.1205215
  27.4843941  22.5191917  11.7348871  26.6001339  22.8695660  11.6273985
  27.4103565  21.9010696  12.4619865  66.6110382  15.0923100  61.3402328
  66.9172668  15.2866964  62.2260475  66.8861008  15.8476448  60.8205757
  84.9281540  53.0127220  61.9039497  85.2415924  52.5989685  61.0997124
  84.7064590  53.9065208  61.6427841  37.5022392   6.3554521  85.9976425
  37.2685509   5.6557431  86.6075821  36.8015785   7.0005460  86.0933609
  85.9144516  53.2919922  64.9437027  85.3955002  53.0241013  64.1853180
  86.5615921  53.9010353  64.5880356  49.5902443  68.1845245  79.2311020
  49.5195580  67.5558624  79.9494476  50.5060654  68.4625626  79.2453918
  60.0441284   0.7920527  37.9315643  60.2721901  -0.0776769  37.6032486
  60.4599571   1.3966949  37.3169708  74.6929932  57.4226532  88.9471359
  75.2723541  57.9150658  88.3656693  73.8766098  57.9223862  88.9511871
  76.4112244  43.8448792  86.2367477  76.6754837  43.5268593  85.3734589
  75.4635239  43.9612808  86.1693344  48.5162773  25.0137844  69.5792313
  48.5107498  25.8223591  69.0669708  47.9501266  25.2007847  70.3280487
  24.2845383  11.2493105  86.4889069  24.2073460  11.8642101  87.2184067
  23.4760132  10.7378998  86.5201492  53.5372124  45.2109756  58.3638496
  54.4474754  45.3348198  58.6327591  53.5285912  44.3555489  57.9344330
  10.3804350   3.7586598  20.6599960  10.1414557   4.6347442  20.3573456
   9.6967669   3.1887922  20.3077450  59.8614998  35.6888313  58.6069336
  60.4970474  35.7447472  57.8933601  59.1650238  36.2953758  58.3554268
  74.3944550  15.7945137  73.7789001  74.6231003  15.6828413  74.7016525
  73.9091568  16.6190796  73.7504883  19.6824188  63.9667511  60.9674988
  18.8897514  64.0823135  60.4435196  20.3946800  63.9690094  60.3280373
  26.9294071  16.2037697   4.9731407  27.4595566  16.3302326   4.1862602
  26.4265671  17.0140343   5.0559340  84.6795502  39.6664581  12.5282269
  84.9009323  40.2092056  11.7714911  83.7484818  39.4725990  12.4197693
  82.4273148  58.3260498  75.3918381  81.7832870  57.9071617  74.8208847
  82.9216003  58.9047241  74.8112793  43.4686546   6.2096467  71.2216492
  43.4233170   6.7508254  72.0098801  44.3670502   6.3165154  70.9090958
  21.7606525  17.6808929  13.0230045  21.4189720  18.3361950  13.6313343
  22.3984509  18.1571274  12.4913616  45.9461784   2.4881155  38.5061188
  46.8342628   2.5134969  38.8623428  45.4506378   3.0962501  39.0546112
  75.5351486  29.2349052  36.3096962  75.0127792  28.4554138  36.4987831
  74.9202423  29.8407784  35.8961334  30.7586269  47.3506241  80.9164658
  30.9341259  46.5638466  81.4326248  29.8744164  47.6128578  81.1726685
  31.7170277  64.4128799  49.1286621  31.8827343  64.3473053  48.1881943
  32.2076836  65.1869431  49.4049149   5.9226804  67.0470581  59.8376122
   5.6254258  67.7922897  60.3596230   6.8540335  66.9667435  60.0434341
  60.9660301  58.1066055  51.3547134  60.2741890  58.4787521  50.8078156
  60.5742378  58.0421371  52.2256775   9.9188061  55.6663475  24.5143719
   9.5701647  56.2268600  23.8211861  10.5296717  56.2277222  24.9917965
   8.9286079  67.0720673  32.7377625   9.7237215  67.0313950  32.2063751
   8.2144899  67.0757904  32.1003799  17.6974411  51.8374100  70.0568542
  17.6559353  51.3496742  69.2342834  16.9955444  51.4659348  70.5912476
  24.7013474   8.6065083  17.7365971  23.9757710   9.1674013  18.0107689
  24.2787437   7.8225350  17.3858490   1.8851823  17.9508438  59.4641304
   2.4257014  17.8388405  58.6821289   2.5134614  17.9990139  60.1846695
  68.0624390  37.6562500   5.0398450  68.0123062  38.6026039   4.9051824
  67.8628998  37.2813606   4.1820154   7.5693154  60.8210602  26.0188484
   8.0331497  60.8464737  25.1819229   6.7183108  61.2179947  25.8331947
  55.1724663  14.5383835  46.6003761  55.6896248  14.8674192  47.3355713
  54.3848000  15.0822744  46.5991898  67.1734009   2.3723178  16.5588093
  66.8993378   2.0578122  17.4203224  67.2502441   3.3206837  16.6633530
  71.9275513  41.9627190  21.8540783  72.8408890  41.7250748  22.0139942
  71.5581665  41.2038879  21.4024582  30.5892849  47.4232254  19.6732197
  29.9554901  47.3981934  20.3900948  30.0805149  47.1936989  18.8955936
  55.1007843  15.4459038   9.2589874  54.9348335  14.9406443   8.4631205
  54.3425598  15.2707615   9.8163452  18.7046051  41.4094315  82.1520081
  19.3794842  41.4634247  82.8286591  18.7227821  42.2667351  81.7266541
  81.1357880  26.3195343  39.2865257  80.6202393  25.6677227  38.8115692
  81.9420853  25.8611259  39.5231209  11.0227451  47.4164200  53.6257935
  10.7510509  46.7031288  54.2034035  11.9782352  47.4201012  53.6828690
  13.5068369  49.7024727  24.8687420  14.0582123  49.3231468  25.5530872
  13.3451099  50.5994339  25.1612110  35.0900078  58.8616791  33.5115089
  34.6571007  59.3117943  34.2369232  35.5641327  59.5530052  33.0494461
   3.2427020  39.3250732  69.4873276   2.9564877  38.6778336  68.8428192
   3.2712488  38.8434410  70.3140411  26.6988792  53.7080078  27.5269470
  26.3170300  54.5502167  27.2797451  26.3690033  53.0937424  26.8711338
  49.8733292  65.6101379  72.3039322  49.6854973  64.7111740  72.0340958
  49.4606628  66.1530228  71.6322021  83.6445465  40.6971283  30.1203117
  82.8205795  41.1838074  30.1415176  83.8613968  40.6337166  29.1901569
  53.8702736  50.5820351  29.9184151  54.6777458  50.9235878  30.3025475
  53.2746010  51.3312263  29.9075756  61.8427086  54.0827370   9.7435751
  61.8661270  54.5028496  10.6033354  61.0141029  53.6036301   9.7335987
  61.3315125  21.1397038  26.9699001  60.4057121  21.2971420  26.7845917
  61.7880478  21.8636703  26.5413170  29.5901108  31.1559429  79.3299637
  28.6692219  31.2059860  79.0736618  29.9886303  30.5775623  78.6796646
  41.6585579  30.0958633   8.8545742  42.3003387  29.4025936   9.0086145
  41.8766975  30.4356613   7.9867120  26.8651409   3.1851354  28.8139114
  26.5140190   2.9830067  27.9466801  27.7032890   2.7239592  28.8464108
  70.0547867  44.0524483  22.7542782  70.5376358  43.2747574  22.4744816
  70.6691513  44.7750626  22.6253929  51.2186127  20.1190662  79.1039734
  51.7100143  19.3842888  78.7367401  50.4500923  20.1994553  78.5390396
   1.8972577  56.5349960  37.4221230   2.4482131  57.2107277  37.8171768
   1.3768139  56.1946335  38.1498032  31.9976616  56.2874641  25.0711136
  31.9307041  55.3339043  25.1208668  32.9038620  56.4769440  25.3142738
  24.7139111  15.7724838  78.1332474  25.3153496  16.3330460  77.6430664
  24.3725567  15.1599846  77.4816666  62.3445816  37.5028343  36.1840057
  62.9117737  36.7918854  36.4824677  61.4577980  37.1515656  36.2643623
  63.8307724  35.1366119  11.7638197  64.0577774  35.7943687  11.1065092
  63.1176300  34.6369514  11.3663235  27.9761372   7.2222438  78.2769318
  27.6785526   6.6163492  78.9555893  28.8486614   7.4925604  78.5630493
  35.2678299  10.5384827   8.0254469  34.3429031  10.6422806   7.8019056
  35.3343048   9.6444330   8.3608389  41.4716110  29.6186600  82.3061829
  41.2652245  30.5483284  82.4028854  42.4200935  29.5701923  82.4256134
  77.4717789  28.2154045  56.6755943  78.1969681  28.7734547  56.9564972
  77.2657242  27.6849289  57.4452477  50.5411263  52.9342918  56.4313202
  51.3566666  53.0987473  55.9579430  50.3179779  52.0285835  56.2165337
  57.7152748  52.3089714  76.9104691  58.2390251  51.5434494  76.6740646
  58.2149315  53.0536652  76.5757904  75.4943466  23.0452843  73.4952240
  75.0371017  23.7581120  73.0490952  74.8425751  22.6800785  74.0935974
  25.2408123  57.7996178  51.9977913  26.1910686  57.7375717  51.9008636
  25.0968838  57.8121414  52.9440231   5.9030256  30.1394024  15.7672501
   5.7662745  30.3051281  16.7000237   6.2220345  30.9724903  15.4202213
   5.0095677  53.2606010  68.1535568   4.2523565  52.6753426  68.1719513
   4.6368637  54.1299171  68.0065460  21.0544586  12.9475594  12.4562321
  21.9317589  13.2440233  12.2139816  20.8663654  13.4019079  13.2774620
  16.2322407  13.8118877  34.3699913  16.2486572  14.3548756  33.5818748
  16.6773949  14.3391066  35.0333977  69.8085098  26.8387299  61.7118530
  69.3205032  27.3726254  61.0849266  70.1298676  26.0985146  61.1970291
  16.3669567  29.2533894  28.9411297  16.5474339  29.8366337  28.2039146
  16.0206776  29.8291855  29.6228771  36.2506065  70.5103607  55.2758255
  36.7625580  69.7042847  55.3419418  36.0038109  70.5622940  54.3524475
  17.4397793  68.0491867  12.9416447  18.3657703  68.1935272  12.7468662
  17.2756882  68.5723343  13.7262611  54.2658539  30.5771332  53.5197487
  53.4126625  30.3753643  53.1355705  54.1238632  30.5152702  54.4643326
   0.3945295   3.5570221   5.3478503   0.9056558   4.1230292   5.9263120
   0.2829586   2.7459254   5.8437395  34.6467285  19.7617359  20.6483250
  35.1446609  18.9847755  20.3941097  34.2689438  20.0826244  19.8294582
   5.1564965  19.2644463  76.0616302   5.7403846  18.6390915  76.4908676
   5.2343788  19.0636196  75.1289825  59.5380325  39.5101166  17.2769985
  60.4373627  39.4619598  16.9527836  59.1022301  38.7518921  16.8878918
   2.4570558  20.9457550  44.0122795   1.9934357  20.7152710  44.8173637
   3.3680980  21.0570736  44.2840195  74.2865143  69.0103531  38.8763199
  74.9436722  69.5208740  39.3493423  74.6816864  68.8458939  38.0201492
  65.9141312  10.3856192  22.1538391  65.7240753  11.2923117  22.3947048
  65.4735870   9.8625088  22.8235455  85.9979172  25.6500149  64.3217697
  85.0455475  25.5740452  64.2630081  86.1950073  26.5005455  63.9293556
   4.4231830  42.2756996  71.2499084   5.1380773  42.5552444  71.8217621
   4.5244322  41.3259735  71.1866913  59.1926498  51.3645935  40.7650414
  60.1037178  51.6569672  40.7915077  59.0546761  50.9340439  41.6087379
  81.6504059  29.2621861  54.3328552  82.1799850  29.7094383  54.9929619
  80.8042679  29.7087822  54.3617897  26.9240589   6.6684127  18.1030083
  26.2737885   7.3687410  18.0489597  27.3523159   6.8039317  18.9482670
  53.7630463  52.8118668  36.2461739  53.9680328  52.1184578  36.8733902
  52.9369736  52.5378723  35.8477211  23.3414097   1.7130897  50.4228783
  23.0399857   2.5958195  50.2080193  24.1214943   1.5881940  49.8824158
  85.7943344  67.9616928   7.6689348  85.8128662  68.9172440   7.6159263
  86.5730667  67.7348557   8.1772184  11.7260590  54.3704605  46.3708839
  11.4561710  54.3233604  47.2880402  12.5597763  53.9010773  46.3421440
  10.4951687  23.2359562  81.0666122  11.3269873  23.6024132  81.3666458
  10.7454014  22.5376339  80.4616623  63.3725739  50.2458153  85.8242950
  63.6393890  51.1262360  85.5599213  64.1930008  49.8001289  86.0352554
  58.2798882  65.2801285  33.5328140  57.5938683  65.8797989  33.2395630
  58.7997284  65.1085281  32.7476082  37.3938675  46.7261887  79.5202179
  37.3117867  47.6092224  79.1600189  36.8852463  46.1762161  78.9243393
  37.8668747  62.5373459   7.6261029  36.9659004  62.2505875   7.4769573
  37.7884026  63.2586975   8.2503853  80.6510086  69.1560516  85.8687515
  81.1255417  69.3600235  86.6746292  79.7302170  69.2922211  86.0919952
  39.1408958  65.0527573  18.1969986  39.3692398  64.6931534  19.0541897
  39.3584785  65.9826584  18.2616863  53.4012184  28.3719883  75.0945435
  53.1423340  27.9463749  74.2771912  54.0511818  27.7820702  75.4763565
  14.4536772   3.7572699  44.4445534  14.6404524   2.9197140  44.0204697
  15.3050632   4.1906443  44.5042191  77.2398834   2.1447508  37.5702553
  76.3763809   1.9208843  37.2231445  77.8244247   1.4806390  37.2048874
  83.7939835   4.9452429   0.1185410  83.7695160   5.6109476  -0.5688240
  84.2444992   5.3707047   0.8480939   3.4119120  26.8030682  83.0345078
   3.2780211  26.1261196  83.6978683   4.3608136  26.9253845  83.0052490
  23.4503384  69.9051743  15.5715265  23.3571320  69.7278214  16.5075245
  22.6114292  70.2885971  15.3156986  15.4388971  22.4379616  19.2392025
  15.8684273  21.6032772  19.4263859  15.0358076  22.6914158  20.0695705
  13.4187288  56.9614449  73.1746826  13.0096121  56.2133827  72.7396469
  14.2157774  57.1251831  72.6705704  15.3661804   4.7631731  14.6438665
  15.4440804   3.9090006  15.0687819  14.5752134   5.1474900  15.0218935
  14.1348677  69.2582855  35.8411331  14.7970676  69.0063171  36.4847450
  14.6160727  69.7681351  35.1894226  32.4385147  51.0964127  12.8343506
  32.1298370  51.8585815  12.3444033  32.5428047  51.4143486  13.7311630
   3.9067199  56.7922859   0.3135625   4.7926598  56.5952721   0.0093784
   3.9207122  56.5784912   1.2464762  84.6233673  24.2591648  20.1197052
  84.6278076  23.6083126  20.8215618  84.8618393  25.0792141  20.5520058
   7.2571144  50.0157814  59.4214211   7.3884473  49.0682068  59.3883972
   6.8898435  50.2366486  58.5655251  69.8160934  22.3688717  64.4111099
  69.6563644  21.4742889  64.1103821  69.3946609  22.9216251  63.7530136
  40.0100098  45.6006775  11.8176212  40.3805771  45.6024513  12.7001791
  40.3363457  44.7922325  11.4224567  68.1050644  33.2229691  41.5116920
  67.2005692  33.3576927  41.7944946  68.3327789  32.3543396  41.8431396
  79.4878922  33.6435738  78.6327667  78.7673645  33.0150375  78.5879593
  79.0740128  34.4934998  78.4825668   7.3677607  58.5027847  41.6529388
   7.7245007  58.4258499  40.7680397   8.1178207  58.3500824  42.2276764
  53.0324402  69.7490616  86.9969177  53.9398804  70.0389557  86.9033890
  52.5966682  70.4692917  87.4525452   0.3917443  67.5948257  10.5661077
   0.9014758  67.0417557   9.9740629  -0.3035714  67.0220871  10.8897371
  52.4843369  22.7964153  53.3528976  52.0006218  22.9551735  52.5423126
  52.4059792  23.6149940  53.8428154  68.0300751  47.4566956  58.4763794
  68.9035187  47.4790878  58.0854378  67.8986893  48.3404274  58.8198700
  52.6467934   6.3224506  48.9702034  53.5793762   6.1370773  48.8599434
  52.3313637   5.6281934  49.5487709  34.3848267  47.5084496  29.7105293
  34.5311050  46.5810814  29.5239182  33.6736336  47.7618866  29.1221409
  65.3201675  11.1719542  59.1310005  65.1215591  11.0883217  60.0636253
  64.5496292  11.6015720  58.7596092  53.9370384  59.8726082  60.9005089
  53.3828316  59.0971870  60.8121109  54.1338120  59.9209785  61.8360138
   3.1938651  13.0839539  70.6467056   3.1395454  13.5606461  71.4749832
   3.8524921  13.5588226  70.1398087  41.1168442  37.2589378  84.1302643
  40.7670441  38.1431007  84.2403717  40.7445374  36.7616539  84.8584976
   1.0065333  18.7047882  34.9513588   1.0998567  17.8809414  35.4296837
   1.8087282  19.1883831  35.1484680  53.2284203  67.4722595  54.8131905
  52.7995262  66.6226578  54.9154205  54.1638832  67.2694626  54.8098221
  43.5761147   8.9614315  14.6198521  44.2332878   8.7832499  15.2926111
  42.9705582   8.2221670  14.6748095  49.0621796   6.2719994  51.6387520
  49.1683998   5.3317413  51.7831955  49.2491150   6.3939528  50.7079391
  71.3590775  41.5987473  84.6692581  72.0294800  41.0972061  85.1332092
  71.3620300  41.2391930  83.7821579   9.3678885  51.3511086  14.6040125
   8.5999241  50.8196640  14.3941813   9.1390505  51.7896194  15.4235077
  53.5481071  42.3115807  37.1175537  52.9280663  41.7996597  36.5982094
  53.2057304  42.2683411  38.0103798  74.5384140  32.8011360  51.7386932
  74.5150909  33.4943619  51.0790520  73.6579514  32.4259453  51.7230873
  23.0866013  60.3841820  26.5992107  23.5292416  59.6844254  26.1189594
  22.1563110  60.1687355  26.5330734  20.6024075  49.2431221  86.4095993
  19.7033691  48.9438324  86.2740021  21.1394939  48.6140137  85.9279404
  54.7738724   7.9295759  64.9984360  54.9736061   7.5762935  65.8653488
  55.1458969   8.8114738  65.0076599   8.2974987  48.4266014  41.4577866
   8.3409081  49.2476501  40.9676590   7.3989801  48.3906975  41.7858238
  72.7794952   0.0488568  82.5193176  73.1497574   0.9308591  82.5541153
  72.9745789  -0.3268404  83.3778229   5.5393476  58.8160667  43.6712036
   6.2740545  58.6957970  43.0695610   5.4316263  59.7653046  43.7309608
   7.7862821  67.5251312  45.7084885   8.1416826  66.6369400  45.7405891
   7.5721951  67.7304840  46.6185608  42.5528870  12.1849699   4.5282350
  43.5019608  12.2240734   4.4100919  42.4009323  11.3505201   4.9718962
  80.0112000  52.0398483   9.0109768  80.4461365  51.3217163   9.4707060
  79.4476013  52.4411888   9.6724234  44.2655258  46.2836494  27.7444592
  44.0179291  45.5763474  28.3399830  43.9306259  46.0068893  26.8915367
  -0.1606606  28.1652336  63.0234566   0.5198538  28.3692703  62.3819733
  -0.2059149  28.9426212  63.5801010  62.3794289  31.9014530  12.9338083
  61.6317482  32.2296486  13.4333048  62.0507545  31.1138535  12.5003433
  34.7293282   4.8631783  49.2089157  34.6169853   5.1757865  50.1066284
  33.9519005   5.1769524  48.7469788  55.5474854  61.9635353  49.0366096
  56.3377762  61.4322433  48.9396439  55.5978889  62.6001587  48.3235855
   0.6499816  69.1803513  71.2469330   0.5050133  70.0479355  71.6244431
   1.0169146  68.6648788  71.9651794  38.5351906  59.6765938  64.8281479
  39.4829712  59.5988235  64.9372177  38.3685188  59.3520775  63.9431915
  77.4702988  61.3685226  78.3732986  77.9405746  60.8989983  79.0622253
  76.5846786  61.4779320  78.7196274  82.5886154  55.2564888  19.5257206
  82.5911407  56.1612244  19.8382511  82.7801895  54.7336159  20.3042660
  86.9986496  48.0126495  16.6575146  86.8701477  47.2585869  16.0820980
  86.1401978  48.4344292  16.6949253  28.0733452  65.0531921  75.1770401
  27.5140934  64.2885971  75.0396652  28.6955681  64.7770157  75.8499451
  71.9659576  66.8504410  61.2765694  71.7512665  67.7256622  60.9538879
  72.8956146  66.7425079  61.0757713  27.9751759  30.9170952  76.5590057
  28.4371090  31.6579552  76.1666107  27.4066391  31.3122139  77.2199707
  43.1028595  44.0460930  82.7349319  43.8845444  44.5360794  82.4797668
  43.1429443  44.0119705  83.6906815  57.0607948  46.0780602  32.0832405
  57.2508354  46.9212532  32.4945068  56.9305344  45.4775505  32.8171730
  57.1504364  62.2750359  20.4501152  57.9378433  62.1727791  19.9155502
  56.4717827  61.8003883  19.9701424  36.6333199   8.2258043  42.3567734
  37.4757881   8.1081419  41.9178734  35.9998856   7.8036942  41.7764168
  56.5439949  59.6850243  80.5875702  56.0735016  58.8764381  80.3849487
  55.8672752  60.2826233  80.9056244  26.7822742  54.2585220  77.5509796
  26.8147488  55.0607071  77.0297470  26.0516071  54.3942833  78.1542435
   6.6284480  19.1972084  10.4570370   6.1568093  18.6749001   9.8082056
   6.0137596  19.8896370  10.6997957  28.4662590  61.6982918  23.6871243
  28.6572247  61.8310280  22.7586060  27.9455223  62.4618874  23.9360943
  49.2597885  43.8017960  81.3762436  48.6895409  43.9636765  82.1278000
  49.4082909  42.8562508  81.3875351  21.6636009  35.8084145  69.9548264
  21.4650402  35.5004425  70.8391113  20.8677044  36.2600784  69.6741562
  34.2817764   5.9116168  62.8607063  34.5855255   5.1152878  63.2964020
  33.6665916   6.3038664  63.4803200  28.9995308  37.0318642  68.1901703
  29.1023712  36.1104317  68.4281158  28.1604671  37.0684471  67.7309723
  34.2296257  55.1779709  26.7048054  35.1712303  55.2204552  26.5380440
  34.1526108  54.6778450  27.5173168  72.8285141  69.3589172  19.7310200
  73.4488144  69.0956421  20.4108353  72.8276367  70.3155060  19.7650490
  84.2206345  27.0372353  61.1065521  84.7058640  27.7714329  60.7300758
  84.3610229  27.1160278  62.0501175  83.5047073  57.1863747  67.9105606
  83.7165375  56.3267593  67.5466690  83.6035843  57.0770645  68.8563461
  49.2018013  40.0260544  10.1141281  49.4690437  40.6623611  10.7773991
  48.7474785  39.3427773  10.6070309  49.6067200  65.4751892  18.6649666
  50.3623123  64.8896255  18.6156502  49.1545906  65.2156830  19.4677563
   7.8791146  26.6389751  84.9257660   7.8671503  27.5954227  84.9617462
   8.2209702  26.3714581  85.7788773  79.0078430  42.5781746  37.0821228
  78.5851135  42.2673340  36.2815552  79.6662674  43.2029648  36.7782288
  81.9357758  54.9390907  35.5653229  81.7947083  54.0516968  35.2353783
  81.2587967  55.0573235  36.2316246  63.1228981  35.6439018  24.1685028
  64.0753098  35.6110268  24.2583504  62.9582253  35.3760719  23.2644100
  81.3501434  24.7558956   8.0614882  81.0918274  25.0475063   7.1871490
  81.7054901  23.8775234   7.9257584  41.3853798  58.8977051  18.9202766
  41.4229126  59.4464417  19.7036743  41.5853691  58.0162849  19.2354412
  26.0648270  50.9986267  52.3167763  25.7364063  51.8803482  52.4926643
  26.9026737  50.9586983  52.7779198  33.1672363  54.0118027  36.6408119
  33.8580132  54.5469017  36.2500038  32.8339424  54.5422020  37.3645668
   5.0767398  61.1167946  38.1074295   5.6854806  60.3965454  38.2714653
   5.6186171  61.8053055  37.7220001  49.9885788  48.5636940  41.9606133
  50.3315506  47.9716187  41.2912483  49.8766212  49.3990440  41.5068588
  80.4920883   6.9863958  64.1875916  81.1174393   7.6398168  64.5009766
  79.6912918   7.1655793  64.6803894  77.5952759  63.6030960  19.4094124
  77.3194962  63.8837051  18.5368099  78.5298767  63.8072357  19.4424133
  21.5679512  66.4975128  61.3705826  22.1028042  65.8181534  60.9599342
  22.1264858  66.8586044  62.0589752  54.6612396  64.3306274  41.7309875
  53.7451782  64.5171814  41.5254097  54.7263184  64.4634018  42.6766968
  80.0544434  42.4774055  51.8964195  80.3014297  43.1776352  52.5004959
  80.7213821  41.8031082  52.0258369   8.6176796  18.7464657   1.1934689
   9.3675394  18.8665867   0.6107924   8.6824799  17.8363094   1.4826914
   7.7380328  46.8509216  51.2876549   7.1028008  46.6775055  51.9823799
   7.3421607  46.4743919  50.5016899  46.1851311   1.2237474  49.4920578
  45.2767563   0.9275416  49.4341583  46.7036743   0.4519546  49.2647285
  83.2742920  66.7416306  34.4574165  83.5667801  67.5936127  34.1336746
  82.4456787  66.9252014  34.9000626  14.8980732  43.6390457  50.3437576
  15.1517010  42.9458542  50.9531784  13.9416370  43.6048355  50.3266983
  70.6947327  39.8436432  20.5121956  71.0516434  39.4002724  19.7426033
  70.1790085  39.1717072  20.9580288  29.1517143  10.0750608  51.8044624
  28.3425827  10.5387278  51.5887070  29.8478622  10.6372757  51.4645729
   2.9074678  69.1563492  53.8677139   2.8458490  70.1088409  53.7955666
   2.0707302  68.8904037  54.2489929  40.9854355   4.3354816  83.5031891
  40.9347076   5.2090974  83.1153030  41.1860657   3.7577627  82.7668304
  20.2037277  67.1714478  59.0300522  20.7155361  66.8309784  59.7637863
  19.5087109  67.6855850  59.4409637  53.6441460  69.0030441  33.8098450
  53.9905548  68.8209915  32.9362946  53.6201668  68.1487045  34.2408371
  54.2439308  43.8140106  25.0579205  53.3689842  43.4875755  25.2680283
  54.8360138  43.2485504  25.5538311  69.6701355  64.0596466  30.4631443
  69.3519669  64.0657120  29.5603924  69.1889191  63.3460045  30.8819160
   9.7170944  61.6035919  63.0706062   9.5248709  61.4331512  63.9926872
  10.6428680  61.8466148  63.0598831  78.1146927  61.8313980  50.0581779
  78.6203842  62.1923752  49.3300285  77.5780563  62.5630455  50.3630562
  40.4365273  48.0573730  17.7032223  41.1665916  48.5805931  17.3723469
  39.8163757  48.0239105  16.9748516  75.9223022  21.0519581  77.5171127
  75.6820526  20.4815884  78.2473068  75.2024231  21.6799507  77.4568253
   8.0041780  21.2119808  20.4639931   7.5793390  20.5123940  20.9603004
   8.2375078  20.8058014  19.6292439  23.2364311  34.6124496  11.6791620
  22.3234215  34.8071594  11.8906651  23.2084866  33.7468987  11.2713976
   7.9318304  44.1113548  34.6084824   8.5274792  43.7671051  33.9429550
   7.4088340  44.7662773  34.1461143  27.5937080  60.4810715  79.9424057
  27.7488880  60.0741730  79.0900040  28.3436756  61.0618820  80.0706406
  78.1099396   1.8132799  33.0364265  77.7631760   2.6244726  33.4078484
  78.9698257   2.0555964  32.6927452  74.6173096  37.2574730  11.8646364
  75.2832565  36.7280235  12.3033018  74.8499451  37.2146263  10.9371243
   2.9361048  70.2468338  85.3580475   3.8476386  70.1137924  85.6181183
   2.9003170  71.1584244  85.0682983   1.8133074  68.6135559  32.4631348
   2.0761855  69.5334778  32.4927139   1.9248642  68.3619385  31.5463600
  77.3687286  53.5260239  21.9062710  78.2453918  53.7108383  21.5693321
  77.5086975  52.8747902  22.5936813  54.4762001   1.1099936  31.7439365
  54.0170593   0.3570809  31.3717232  54.4380531   1.7767507  31.0582180
  13.7123947  49.6642685  83.4607773  13.0388784  49.4008942  82.8336945
  13.3162670  50.3863335  83.9485703   6.8702049  67.5721741  21.3224392
   6.8373919  68.4357452  20.9108601   6.0259328  67.1738052  21.1109238
  72.9446030  43.6046143   1.7106441  72.5961227  44.4953690   1.7474002
  73.7871094  43.6952133   1.2654388  59.4205284  24.0720959  48.6786423
  59.0942497  23.2134514  48.4093742  60.0606575  24.3065681  48.0067101
  74.9971161  65.0711288  16.1980610  75.9409637  64.9416885  16.2909660
  74.7698059  65.6856308  16.8958759  53.7968636  56.8070869  47.2355385
  53.7799988  57.6149597  46.7224236  53.9556961  56.1173363  46.5911407
  22.0667267  23.2060013  57.7715912  22.8148670  22.8878956  57.2662926
  22.0440636  24.1472740  57.5991783   0.3854777  62.5110779  73.9345245
  -0.3555982  62.7967186  73.4002533   1.1555448  62.8430328  73.4729691
  35.6986427   6.3156662  66.8129959  36.6509743   6.3009672  66.9082947
  35.4406357   5.3943973  66.8434753  48.1411476  60.1918297  74.3906555
  48.2543373  61.1298180  74.5442886  47.4531784  59.9302025  75.0026093
  71.0787506  17.5833740  63.6828918  71.6693726  18.0696430  64.2581711
  71.6602554  17.0901184  63.1042900  37.9615784  24.5458508  11.6940346
  38.7762947  24.0622330  11.5577087  37.3219948  23.8750401  11.9331598
  81.9481201  17.8860836  12.8817244  81.3135834  17.2820835  12.4960127
  82.7758408  17.4055767  12.8668575  26.1560040  58.6624184  57.8856468
  25.7319527  58.1423378  58.5682335  26.6302261  59.3431702  58.3630600
  73.7075577   9.9216785  83.0875320  74.0702209  10.7594471  83.3753662
  73.4199905   9.4951639  83.8947601  62.0006866  37.7075081  26.2737007
  61.2640381  38.2804146  26.4866829  61.6409683  36.8225021  26.3336964
  43.9037018  15.7757959  87.4722824  43.2462845  16.4710712  87.4973907
  44.7080841  16.2165241  87.1984940   9.4541798   6.5091748  12.9294386
   8.7450476   6.9802060  12.4918394   9.3522005   6.7291789  13.8554144
   5.9731727  54.6167336  50.1061592   5.0259314  54.6450157  49.9713745
   6.2778087  53.9234390  49.5206947  60.4556503  48.0296555  78.2645416
  59.9084396  47.9774513  77.4809189  60.4687157  47.1361046  78.6075058
  66.3595734   7.7009931  75.1303558  65.7393341   6.9944901  75.3103180
  65.8617096   8.3293524  74.6073608  50.1521759  46.9241066  64.0215607
  50.8678474  47.4893837  63.7308540  49.4971352  46.9905357  63.3267632
  13.5852308  15.6777420  13.7795458  13.8418112  16.4159107  14.3322706
  12.6795511  15.4947739  14.0295439  61.7402153  23.8259144   4.3882785
  62.3353157  23.3962193   5.0026460  61.3505363  24.5403366   4.8922462
   8.8575954  25.1503487  60.4367714   7.9453659  25.0878468  60.7199020
   9.3524895  25.2682495  61.2475777  54.8881187  31.8988113  80.9867401
  54.5800514  32.8000565  80.8914185  55.1042023  31.8165264  81.9155884
  46.7498512  67.2973404  33.5043488  46.8869133  66.8768768  34.3532639
  47.5422745  67.0959702  33.0066032  15.6029768  46.6386719   5.9512711
  14.7955074  47.1418915   6.0561309  15.3205109  45.8108559   5.5624747
  71.2828064  35.1051407  52.0745087  71.8223190  34.7537308  52.7827988
  71.6768188  35.9535713  51.8716469  59.3102036  29.1570187  23.5370216
  58.9991875  28.9798851  22.6492577  59.4704094  30.1006145  23.5508671
  51.7714767  27.5510979  24.5641537  52.0158806  27.1052303  25.3751411
  51.1905785  28.2580643  24.8452015  76.9590073  26.9396114   7.7819252
  76.5974121  26.5199776   8.5625563  76.4414368  27.7380409   7.6776953
  40.2385025  70.3752060   4.8932271  40.6459846  70.7198029   4.0985918
  39.8068008  69.5689392   4.6107268  74.1626740  67.2136765  24.5596104
  73.6708298  66.4068146  24.7122307  74.4782486  67.4693985  25.4263573
  79.4238281  17.9755611  16.0801735  79.2365341  18.8291702  15.6896544
  79.4052429  18.1346416  17.0238781   1.2763010   0.9924348  11.4966793
   1.7234764   1.8387032  11.4868832   1.4942036   0.6162565  12.3494625
  63.3999367  23.7869968  42.1776924  63.7023659  24.2817001  41.4160881
  63.1027260  22.9512844  41.8178520  70.7397766  47.5919571  49.3252678
  70.1098175  47.1079445  49.8592262  70.2217636  47.9382629  48.5986595
  60.3299866  30.4861317  10.7700710  59.4151421  30.6157703  10.5200987
  60.8025436  30.4489708   9.9384823  78.0903778  55.1209831  51.0004692
  78.4743347  55.7009735  50.3428841  78.7922897  54.9818535  51.6362343
  57.3682556  46.2813606   2.6709421  57.4164085  46.9930649   2.0326726
  57.8093109  46.6258240   3.4475031  84.4955139  35.8355484  61.8745117
  85.3340073  35.7666969  61.4179802  84.6607513  35.4557457  62.7374573
  85.7607498   0.7941900  10.3591890  85.3330612   1.6342686  10.5252810
  86.5563812   0.8212677  10.8906584   7.4282336  62.0769310  22.6703110
   6.8029709  62.6764946  22.2631245   7.4758596  61.3348694  22.0675621
  54.0044975   8.2362890  70.8192291  53.7981911   7.3018394  70.7975006
  54.2512970   8.4060059  71.7283554  53.3831596  71.0243683   1.6175220
  54.0755653  70.5718765   2.0992486  53.2879715  71.8640213   2.0671287
  53.0211029   7.1324749  77.9785156  53.2240753   7.8824816  77.4194794
  53.8729744   6.7426291  78.1748962  56.0008087  34.9365807  86.9235916
  55.2643394  34.9061852  86.3129196  55.6832428  34.4832764  87.7045593
  38.5792580  37.6387138  81.1373978  37.7014084  37.3993759  81.4345932
  38.4349403  38.3475723  80.5105591  61.3193893  30.7183533  71.3531342
  61.0765877  31.5096455  70.8723755  62.2318916  30.8612919  71.6044235
  45.3101578   8.1576529  12.2622643  46.1310081   8.4740629  12.6395159
  44.6580505   8.3091354  12.9463997  48.6544724  32.6160431  15.0320368
  48.1992645  32.0390739  15.6453238  48.6118431  33.4808311  15.4401522
  55.8233910  30.9763851  20.2501488  55.5655251  31.5643826  20.9600754
  55.0502586  30.4334717  20.0960598  54.6337738  57.0917168  64.9131470
  55.4260864  57.4797020  64.5417404  54.9524460  56.5135612  65.6062698
  71.7499924  54.3381767  85.4698334  72.1522827  54.8350105  86.1822586
  72.4223251  54.3083916  84.7891541  34.0145302  52.5308037  18.9977322
  33.7994843  52.5969620  19.9281139  33.2804909  52.9531898  18.5516205
  83.9270859  23.1503391  37.7572708  83.8129120  23.0408020  36.8132362
  83.9941559  24.0969830  37.8821716  23.4741135  46.9528275   6.7560587
  24.0486889  46.6946640   6.0353336  23.1684303  47.8278465   6.5170255
  51.9633827  27.5599346  82.0522995  52.7321434  27.9497318  82.4685898
  52.3206940  27.0200596  81.3472519  47.3687897  40.1502953  19.3956757
  48.3212852  40.1071815  19.4800777  47.0513840  39.3808136  19.8683128
  76.2270813   4.6642990  56.6827126  76.5639267   5.2556610  57.3558083
  75.2823029   4.8180022  56.6798782  60.3267708  27.0730171  43.4451828
  60.4750328  27.4393883  44.3169785  60.5350456  26.1433220  43.5374947
  67.5650101  35.3909836  13.4371471  66.7243042  35.6782417  13.7934084
  67.9814224  34.9180031  14.1576509  10.6456594  55.7324142  48.9523582
   9.7673283  56.0550728  49.1539955  11.2181292  56.4839134  49.1064949
  59.3373337   9.3768740  45.5787659  59.2770538  10.3279362  45.4888763
  58.8175316   9.1764374  46.3571358  28.6908188  65.1753387  69.9402771
  29.5575867  65.5805893  69.9135056  28.5711060  64.8078079  69.0645981
  12.1655283  37.4253159   6.2869644  12.6347418  38.2452431   6.4412003
  12.1531992  36.9922066   7.1404839  38.4223289  64.1174698  27.7236271
  38.5895081  63.2446556  28.0792675  38.0899048  63.9566383  26.8405323
  63.4340057  34.9781227  76.1089630  63.8923759  35.5240402  75.4701309
  64.1328659  34.5470695  76.6009216  58.1230087  37.8648796  89.2888031
  57.5898170  38.5553741  88.8949051  58.0815048  37.1430054  88.6615906
  59.8430138  51.1013031  53.6533432  60.3138924  50.8445244  52.8605156
  59.7114563  50.2816315  54.1298485  56.6314392  62.7936935  76.2639694
  57.5872498  62.8317032  76.2988739  56.4202690  62.9215927  75.3391571
  79.2044983  68.0354385  24.1653175  79.4806747  67.8536530  23.2670326
  78.7179642  67.2544250  24.4290104  76.0454178  56.7414322  23.7655163
  76.3455429  57.6160011  23.5179558  76.0504456  56.7485085  24.7226772
  76.6971664  25.7984905  28.9818764  76.1116714  26.4397583  28.5791340
  76.1194305  25.0871677  29.2584171  36.5418358  69.3398743  70.1736603
  36.7662697  68.4417267  70.4169540  37.0071220  69.4884033  69.3504486
   0.2685699   5.1163511   9.5479288  -0.4990715   4.8028913  10.0261564
   0.6964182   5.7225585  10.1526518  72.9030304   9.7837114  54.2987518
  72.5712738   9.3310251  53.5233536  73.2230225  10.6228647  53.9676018
  75.5308609  55.4180641   7.3527966  76.3376083  55.2789650   6.8567672
  74.9011917  55.7307587   6.7032037  28.0380077  32.4436951  15.1489506
  28.6572781  32.3826675  14.4216185  27.1763840  32.4090385  14.7334566
   1.5916493  70.9576263  67.2702484   2.1577778  70.3807449  66.7574692
   1.9986012  71.8207855  67.1955719  52.5996513  41.8150749  77.6342239
  52.7374763  42.5636711  77.0538483  53.3821983  41.7917252  78.1849594
  58.2830849  15.9860916  10.7415600  58.7878227  16.7979126  10.7907343
  58.0224457  15.9213896   9.8228035  22.5437469  33.2711830  55.8350792
  23.4995384  33.2420311  55.8780060  22.2656250  33.3592758  56.7467384
  18.1682796  62.5891685  63.1341553  18.5348358  63.3834343  62.7455521
  18.5338058  61.8758316  62.6109200  52.9961777  44.9001541  21.3832874
  52.6066704  44.5023689  20.6046467  53.6767998  44.2832565  21.6524067
   8.8920994  10.1779146   5.2170868   8.4888506  10.7496357   5.8703542
   9.7171812  10.6103735   4.9969726  53.5054550  52.9449654   6.2506680
  53.9336700  52.2885094   6.8001466  52.9067497  53.3996201   6.8431835
  29.5630951   8.0597649  12.7035141  30.4281921   7.7559519  12.4286699
  29.1815300   8.4425602  11.9135094  21.3266449   7.2650523  77.9324188
  21.1172523   7.1251998  77.0089264  20.6331596   6.8069959  78.4072800
  38.3177643  44.0243454  72.6852493  39.1474609  43.8502312  72.2408142
  38.2690468  44.9789505  72.7361603  36.6983223   6.4326949   7.6572003
  37.0941048   6.2868261   8.5164499  35.9635353   5.8200970   7.6248412
   8.1741571  20.0766659  29.0121479   8.6332245  19.2397003  29.0826988
   8.1059752  20.2338047  28.0704002  76.2856216  35.3603058  20.3879528
  76.8946838  35.5709038  19.6801949  76.1587448  34.4139099  20.3210850
  81.6649399   5.8331943   7.9786625  80.7465744   5.6679907   8.1920843
  81.6466446   6.1611667   7.0795903  36.7308388  50.6299438  40.6372986
  36.0013847  51.1632576  40.9530640  37.3186455  51.2551384  40.2132187
  47.3243179  59.8364525   7.8697820  46.6938248  59.2990417   7.3902993
  47.8937225  60.2000313   7.1916833  62.2882423  54.3760681  84.3475113
  61.9667358  55.2090073  84.0024338  62.0898285  54.4118958  85.2832336
   5.8169413  35.8868370  84.6508789   6.4344039  35.7965469  85.3767090
   6.2454252  36.4922523  84.0458145  73.1666718  50.2969551  10.4544983
  73.7733078  50.1674805   9.7254858  73.4499435  49.6664734  11.1166773
  60.3095055  39.1128464  56.7770462  60.6289597  38.7269020  57.5926628
  59.4689331  39.5062637  57.0113487  61.0199394  22.5658302  71.9302368
  61.3330727  23.1353168  71.2274780  60.3728256  23.0947990  72.3967819
  80.9157944  14.2874584  14.2501030  80.4095459  14.7208443  13.5629921
  81.1919327  14.9982786  14.8286476  24.5689850  15.3990936   7.8497772
  24.8186913  15.0487261   6.9947205  25.3907108  15.7080708   8.2312651
  59.7068100  58.9147911  41.3615685  59.0172691  58.5152969  41.8918228
  59.8954544  58.2647247  40.6847649  68.4912567   1.4880775  61.3815346
  68.1184845   1.4841396  60.4999123  69.4251175   1.6485772  61.2460022
  11.4144106  70.7467117  81.1756821  11.2740173  71.6590118  81.4291229
  11.2368650  70.2467575  81.9723969  64.4463501  60.6547966  60.0248604
  65.0902481  61.1235886  60.5557709  64.5960007  60.9697571  59.1334343
  83.6458969  60.1453667   8.1938705  83.7888260  59.6839828   9.0202637
  82.6949997  60.1516876   8.0844402  52.2104797  14.0189352  -0.2682104
  51.5265121  14.2093458   0.3737880  52.9696846  13.7679577   0.2579582
   5.5256934  71.1594543  40.3904533   5.2188005  70.4735794  40.9834328
   6.4582539  71.2469635  40.5876923  51.9948807  30.7299881  10.6942024
  51.3880768  30.6601543  11.4311848  51.7509270  30.0088749  10.1139307
  18.8964729  21.5135727  18.3027668  19.3221149  22.2635746  17.8873653
  18.2370014  21.9009438  18.8783321  72.8770218   9.8607378  42.3771591
  73.6073151   9.7153969  41.7756767  72.1850967  10.2306213  41.8288383
  80.7818832  44.7285309  39.2123070  81.0131989  44.6144943  38.2905045
  80.5518265  43.8490753  39.5120811  56.6154823   4.4607320  18.3647480
  57.1430550   4.7699251  17.6283379  55.9628067   3.8847425  17.9666481
  57.2650185   6.4760671  32.9736557  57.5260010   7.3957205  32.9250984
  56.3404541   6.4760690  32.7258415  85.2215424  57.0213089  21.7708015
  85.7285995  56.5213547  21.1311359  85.8505402  57.6374741  22.1462173
  85.4317474  68.9388123  27.5678616  86.3178101  69.2584915  27.7379608
  85.1136551  68.6484756  28.4226990  69.2542343  49.4694405  87.3525009
  68.4283447  49.9056396  87.5619278  69.7741928  50.1405830  86.9104080
  45.1437531  51.2813416  51.4084358  45.1629601  50.5316200  50.8136406
  45.8516884  51.1121025  52.0300598  69.3805389  62.5370293  60.8441925
  68.9306412  62.8281174  61.6373482  68.8649902  61.7916222  60.5362778
  77.9097290  49.0929451  26.4146976  78.7410965  49.0006714  25.9493504
  77.9482956  49.9670181  26.8029537  72.6034927  68.9283447  88.9754333
  71.9633179  68.8690033  88.2662888  73.1132431  69.7127991  88.7729111
  82.0274734   6.1933069  11.4370832  81.8069153   5.7645183  12.2639618
  81.2333679   6.1165133  10.9081869  50.8784142  60.3328705   8.5488968
  51.0733490  61.2676277   8.6157341  50.0789604  60.2176018   9.0625296
  15.2545242  60.5431175  72.7742920  15.4284391  59.6352310  72.5258331
  14.2996826  60.6078186  72.7922211  84.2430573  62.9402084   4.2235289
  83.4414825  63.4268303   4.4156508  83.9997406  62.3498192   3.5104582
   5.0366459   3.4727859  65.6057663   4.4836283   4.1945343  65.3066254
   5.6795573   3.3577292  64.9060059  78.4790421  46.0446205   4.9018087
  78.2952957  46.9682198   4.7302356  79.1913834  45.8264656   4.3008037
  42.5811615  67.2782516  43.9278412  42.2156944  66.5112457  44.3687019
  42.5124702  67.9812164  44.5738792  85.0356216  66.1854019  75.1064987
  85.8667297  66.1990356  75.5811615  85.0179367  65.3291168  74.6790695
  74.0181885  64.6655045  43.5926132  73.0886536  64.6197739  43.3687553
  74.4537125  64.1502762  42.9135780  65.8545761  32.7830200  16.6455669
  66.1598816  32.1406059  16.0050049  66.4226685  33.5419426  16.5131207
  34.5305405  68.5216827  45.6748428  35.0378494  69.1725769  46.1598206
  34.9159203  67.6821671  45.9257088  84.1986465  27.4823151   1.5268716
  84.0261383  27.1311474   0.6532853  84.0406647  26.7452507   2.1167941
   6.0914316  21.2096214  39.2865982   5.4854789  21.8368225  39.6811485
   6.8272095  21.7434940  38.9868660  13.8120899   3.6181126  69.0380096
  14.6697817   3.2044868  68.9404907  14.0083342   4.5400834  69.2044144
  46.9429321   7.4145417  24.9891911  46.4823418   6.6045394  24.7701378
  47.6962204   7.1293759  25.5063667  30.3908043  50.8836060  37.5379524
  30.5984764  51.4768486  38.2598686  30.8883152  50.0888214  37.7303886
   9.2918863  69.4258041  54.6782913   9.3026714  69.0599823  53.7938194
  10.0950937  69.9435730  54.7331390  78.4096985  16.0887146  58.8212585
  78.4692459  15.1344461  58.8666153  78.7368317  16.3896675  59.6689911
   4.3623776  31.1800690  59.6948929   5.2929516  31.0301704  59.8616104
   4.3008361  32.1162186  59.5049629  63.5738144  10.6458254  71.2307129
  62.9415359  10.9869556  71.8632431  64.2152100  11.3491821  71.1300812
  80.8994217  67.4182129  18.4735603  79.9737015  67.6583710  18.4336128
  81.3620529  68.1942673  18.1574154  76.2618637  44.3245354  12.6150198
  76.2614899  43.3720665  12.5199556  75.4668579  44.5158806  13.1126099
  40.4856071   4.2022972  45.5850182  40.8126106   4.7968998  44.9099274
  40.2732315   4.7724810  46.3239517  20.5450573   4.8459764  23.5351963
  20.0682945   5.4609361  22.9777431  19.9261742   4.6239629  24.2308445
  46.8991508  44.1411819  13.1737041  46.1308937  43.8275261  13.6508131
  46.7209702  45.0682945  13.0157585   9.5111008  12.8123865  63.8743210
   8.9226179  12.6536913  64.6123810  10.3165064  13.1383324  64.2759552
  81.8142776   7.4284716   5.6842079  82.4569550   7.5261593   4.9816027
  81.5289383   8.3222713   5.8737822  28.0452023  39.6647339  79.1012115
  27.8374901  40.3534050  78.4696884  27.9575977  38.8506889  78.6053391
  71.6352310  58.9823341  30.5119686  70.7012253  58.8311081  30.3670330
  72.0453262  58.1359062  30.3341770  20.1530762  23.9471741  13.1753092
  19.3969269  24.5261898  13.0793457  20.1486683  23.6986675  14.0996771
  54.1967010  24.6917095  88.4853363  53.7800789  25.5525570  88.5252914
  54.2745781  24.4206219  89.4000397  58.6408577  69.5078659  66.3666077
  58.3261032  70.0967102  67.0524902  58.9338951  68.7273636  66.8369064
  33.3731422  59.1875992  87.2464447  33.7560539  60.0648003  87.2578583
  32.4615402  59.3207932  87.5061951  55.5486908  30.1776314  24.1578369
  55.9083977  29.3854370  23.7587471  54.6557846  30.2330818  23.8174343
   7.8081408  16.0360718  16.2114067   7.5030313  16.8640728  16.5822926
   8.7433014  16.0128975  16.4143105  42.4879799  27.1419373  71.2331467
  42.9842949  26.3309536  71.1226501  43.0692825  27.8257256  70.9003525
  64.9971848  49.0254250  74.0586777  65.3319778  48.4848442  74.7741623
  64.2057648  49.4298325  74.4141235   1.1140375   4.7715235  46.5790863
   1.5133376   4.1141706  46.0092812   1.4832649   4.5945854  47.4443016
  35.2826881  70.1593781  52.7827530  34.5003281  69.6093597  52.7424202
  35.6266823  70.1524048  51.8895264  32.0563736  16.4742813  81.0241776
  31.1857567  16.0859051  80.9380417  31.9122181  17.2763996  81.5262299
  43.0879936  56.5312462  80.6140289  43.6703224  55.8895569  81.0206757
  42.3223419  56.0234604  80.3453979  10.6121550   0.4236522  48.7261467
  10.0041189   0.4907253  49.4623680  10.4543028   1.2156132  48.2122269
  31.7197342  17.5474339  29.1925259  31.3082485  17.5285244  28.3284912
  31.5759621  18.4400673  29.5067959  51.8567200  62.8386497  80.4285812
  50.9034500  62.8825722  80.3538818  52.0552597  63.3069687  81.2394409
  26.7645836  11.0976944  82.9480133  27.6167164  10.9076424  82.5556107
  26.2988224  11.5984640  82.2782898  33.0152054  60.9746017  72.0035172
  32.2074051  61.4830208  72.0756378  33.1296501  60.8389435  71.0629120
  23.0487766  34.5565338  80.6688461  22.2360573  34.1312637  80.9424515
  23.7409782  33.9743690  80.9821625  20.4318180  51.0527840   0.5771474
  19.6214523  51.4744911   0.2913097  20.7647686  50.6171379  -0.2074469
  64.6282883   1.3858027  14.9388876  65.1283035   0.6160405  15.2103329
  65.2901154   2.0612679  14.7906647  75.7949142  25.5658875  50.3471489
  75.9200974  26.4547348  50.0147171  76.6198578  25.3553905  50.7846336
  41.5415840  18.6035423   2.5375164  40.9683533  18.0751934   1.9820998
  42.3809662  18.6103687   2.0774915  29.1709003  60.7643471  63.2352371
  29.9282761  60.9561729  62.6822319  28.7332802  61.6087570  63.3433685
  62.0343628   2.2111869  22.3511066  61.5317078   1.5552415  21.8680878
  61.9314003   3.0148733  21.8414803  80.4723129  12.1268635  82.6897659
  81.1993713  11.5347443  82.4973831  80.5583878  12.8291855  82.0451202
  20.2430935  18.8871651  54.0784645  21.0938644  18.9030132  54.5168381
  19.6079712  19.0123653  54.7835732  54.3930473  16.8938484  21.7929230
  55.0237083  16.5343895  22.4168530  54.5791817  17.8326607  21.7782021
  65.6863861  69.9828796  57.2226830  65.6615677  69.6466980  58.1185608
  66.5228195  69.6743851  56.8741913  86.3882217  33.8398094  54.7438660
  85.5862808  34.3002625  54.9910583  86.0837708  33.0160294  54.3631783
  18.7706280   4.0282836  67.2927170  19.0791454   4.6591816  67.9431152
  19.1173668   4.3523016  66.4614410  26.0659332  62.6951675  58.7840080
  27.0116215  62.5810966  58.6897011  25.9173527  63.6231956  58.6025772
  72.3185043  70.3825607  73.4452591  71.5052109  70.7210007  73.0707703
  72.6824265  71.1206436  73.9341583  39.4390144  43.2006645  20.5626984
  39.6805077  44.0366173  20.1638317  38.6112137  43.3785706  21.0091534
  80.7245102  31.4833050  45.3421402  80.1108704  31.9982395  45.8660889
  80.3584595  30.5988674  45.3450928  62.5456352   5.7751131   0.3504325
  63.4054413   5.4414859   0.6066805  62.7312965   6.6086636  -0.0819505
  10.2131844  52.3911591  42.2603455   9.8010616  52.7070312  43.0644646
  10.9289942  53.0062180  42.1004944  40.7826538   8.6891356  75.4892731
  40.9050140   9.1120033  76.3392334  39.9458694   9.0281696  75.1713333
  79.0245590  20.0177574  61.2873917  78.2077332  19.5580463  61.0932617
  79.2186203  20.5088100  60.4889908  50.3158455  69.4555206  71.8998489
  50.6145287  69.1034927  72.7383575  50.1207504  68.6818314  71.3711090
  38.8229713  57.4856148  21.6811180  39.5765762  58.0486221  21.8581142
  38.9974976  57.1170464  20.8151321  38.9918480  15.0612879  78.3210983
  39.4009972  14.3146715  77.8836136  38.2142830  14.6952686  78.7425919
   8.0613937  10.6843424  20.7039852   9.0112782  10.7303476  20.5952015
   7.7206712  10.6254158  19.8114223   9.3365660  62.9445305  28.2853432
   9.5803690  63.2666245  27.4175606   8.8124056  62.1625786  28.1120338
  25.6309872  45.1030807  87.8513031  25.3194180  44.7586632  87.0143280
  26.2747440  45.7695732  87.6113129  79.9165039  46.0482407   2.3488362
  80.7158203  46.5747643   2.3384945  80.1185379  45.2952118   1.7935328
  32.9488678   6.4532962  47.6046371  32.9905434   7.3578339  47.2943039
  32.2444420   6.0564947  47.0922279  37.7054749  20.3750706  12.7612228
  37.2228622  21.0699272  13.2089863  37.4391136  20.4505825  11.8449364
  32.4403496  10.8923454  23.2394981  32.3746033   9.9953489  22.9119225
  31.5646191  11.2578878  23.1141739  37.7747726   5.7926912  29.1421165
  37.7056923   5.6185365  28.2034321  37.4975739   6.7038760  29.2376995
  15.9526701  48.1624336  81.9791107  15.6599026  47.3837738  81.5056000
  15.1614780  48.4980812  82.4005203   7.7425561  24.2155399  79.0833893
   7.8213534  23.3209362  78.7521744   7.4869108  24.7322121  78.3192368
  35.3296432   5.8379974  34.9500885  35.6831207   6.5074883  35.5358086
  36.0970688   5.4825282  34.5018425  79.3295059  51.0157433  78.7806854
  79.4567413  51.9408417  78.9910126  78.4945450  50.7895889  79.1904678
   6.4281230  14.2200832  14.8721085   6.9524546  14.9653788  15.1650982
   6.2594571  13.7177572  15.6692600  43.9416771  57.4722900  22.4002380
  44.8372116  57.7652283  22.5688877  43.7728119  56.8164558  23.0766983
  69.5648117  34.3179092  73.3185425  70.4722977  34.5572624  73.1303558
  69.6204376  33.7579994  74.0929031  84.4711380  19.9699898  59.0569077
  83.9886322  20.1386700  58.2476082  84.8945312  19.1239376  58.9114227
  35.5756607  55.0215378  88.7042236  35.8146553  55.9424210  88.8095322
  36.3572197  54.6122017  88.3329620  51.1865463  52.1182213  11.1533222
  51.4382820  51.2807312  10.7641239  50.2678375  52.2294884  10.9087219
  60.2062263  62.9399910  15.0639505  59.5234222  63.4785118  14.6639414
  60.3387718  62.2222900  14.4446182  27.4345970  47.2049408  56.8463974
  27.5890732  47.9572487  56.2750816  28.2358437  47.1291771  57.3645630
  62.8055115  19.8136692  15.4602060  62.8859482  20.5062885  14.8044319
  63.6977959  19.4861698  15.5733557  66.0788193  27.5164318   7.7928171
  66.9548950  27.1313019   7.7728305  65.5568695  26.8978882   8.3039036
  48.8075867  70.7286072   7.4204316  48.3448105  69.8993759   7.3002076
  48.1182098  71.3924332   7.4023314  82.8510971  55.5950470  16.8260212
  82.7374496  55.5971870  17.7764473  82.1186905  56.1155548  16.4960480
   9.0146170  70.8780594  74.8052444   9.3802261  70.0796432  74.4243317
   8.0907784  70.8614120  74.5552902  26.1235294  55.3889961   7.9535890
  25.2661133  55.2648392   8.3605947  26.5776558  56.0003319   8.5334768
  71.3776779  55.8340836  63.8463745  71.4191589  56.4753761  63.1369667
  70.6124878  55.2974319  63.6396790  63.9764977  15.5918989  48.5085564
  64.5878677  14.8860703  48.7189560  63.1325226  15.2842216  48.8391228
  53.5715523  15.9730892  86.7499008  54.2348824  15.6371260  86.1471100
  53.1749420  15.1894770  87.1305313  12.2639408  50.3337173  10.9950867
  13.2161093  50.2417831  11.0290508  11.9685183  49.5794067  10.4852104
  80.8721390  40.8940086  29.6284142  81.4818649  41.0921021  28.9176216
  80.1467133  40.4381104  29.2016277  17.0336781  10.5439043  49.6045532
  16.9695911   9.9633141  48.8462372  17.9518299  10.4908457  49.8699112
  70.6286087  25.6259594   3.3519926  70.4811172  24.7452984   3.0071576
  70.8263245  25.4903183   4.2786751  75.4643936   6.0541162  64.2613907
  75.3399734   5.3081255  63.6746597  75.5044937   6.8127513  63.6790695
  74.5400772  47.3161240  67.0482788  75.3705215  46.9597778  67.3638916
  74.5162125  48.2089043  67.3926773  68.8715515  52.0066757  39.9712486
  67.9519501  51.8312988  39.7717323  69.3312454  51.2121239  39.6999512
   1.1200283  11.3306866  62.0784454   0.3003520  11.5756102  61.6490555
   0.9744559  11.5291500  63.0034599  36.7963219  38.8763199  33.5195770
  36.9267921  39.2979012  32.6701775  35.8501892  38.9098434  33.6607933
  71.7619781   7.2983894  76.1704788  72.4617538   6.7021732  76.4370575
  72.2102737   8.1206799  75.9727478   2.3374259  44.6179085  49.2174606
   3.1517627  45.0671768  49.4438286   2.6004653  43.9497375  48.5845337
  60.7989769  37.1627960  79.0824432  60.0259056  37.7238197  79.1444550
  60.4826584  36.2917709  79.3222046  33.7047806  14.1085005  17.8450966
  33.4546432  13.3057547  17.3876457  33.3938065  13.9803143  18.7412529
  66.1569061  57.9073334  82.3352356  66.5784302  58.5992355  81.8255157
  66.4305725  57.0951843  81.9089127  24.7943668  65.1498947  14.7603693
  25.6583500  65.4630966  14.4926596  24.7647972  65.3062592  15.7042484
  15.9165831  14.4043159   1.1284925  16.0511169  15.2568846   1.5423270
  16.4694862  14.4272718   0.3474654  11.0581379  37.7291183  35.6497765
  11.5581026  38.1511993  36.3484268  10.9790554  36.8170433  35.9292412
  50.2552910  70.2353134  24.0566902  50.9681129  70.1276245  23.4269905
  50.1160164  69.3579559  24.4131584  71.1445236  26.1295471  18.0741138
  71.1425018  26.6923733  18.8483601  70.2188721  25.9607258  17.8983135
   7.3541670  35.6177521   7.2605205   7.0448508  34.7134705   7.3136992
   6.9307675  36.0593987   7.9966683  20.2019768  68.6535110  13.0622749
  21.1046219  68.6149979  12.7460785  20.0442696  69.5837021  13.2238350
  50.3747292  56.6523514  26.5214443  49.5852165  56.4863205  27.0365467
  50.8468170  57.3223343  27.0159054   3.9165218  13.9034481  60.4082260
   3.4177153  14.7163954  60.3273506   3.8415825  13.6674376  61.3328400
  44.7769394  49.1602554  19.6455441  43.8657455  48.8854561  19.5433578
  45.2225761  48.8023911  18.8777084  51.8778152  31.8287144  71.0055466
  52.0314980  31.3104534  71.7954941  51.0148163  32.2203178  71.1401291
   3.2154968  11.1902018   3.9760475   2.3346751  11.5569658   3.8994358
   3.2145972  10.7393246   4.8204055  80.8902893  31.0210457  26.0863075
  80.5366135  31.9063892  26.0008106  81.8392868  31.1436081  26.1112671
  57.7075005  54.7630920   9.0645027  58.5087738  54.4591522   8.6381016
  57.7133026  54.3330154   9.9196253  50.6826210  10.9890223   0.7219942
  50.6046906  10.7465715   1.6446950  51.3279533  11.6959238   0.7137777
  81.7468414  66.7410736  81.2532043  82.4146042  66.3441315  80.6939468
  82.2068787  66.9454803  82.0673447  60.7852516  43.5333595  39.2095451
  60.4291496  44.3513680  38.8627281  60.8316956  42.9516258  38.4508171
  56.6412048  36.6481895  68.0717010  55.8062172  37.0600433  67.8494339
  57.2878265  37.3462105  67.9674149  53.0435562  36.0880890  59.5486450
  53.9704247  35.8560371  59.4912529  53.0429039  37.0251007  59.7441978
  30.3056355  32.4204636  75.4017639  31.0797215  32.8346519  75.7831650
  29.6357460  33.1039963  75.4179611   7.3528280  35.2280769  36.7804489
   7.4771061  35.8933182  36.1035156   6.8448405  35.6703987  37.4605446
  63.1691704  45.6509056  87.6258545  63.8419037  45.1250725  87.1932297
  62.3516273  45.1847343  87.4510956  81.8371429  49.5596619  61.6125298
  81.9595184  50.3450737  61.0792542  81.5182571  48.8995590  60.9970589
  41.9912987  58.1068077  76.1450348  41.4207230  58.3756294  76.8650360
  41.4797592  57.4561768  75.6641617  83.5138855  24.9768486  75.1007538
  84.1483383  25.6874008  75.1946411  83.9814224  24.1971512  75.4002686
  38.3474922  55.2900467  65.0030823  39.2049217  55.6715202  65.1915512
  38.3203735  54.4904099  65.5285187  19.3489704  11.7834206  23.2554512
  19.3360519  10.8434925  23.4360027  18.9745140  11.8639736  22.3782253
  35.5740204  21.9542885  73.3721619  34.6228218  21.9498272  73.4791031
  35.8087883  22.8820972  73.3552322  46.3790092  12.1346140  62.1094131
  46.0100250  11.4683218  61.5296402  45.8422165  12.9116430  61.9534912
  10.0463724  65.4715424  10.3897581   9.4215002  64.8425369  10.7504730
  10.3366070  65.0762787   9.5677099  86.3491364  20.5551701  61.3789253
  86.5365601  19.6317062  61.5472145  85.8339539  20.5518570  60.5722008
  82.1696320  24.9405594  33.9500313  82.6957169  25.5537434  34.4633255
  81.3176804  24.9323959  34.3863220  23.8084354  28.9968357  78.5569839
  23.9570541  29.7310066  77.9610519  24.6779404  28.6216125  78.6962738
  18.4785671  59.0801353   1.2833223  17.7468319  59.5681000   1.6610582
  19.0312252  59.7503052   0.8812384  69.5203018  48.8327980  62.1749344
  70.0166321  48.9778900  62.9804382  68.9594727  49.6045532  62.0968742
  86.2134476  15.0211477  -0.2838318  85.7942734  15.8354349  -0.0055127
  86.9578476  14.9200449   0.3093650   4.5062723  49.6020203  30.5929050
   3.8611505  50.1272125  31.0664291   4.4776511  48.7456474  31.0195637
  53.2664909  24.4909420  25.2778854  53.9747887  24.9188080  24.7967644
  53.6218452  24.3544044  26.1561279  50.7307129  43.1998100   4.5845914
  49.8149300  43.1471214   4.8580804  50.8322067  42.4908142   3.9495704
  19.2999096  43.1440544  70.9202499  19.4518414  43.4776955  70.0360413
  20.0475311  42.5715065  71.0919571  23.3704453  41.0161629  59.0191002
  24.1876945  40.9471779  58.5255661  22.8413734  41.6388283  58.5205040
  66.4051437  64.3388977  57.6872444  65.9118729  63.7389297  57.1278191
  67.1411896  64.6218185  57.1446342  48.5519066   6.0935240  36.6322098
  49.1151772   5.9379840  35.8740768  47.8066406   6.5807767  36.2809334
  66.5909729  14.7004175  35.5631447  66.8492279  14.0919857  36.2554932
  67.4187012  15.0242567  35.2078514  64.5801697  40.9074249  52.6010475
  64.9441223  41.0514565  51.7275314  63.6782303  41.2219925  52.5395775
  76.9963303   7.2029424  39.3819389  77.4349823   8.0513630  39.3187294
  76.5667877   7.2185259  40.2372093  41.3043671   6.7642603  18.0204372
  41.7378845   7.2446694  18.7257748  40.3921700   7.0515499  18.0603828
  71.2742767  56.9367638  41.9643402  71.6084366  57.3821030  42.7429581
  71.1491013  57.6365585  41.3233643  60.0567665  57.2644958  76.8035507
  60.8500099  57.6971664  76.4876556  59.3466148  57.8576889  76.5585327
  38.4981766  49.3454323   8.6961365  37.9098969  48.7373238   8.2485180
  38.5165901  50.1191864   8.1329355  48.4794006  12.9852037  22.9930401
  49.0853271  13.3886108  22.3714714  48.7977180  12.0876694  23.0896759
  31.5576897  57.0787086  19.6446209  32.5090561  57.1805496  19.6170368
  31.3480072  57.0390701  20.5777302  31.1609783  10.9832296  88.7429886
  30.5560131  10.8046722  89.4629669  31.7662239  10.2416973  88.7492218
  74.2017593  67.5268173  17.6488037  74.9712906  68.0886993  17.7401161
  73.4707108  68.0730896  17.9375782  41.9079514   9.1153898  80.8905716
  42.3615837   8.3509369  81.2456207  42.5987816   9.6333447  80.4774094
  48.1507988  21.3204994   3.4604049  48.4724464  20.5993710   4.0014668
  47.3732567  21.6367702   3.9204385  39.2622833   9.6356955   4.8066401
  39.0266266   9.0285110   5.5080843  40.1979065   9.7945099   4.9316068
  63.9133835  12.4266157  45.7301598  63.7813568  12.2116461  46.6535187
  63.7499771  13.3683071  45.6777420   1.1235950  41.9545898  45.8034134
   0.3405607  41.4526405  45.5772858   1.0114384  42.7903442  45.3504562
  50.1031456  39.5938530  19.4926910  50.6259460  40.3724060  19.6844349
  50.3764801  38.9539566  20.1499977  34.6285286   2.3273699  86.7579346
  33.8625717   2.7530489  87.1430740  34.5312309   2.4660838  85.8158493
  22.8127193   8.8675776  56.9490585  23.2627621   9.5703773  57.4178543
  22.7349796   8.1624699  57.5917206   7.8862762   6.9067807  69.9539108
   7.3033090   7.1188412  70.6828842   8.4551058   6.2166533  70.2950668
  21.5095615  69.8279419  66.8549271  20.6090927  69.5484467  67.0200653
  21.9532070  69.7156143  67.6956406  84.3052292  48.3375969  14.9333496
  83.8640518  48.8647919  14.2672720  83.6480255  48.2191925  15.6191311
   7.5716972  15.8704185  59.5123482   7.5863748  15.0049200  59.9209175
   8.4706316  16.0099831  59.2145729  65.6206207  56.1214752  60.0664368
  64.8651276  55.5535202  59.9151306  66.3232956  55.7283325  59.5488281
  17.0840435  38.5302010  33.4334946  17.2992516  39.3529625  33.8727913
  16.4377193  38.1155090  34.0049171  49.5255470  64.5527115   4.1163874
  49.2177544  65.4353485   4.3224363  50.4296799  64.5350113   4.4301753
  52.7066231  51.8213081  59.2344475  52.1926270  52.4497108  59.7415428
  53.6089668  52.1307564  59.3134918  61.1976242  66.1138916  48.2402344
  60.7651138  66.2436523  49.0842323  61.8846550  66.7800293  48.2182579
  52.4575729   2.1845841  23.2180080  52.4460564   2.3992198  24.1507626
  51.8262863   1.4706286  23.1287117  55.1516876  70.5499420  78.9580307
  55.5103912  69.7959442  78.4899979  55.6467247  70.5813446  79.7766724
   9.2994556  32.6155052  67.7456207   9.8878555  33.0197601  68.3832703
   8.4387217  32.6419754  68.1635513   7.5877051  62.3666573  81.2330475
   6.7961245  62.8469200  80.9901886   7.6538491  62.4779053  82.1814575
  64.0325546  22.1313496  -0.0843548  64.8123322  21.7836361  -0.5171162
  64.0846558  21.7943611   0.8100474  59.3094864  28.3959179  31.7667847
  59.8335533  28.0822449  31.0297680  58.5844040  27.7739353  31.8269825
   6.0445185  41.3987198  27.6699791   6.0367861  40.5152206  27.3017368
   6.8678732  41.4485970  28.1556034  69.7949829  71.2050171  72.7815094
  69.3580246  71.6557083  73.5041351  69.0980606  71.0380936  72.1469498
  15.0269136  50.1343422  67.4663467  15.2726097  49.5286560  68.1656342
  14.1220684  49.9033165  67.2563095  37.4506760  67.1997528   7.3907704
  37.8565598  68.0287323   7.6443090  36.5873413  67.4471741   7.0596170
  70.3288956  54.1921730  28.9574089  69.7010498  53.5796280  28.5742283
  70.1673431  54.1426582  29.8995781  25.7767162  31.4210625   4.1920710
  26.3904781  30.7318039   4.4459476  26.2284393  31.8999901   3.4972279
  16.3086433   1.0252618  55.0101242  16.3646107   1.4782830  54.1687737
  16.8930092   0.2729540  54.9164124  35.4555397  41.4219475  16.1034641
  35.3697586  41.8136101  15.2342844  36.0956383  40.7197418  15.9876347
  69.6663361  57.3063736  17.7617607  70.5271149  56.9530411  17.5371761
  69.5894852  58.1023712  17.2357216  67.6716309  38.9609337  45.4367676
  67.9442825  38.6118202  44.5882301  67.8646240  38.2586670  46.0578995
  78.9197693  35.8461189  71.7716217  79.7871017  35.9952698  72.1480789
  79.0883789  35.3493195  70.9710007  35.8259773  26.0745716   0.4144017
  35.9935646  26.6352730   1.1718712  36.1918678  25.2247906   0.6598166
  65.9869766   6.5435920  56.3688011  65.4060059   7.2873421  56.2090073
  66.5475082   6.8282714  57.0906029  12.5929050  39.8399506   3.1582797
  13.4075556  39.5190773   3.5450814  12.3328228  40.5705299   3.7193913
   0.3516394  23.8741474   9.1991196   0.1314367  23.8385906  10.1299677
  -0.1604964  24.6081448   8.8597136  64.1186218  25.3233967  74.6792145
  64.2760162  25.2696724  73.7365723  63.4739990  26.0244999  74.7748337
  10.8017883  11.3181133  40.3798332  11.0009279  10.8679981  41.2007904
   9.9298391  11.6889925  40.5154266  76.0927582   1.0919225  26.5359612
  75.3519516   0.5231608  26.7455921  76.4862366   1.2952652  27.3845234
  80.6281815   2.7339489  15.8941231  79.9715271   3.3538306  15.5766592
  80.8360291   3.0369439  16.7779922  67.6043549  53.8060875  37.3125343
  68.0287933  54.6392899  37.5171242  67.0711212  53.6132088  38.0836945
  19.3602142  17.3921947  20.1527500  18.5723114  17.6779175  20.6151371
  19.2785625  16.4396095  20.1064320  25.3828945  68.1972733  43.7400169
  26.1974010  68.0433502  43.2613525  25.5001755  67.7318726  44.5681992
  81.7618027  19.9908676  72.0166550  81.0002441  19.4946232  71.7166443
  81.5216217  20.2916050  72.8930664  44.4446602  47.7984314  30.5012760
  45.3987694  47.8291245  30.4308167  44.2244225  46.8760643  30.3710232
   6.5588689  71.3026123  27.0736523   7.4697428  71.5485229  27.2351112
   6.3589749  71.6747208  26.2146931   0.9150649  57.0854492  59.8097229
   1.6646180  56.7830505  59.2969322   0.5006182  57.7498322  59.2592125
  55.4170723  21.9194145  26.6929874  54.6693268  22.1602173  27.2399101
  56.1639061  21.9266930  27.2916641   0.6985205  52.2096291  11.8139095
   1.4791653  52.5276718  11.3603973   0.0759451  52.0171394  11.1127825
   3.4533942   7.5052533  13.2549419   2.6110468   7.0609236  13.1587458
   3.2296631   8.3719349  13.5941172  82.2570343  28.6827431  39.4839020
  81.5378571  28.1530418  39.1397629  82.9755249  28.5404243  38.8676605
  24.6303844  16.4721565  13.5948696  24.6155891  17.0762348  12.8525057
  24.7047691  15.6049538  13.1965513  50.9310265  26.9088383  69.3687744
  50.2449913  26.9097652  68.7012482  50.8455353  26.0580082  69.7989044
  82.7393112  28.8252697  15.9192753  82.2820969  28.5549145  16.7155781
  82.1412582  29.4422188  15.4974480  10.9235106  11.2934742  15.1833200
  11.4596310  11.1362782  15.9605560  10.7974329  10.4255819  14.7997847
  23.7629662  70.7065659  85.3662567  23.7320290  69.7671890  85.1850052
  24.6599445  70.9625320  85.1514435  22.6287308  58.6019173  59.1627159
  23.0523453  59.2891502  58.6484299  23.3015480  57.9284630  59.2627716
  61.4707527  55.0242538  69.5251541  60.9051361  55.7956886  69.4905396
  62.0960999  55.1535721  68.8120956  48.8934631  56.4772987  31.1883450
  48.6430969  57.3599663  30.9154968  48.2830391  55.9019089  30.7273312
  28.8537388  64.8511887  24.7733669  29.7591324  64.5439606  24.7274475
  28.5309677  64.5208969  25.6117935  44.7222328  56.9956512  76.5112228
  43.9566727  57.5614700  76.4112320  44.4127159  56.1265831  76.2559814
  79.3346329  40.7772598  58.7737846  79.4807816  40.6677971  59.7134056
  79.6965027  39.9829140  58.3809700  47.8192825  36.6036873  76.6413651
  46.8929100  36.4137993  76.7897186  47.8422470  37.5382233  76.4355774
  57.4797783  54.4902840  15.9319105  58.3823814  54.2385521  16.1272774
  57.4380379  55.4211960  16.1507568  36.7657814  35.1636314  17.0262375
  37.0793686  34.3045578  17.3088837  36.9260178  35.7358818  17.7766266
  14.4464340  22.9914894  75.6819382  14.6245699  23.4738464  76.4892960
  13.5089979  23.1136208  75.5318375   9.2466669  60.0519867  13.0702248
   8.9445076  60.7796631  13.6137505   9.0377254  60.3188210  12.1750288
  60.0513992  14.7420759  28.3154240  59.5501480  15.5078840  28.5956306
  59.5000916  14.3238344  27.6540871  69.5982590  34.5296135  77.7978821
  69.8269730  35.4334450  77.5810776  69.1784592  34.5880547  78.6561203
  73.1207352  42.6486244  67.6519394  73.9546204  43.0874519  67.4837189
  73.1107559  41.9112206  67.0417175   6.9025249  37.9354248  82.9721146
   6.9131637  37.8187523  82.0221176   7.5870671  37.3484497  83.2931976
   7.1471481  49.7455750  23.8496895   6.2334352  49.6332779  23.5874863
   7.5604730  50.1741066  23.1001873  56.6039619  38.7937698   7.4523702
  56.7743454  37.9674644   7.0002432  55.6765862  38.9679794   7.2915716
  34.6039085  11.7466297   1.0465347  34.0796013  11.2091551   1.6402137
  34.3831673  12.6479321   1.2813927  18.2304688  46.2911911  19.5684967
  17.3680000  45.9505119  19.3311882  18.4614086  45.8213081  20.3698158
  19.7237835  13.1482439  49.3812714  19.6868019  12.2131109  49.5822487
  18.8178444  13.4465694  49.4619293  71.8821869   8.1852331  52.2825699
  72.3886871   8.1310749  51.4721642  70.9902191   8.3799419  51.9949722
  56.6796722  24.2197666   8.9727478  56.7377357  23.3948097   8.4907656
  55.9526863  24.6869869   8.5611362  30.5116692   7.7342052  40.8592186
  31.1997910   7.0962329  41.0481911  30.1409874   7.4466081  40.0248833
  60.8595505  32.8383636  69.1416168  60.5802765  32.9884567  68.2384567
  60.3930092  33.5017967  69.6499786  81.5133972  19.8674717  52.0886383
  81.6665573  20.0959492  51.1718140  82.1731796  19.2017918  52.2830315
  21.0292854  44.7813835   5.3158283  21.7736645  44.7844429   4.7140627
  21.1658630  45.5500450   5.8696647  37.7591171   2.5811012  41.5645752
  38.2423210   2.4963987  42.3865051  38.0678520   3.4056909  41.1891212
  26.9672966  59.1886635  77.4664612  27.7484474  58.9759369  77.9771347
  26.7116661  58.3591423  77.0630035  75.9675217  23.8938026  13.9600964
  76.1842880  23.8341885  14.8905220  75.0200348  23.7621517  13.9259977
  20.7906303  63.8019867  58.4929619  20.2516155  64.3930588  57.9672966
  20.7827320  62.9763107  58.0087852  17.2106972  13.5255880  15.4294119
  17.1236210  14.3532629  14.9565439  16.5997391  12.9336252  14.9906168
   0.7792093  26.6629524  87.9869308   1.4318949  26.7460136  87.2917099
  -0.0564757  26.8337631  87.5525513  18.7555714  27.0306263  86.9547043
  18.0799961  26.9931641  87.6317749  18.6689663  27.9063702  86.5781403
  27.6649990   6.2307291  73.7490082  27.4603233   5.8343635  74.5959091
  27.5013199   5.5344667  73.1128769   8.0809841  11.6996899  57.6778221
   7.5999284  12.0859890  58.4096642   7.4535465  11.6943150  56.9549637
  21.5665607  22.6299877  73.3386612  21.7043972  23.5172539  73.6703110
  22.2717609  22.4989681  72.7048187  83.0993958  16.7051849  30.5765934
  83.7069931  17.3256741  30.9791489  82.6547318  16.2912331  31.3162899
  45.6847191   6.0383892  74.7752380  46.3302956   5.3599224  74.9730911
  44.8740425   5.7209306  75.1730499  71.0590744  11.4210978  33.7418785
  70.7218552  11.0688295  34.5655403  71.9907074  11.5661287  33.9069939
   4.7779708   8.9209747   1.9402611   5.1034155   9.7756844   2.2227299
   3.8575459   9.0738440   1.7265303  80.0058365   2.4726346  28.8566227
  80.3887558   2.8690963  29.6391983  80.6534805   2.6265450  28.1687984
   9.5041437  32.9581947  10.5752478   8.7186136  32.4743767  10.8303881
   9.2569427  33.4070549   9.7667646  14.0490894  48.5584183  29.6257458
  14.2782879  48.6265717  30.5525990  14.6506138  47.8999977  29.2780590
  64.2478409   5.2233477  46.3952217  64.2165146   4.2751293  46.5222359
  64.7238693   5.3392539  45.5729103  64.2752914  45.4728508   3.3551233
  64.4323959  44.6695900   3.8514307  65.1501236  45.8079605   3.1586409
  43.4092979   0.6172928  49.1371613  43.1797791   0.9296823  48.2619667
  42.9012527   1.1710590  49.7300072   1.1260847   6.9254274  39.4167099
   1.0716721   6.2811017  40.1224823   1.7417809   7.5832357  39.7398796
  80.5714951  12.0285435  72.7627716  80.5328751  12.7811785  72.1726151
  79.8232193  11.4876156  72.5103607  31.4277420  57.2259445  64.3153534
  31.9925156  57.3518867  63.5528564  32.0344658  57.0840988  65.0419922
  74.7563934  20.7953911  46.1432686  74.7398071  19.9535046  46.5984421
  74.0109329  20.7583752  45.5439720  40.7678375  44.3647614  85.4433670
  39.8784866  44.1057549  85.2021255  40.6541061  44.9260979  86.2103043
  84.3034515  22.8666344   7.0483675  84.7911758  23.2184772   6.3036766
  83.4329834  22.6787415   6.6973548  52.2388649  12.7325201  64.6238861
  51.8168449  13.2151699  63.9131317  52.3925896  13.3904343  65.3019409
  31.0962029  58.3254852  42.1899490  31.6282845  58.6774635  41.4763451
  30.2474823  58.1412315  41.7875137  36.7936783  52.1813393  78.4326401
  36.1264229  51.9477234  79.0779495  36.9932899  53.0993423  78.6161118
   2.4127221  31.7581425   5.9461875   2.3940926  32.2487411   6.7678924
   2.6780057  32.4015770   5.2890348   1.4030800  50.0786324  54.4250755
   1.8787827  49.8172264  55.2134933   0.9464644  50.8815994  54.6760216
  70.3299713  24.0324860  67.0224533  70.3086395  23.7482338  67.9362259
  69.6025772  23.5668716  66.6097336  55.5221634  25.3375225  29.4309063
  54.7633514  24.9508610  28.9939556  55.7401466  26.1032181  28.8994675
  40.5572395  51.8222237  71.4631271  41.4608154  51.9389992  71.1696243
  40.0786858  51.5739441  70.6721954   2.1261756  11.0404406  11.7754726
   2.4500959  10.6851587  12.6031704   2.3530953  10.3762856  11.1245985
  11.6910505  60.7000885  89.1370316  11.8558950  61.1542740  88.3107300
  11.2268677  59.9023247  88.8833847  13.1917677  54.2247124  55.6677475
  13.2665195  53.8121262  54.8072739  13.0146770  55.1458702  55.4771118
  76.9678040   7.1488523   6.5017834  77.2213440   7.9355536   6.9845381
  77.2539749   6.4240746   7.0576935  67.4330673  30.6840725  15.3037186
  67.5344696  30.6032524  14.3553419  66.6262817  30.2077427  15.4997892
  71.9769669  17.1457405  79.9268723  71.3907776  17.9021339  79.9049301
  71.5944901  16.5281544  79.3035507  73.1056595  39.1639633  13.4163628
  73.4643021  40.0514259  13.4122992  73.7932281  38.6259689  13.0238848
  46.7228241  37.9213600   2.9335718  46.7163467  37.4207268   2.1177557
  46.9000435  37.2704353   3.6126308  70.7086258  39.6439095   8.7056150
  70.0987549  38.9412117   8.9303427  70.8694534  40.0955391   9.5341053
  79.7251816  69.4490509  51.7431374  79.4525452  68.7480927  52.3352242
  78.9603043  69.6058884  51.1894188  86.4109879  52.0930557  74.6791077
  85.8117142  52.7709274  74.9914932  85.8762207  51.3001366  74.6399307
   8.7943182  21.4984989   2.6640110   9.6806164  21.7127647   2.3728108
   8.4814959  20.8564129   2.0267518  64.2511826  65.0250015  20.8191662
  64.9797287  65.0932770  21.4362411  63.4877396  64.8475494  21.3686275
  11.3561277   5.0764928  36.9387398  12.0700779   5.2414594  37.5546074
  11.7365971   5.2526240  36.0782433  51.7060890  48.2027130  87.9447250
  50.9101410  47.6765480  88.0211945  52.0987778  48.1711769  88.8171005
  10.7389269  62.3080521  48.9168472  11.2710752  62.6643295  48.2054291
  10.2967234  63.0704994  49.2901611  60.7445831  69.8335571  32.1070404
  60.9709969  69.4106522  31.2787151  59.7941017  69.7405167  32.1715126
  79.4692307   0.6828324  36.0680923  79.1714478   0.2080516  35.2921143
  79.5733337   1.5866500  35.7705879  85.2535858  14.2871466  75.0043945
  86.0577621  14.0870905  75.4834518  85.0557785  15.1944056  75.2367477
  73.5893478  21.8780193  24.4003925  73.0088654  21.2064171  24.7584705
  73.3333206  21.9504433  23.4809170  45.2605553  64.8215256   0.0071495
  46.1703033  64.8151779   0.3047339  44.7471848  64.9250488   0.8083771
  74.7174454  68.2324219  76.5354919  75.3669510  68.2107620  75.8327103
  74.1570206  67.4749222  76.3671112  36.3294907  56.4013329  85.8917236
  36.5065498  56.4934120  86.8278885  36.8066025  55.6124916  85.6341782
  30.3682346  37.3805313  76.6907730  29.4873772  37.0817719  76.4647903
  30.9404716  36.9312325  76.0687561  18.9491329   8.0616913  47.0287704
  19.4846535   8.4584618  46.3417320  19.3962193   8.2911253  47.8434525
  10.7547512  69.3089066  65.5923843  11.0572834  70.2168198  65.5724030
  11.5563002  68.7909317  65.6661911  47.6228714  20.7386055  81.7802277
  48.0007401  20.9205971  82.6406479  47.8578186  19.8277187  81.6032639
   8.2548513  58.9678001   6.2039557   7.7547336  59.3183289   6.9410071
   9.0609074  58.6346321   6.5982938  62.3901024  62.2960434   7.1458545
  61.6803474  62.6178970   6.5900793  62.7357674  63.0807190   7.5713396
   2.9838209   0.3759921  60.2258148   3.3724129  -0.4985511  60.2057533
   2.1427283   0.2543097  60.6662560   4.6673155  58.0397873  79.2542572
   4.1208081  57.3552170  79.6401672   5.5649080  57.7481995  79.4140549
  35.6824455  24.5976105  72.8379440  36.1513062  25.3488350  72.4745407
  35.0907898  24.3228378  72.1374588   9.1252518  55.0894814  14.4718008
   8.2253914  54.9147034  14.7473631   9.0943947  55.9699173  14.0974855
  18.0667477   1.5898776  40.4289284  18.3664112   2.2227530  41.0815430
  18.8719254   1.2270801  40.0597420  16.4685173  54.1459312  41.7259598
  16.9246769  54.9845619  41.7956161  17.0706959  53.5856819  41.2363358
  52.0214577   4.5043607  38.2435036  52.1770935   5.3585782  37.8406105
  51.2034073   4.6136966  38.7283440  45.6191368  48.6688995  50.5770607
  45.1117477  48.1385345  49.9626503  45.5557938  48.1986923  51.4084015
  60.0414963  18.0887566  11.4592810  59.6663780  18.7398300  12.0522566
  59.9053802  18.4543152  10.5851698  77.4877777  10.0761948  47.9804459
  77.0709000   9.8923397  47.1386375  77.3005524   9.3039703  48.5141602
  82.5380554  49.8644714  34.3942757  83.3872223  49.6693001  34.7905693
  81.9602509  49.1707077  34.7122002  53.9824867  28.3602428  65.4612198
  53.1815605  28.4797058  65.9715958  53.8689156  28.9299412  64.7004471
  27.6302700   6.2875710   1.2455727  26.7007351   6.0870805   1.1360396
  27.7395496   7.1469030   0.8383397  72.5733109  15.3297024  71.4971313
  73.1257553  15.2961817  72.2780991  72.7611694  14.5124311  71.0356064
  39.4493675  18.9126568  73.0047760  38.6936913  18.7558041  73.5709839
  40.2013130  18.6294899  73.5250015  55.5511017  21.2698402  75.2537231
  55.0035133  21.2549477  74.4687653  55.5819092  20.3574791  75.5416107
   1.6723173  62.3561821  22.5907936   1.1541712  61.7912636  23.1640491
   1.4191519  62.0955811  21.7052269  84.3263168  33.1745529  52.4498444
  84.6567001  33.1670189  51.5515022  83.9533157  34.0491104  52.5605354
  20.1703968  12.3237295   9.8377247  20.0457134  12.7691031  10.6757755
  20.8090820  11.6357508  10.0248032  83.3700714  63.8311348  86.2792740
  83.3509979  63.3636284  87.1143188  83.6735077  64.7106934  86.5040741
  68.8455582  40.2613029  40.8024368  68.5527649  40.8327980  40.0925789
  68.8721008  40.8297539  41.5721054  18.0875587  13.2278290  70.4270782
  17.5796623  13.7189341  71.0728989  18.5637836  13.8980608  69.9369431
  57.1877098  63.5006218  65.1475449  57.6458893  64.0774765  64.5363617
  57.8238449  62.8154984  65.3528976  75.8957748  22.3102512  55.4833412
  75.2455292  22.4093018  56.1787567  75.6866379  23.0051308  54.8591347
   8.3666430  53.6119766  68.8046188   7.6809859  52.9514084  68.7058411
   9.1252356  53.1237793  69.1246719  55.0247841  28.6986122  87.3377686
  54.1849518  28.3104324  87.0923462  54.8236504  29.6196766  87.5033493
  35.7938957  45.3723373  77.9473877  34.9114494  45.6021919  77.6563721
  36.3511162  45.5569077  77.1912994  78.1541290  57.1138344  75.6284561
  78.5003662  56.2215080  75.6386490  77.7875900  57.2185097  74.7504349
   9.4381046  36.5587425  38.5092392  10.1118317  37.2231445  38.3646851
   8.6145887  37.0066719  38.3158073   8.3134251  64.9805679   4.7015700
   8.6580906  64.1663055   5.0681973   9.0122108  65.6200256   4.8395143
  35.7004013   5.6833868   3.3906758  35.1785164   5.0874815   3.9280469
  35.5515594   6.5465622   3.7766895  62.9368362  31.0862312  55.9111328
  62.3404274  30.3848114  55.6493416  62.5545692  31.4380703  56.7150688
   7.1288271  64.3427811  55.4693794   7.3668194  63.6031723  54.9102936
   7.2416043  64.0146790  56.3614883  41.3600235  47.8558540  11.1922674
  40.8522568  47.0559311  11.3283730  41.4743385  47.9084396  10.2433748
  85.4450302  53.3158531  32.3205452  85.8219376  52.9338799  33.1131821
  85.4601898  54.2597313  32.4789581  55.5786972  69.4830322  13.5697851
  55.1503754  70.2471924  13.9555788  55.1623230  69.3817596  12.7138605
  32.7942848  10.1977787   6.9445887  32.3760414  10.9480600   6.5222330
  32.5247574   9.4454098   6.4177790  24.5417118  37.7075462  59.8959045
  24.6798992  37.8843193  60.8264351  24.8814030  38.4843102  59.4515190
  70.6233139  62.9659615   3.0365157  71.2021942  63.0268517   2.2766309
  70.2715225  62.0765457   2.9989564  73.9097137  46.3281593   3.5588155
  74.4699554  45.6362457   3.2072203  74.4030838  47.1347504   3.4097164
  44.7454491  48.0763359  11.4493647  45.2234802  48.1234627  10.6214170
  43.8254852  48.0169907  11.1917295  61.1915321  57.1026421  24.1042786
  60.6138344  56.3496819  24.2289639  60.6912918  57.6985970  23.5467587
  10.8630152  68.1336365  45.6961517  11.4399328  67.3981171  45.4902000
  10.2144041  67.7681274  46.2977638  26.2722492  31.9569607  23.7081871
  25.4310513  31.9363613  24.1644726  26.7913361  32.5995865  24.1917267
  63.0711060  49.3538933  22.0938778  63.8939629  49.1358109  22.5315723
  63.1648254  48.9910316  21.2130947   1.7786885  22.6515999  61.6667404
   1.1187977  22.0658092  61.2957611   1.2769217  23.3912888  62.0092621
  31.1411781  54.9600601  42.7707939  30.7969685  54.0676651  42.8079491
  30.7388058  55.3396454  41.9896126  70.8926544  62.6621284  40.5333290
  70.4059067  62.2020302  39.8495064  70.9781189  63.5573425  40.2054291
   3.6524794  54.8301086  79.2303619   3.8246081  54.6467781  78.3067856
   2.7299695  55.0841522  79.2562332  38.7060013  58.3092003  71.5902405
  38.9639091  58.9541473  72.2488403  38.8506660  57.4631729  72.0139694
  81.5669861   6.8799367  34.0291557  82.2635574   7.2110653  34.5960541
  80.7574615   7.1083522  34.4860229  69.2095871   5.2065158  14.0655823
  69.7184677   4.4044738  13.9472647  68.3683624   4.9076738  14.4109373
  28.0293407  46.3237038  86.9206314  28.8997173  46.0899544  86.5980835
  28.1970730  46.8977051  87.6680450  62.4815979  18.7395020   7.9813752
  61.9920921  18.0506363   7.5318437  62.0148811  19.5462589   7.7633133
  69.8884354  32.6371193  75.8857498  69.5662537  33.4050789  76.3576202
  70.7574234  32.4770126  76.2537918  41.1419258  70.3818283  11.7246332
  40.2116356  70.4929581  11.9206982  41.3445435  71.0911255  11.1146545
  16.4337330  58.5882339  23.6130409  16.5528812  57.8311234  23.0396137
  16.0279713  59.2507210  23.0538425  80.2925339  16.6577854  79.3719635
  80.8996277  17.3978176  79.3664703  79.4547272  17.0332832  79.1012115
  73.8147049  19.0466747  17.5410786  74.2661667  18.4962177  18.1809330
  73.7309570  18.4924984  16.7651234  11.9834805  50.0946846  59.7193565
  11.4606142  50.0451508  58.9191132  12.8784285  49.9132614  59.4323311
   7.5300364  68.1094971  36.7532654   6.7249594  68.4077377  36.3300247
   7.2854600  67.9811935  37.6697540  46.0843620  66.8512802  24.7027493
  46.2138939  66.7202682  23.7634468  46.8917923  67.2709732  24.9996376
  43.8117867  48.2332420  61.4415894  42.9823608  48.2765503  60.9657669
  44.4333763  48.6991196  60.8822937  21.6439228  11.7677116   4.2396293
  21.5253563  12.2590485   5.0525022  21.6951790  12.4390659   3.5592711
   7.1267977  31.7708626  11.2538090   7.1004229  30.8348827  11.0551167
   6.8696342  31.8276958  12.1740637  74.4054794  16.0531559  40.8613777
  73.7277908  15.3804827  40.7943993  75.2254639  15.5624075  40.9163857
  36.2850990   3.4249294  37.3957825  36.6213036   3.7989016  36.5813217
  36.3721924   4.1302023  38.0370598   7.2935052   9.3811760  88.6139069
   8.0255537   9.9878721  88.5032043   7.6038151   8.7467661  89.2600250
  74.6114120  54.5109825   0.6362501  74.4342194  55.4507713   0.6766962
  74.8962250  54.3595200  -0.2649556   3.0267026   8.5223875  78.0202408
   3.3966146   8.1112556  78.8015060   2.1127446   8.6918440  78.2487106
  71.1479568   9.0345135   2.8822517  71.3224869   9.5666237   3.6585443
  72.0116196   8.8767138   2.5009172  53.8133545  29.3341064   2.2549598
  54.0459175  29.0171757   3.1277146  54.5481911  29.0709400   1.7008948
  16.6685600  28.9380646  24.4650669  17.5930920  28.6954288  24.5160618
  16.3161659  28.7216091  25.3283157  75.6764526   7.2576647  17.3210373
  76.2543640   7.9031353  17.7279987  74.8087997   7.4579239  17.6721897
  70.2151642  59.3833618  62.8896103  69.3304901  59.5746727  63.2010269
  70.6546249  60.2336578  62.8794823  29.4428120  52.4210625   7.9957857
  30.0398846  51.6853142   7.8601079  28.6642132  52.0280800   8.3902254
  46.3280029  52.8581161   3.2555900  46.3218498  52.7220535   4.2030506
  46.4091949  53.8060303   3.1502693  50.1410751  30.6190529  78.8320312
  50.9702301  30.3857803  78.4145126  50.0938492  30.0538769  79.6031189
  68.1309814  26.9117260  33.8285828  67.9982452  27.7497578  34.2716560
  69.0162430  26.6465054  34.0779953  75.2654724  33.6849518  66.3353195
  75.8408737  33.7365379  67.0985260  75.1213074  34.5966949  66.0819931
  74.1439514  31.8454304  13.6816263  74.1529694  30.9266338  13.9498920
  74.1999893  32.3350868  14.5021925  11.5232058  48.2031174   9.6470423
  11.6738043  47.3370018  10.0257139  10.5704803  48.2791901   9.5945053
  18.5622234  15.5237713  10.8093185  18.7049160  16.3436317  10.3363504
  17.8905087  15.0682755  10.3018179  15.7941198  69.6309586  33.8312187
  16.6351337  69.7896042  34.2598915  15.7666655  68.6830368  33.7010918
  74.4118423  14.2193642   2.1867316  74.1927338  14.6331654   3.0215914
  73.5898895  14.2197857   1.6961899  62.0221138  51.5957375  59.5095787
  61.8238487  50.6848259  59.2924080  61.4751740  51.7846794  60.2720680
  21.5607491  40.3794708  16.3077068  21.9500561  39.5163536  16.4480476
  20.8404846  40.2210007  15.6975117  54.5536957  31.1376858  66.6248932
  54.2753983  31.6351490  67.3938599  54.5516129  30.2258015  66.9159164
  78.6065903  46.8947525  70.5562820  77.9484940  47.3965073  71.0373077
  79.2921906  47.5312691  70.3537064  40.0822830   3.1635306  74.9930801
  40.8223228   3.7698784  74.9628220  39.5153999   3.5116482  75.6813278
   2.8690109  32.7573814  65.8362198   3.6707180  33.2730675  65.9231873
   2.2667153  33.1417313  66.4731979  68.1598511  49.3383789  51.1230049
  68.7589951  49.0906792  51.8272057  68.6413269  49.9939423  50.6183815
  17.2286530  67.5396423  86.7861404  16.4133396  67.8664856  86.4057846
  17.5446014  66.8925095  86.1555634  71.0628510  50.2389755  18.7540379
  72.0040131  50.3973923  18.6808090  70.8609085  50.4161949  19.6727562
  27.2229424  21.3467712  86.1900330  27.3768291  20.7827415  86.9479370
  26.6128597  20.8518829  85.6431198  29.0668964  57.5788345  62.4689026
  28.5181389  57.8517265  63.2041740  29.8988037  57.3286209  62.8708458
  53.7670898  65.0033722  44.8015175  52.9061241  64.5899277  44.8650627
  53.5792122  65.9401321  44.7429924  64.4216995  69.1583710  70.0292892
  65.1946640  69.6930771  70.2105255  64.6658096  68.2789383  70.3177948
  85.1389771  56.2123299  30.4875374  86.0582123  56.0851860  30.7221909
  85.0813141  57.1340332  30.2358112  81.8699112  12.2312336  19.7384033
  81.3619690  13.0070591  19.5010700  82.7824554  12.5042114  19.6437092
  14.7332325  65.0931091  74.3026505  15.3231421  64.3439789  74.3866196
  13.8916559  64.7728195  74.6273041  72.2753830  57.5909462  24.7459412
  71.4392166  57.2503242  24.4280834  72.6630859  58.0226631  23.9846706
  16.3970280  56.2143402  65.7671356  15.4773226  55.9490738  65.7695618
  16.4188709  56.9978600  65.2177277  19.4549465  27.1514816  27.0434780
  19.0735760  26.5023937  26.4523163  19.4456024  27.9668102  26.5420990
  77.2337646   9.2389536  71.7192535  76.4255142   9.5924673  71.3477936
  76.9766998   8.3965530  72.0940933  47.4705925  51.8952217  34.8195152
  47.8055267  51.7388802  33.9365616  46.5331612  52.0450668  34.6970329
   5.5310669  63.7059975  21.3612671   5.0748672  62.8931160  21.1436977
   6.2241468  63.7748108  20.7046566  35.3936501  54.5145340  66.6720352
  36.3064804  54.3259354  66.4543228  35.2286110  54.0110703  67.4692307
  69.6480331  70.1242447  27.9065361  69.3284836  69.9129944  27.0293274
  68.8636627  70.3796158  28.3921165  58.1008835  44.9392395  29.6641502
  57.9357758  45.4712906  30.4425430  59.0094948  44.6531258  29.7579117
  18.0483189  65.5629807  14.0535078  17.9374504  66.4510269  13.7139311
  18.5178928  65.0985184  13.3606844  54.5775642  44.1870575  46.6335793
  54.8232536  43.4646378  47.2114868  53.8769836  44.6408958  47.1020355
  55.4473000  38.0451622  12.3851652  56.0050163  37.7525444  11.6643629
  56.0609169  38.3158875  13.0681076  72.6079712  64.0243454  31.0491962
  71.6945801  64.2918243  31.1511688  72.6323700  63.1254616  31.3772869
  52.3162193   4.1251683   8.5686760  52.2104263   5.0765033   8.5698318
  51.6464691   3.8089626   9.1750402  15.6678572  16.1195278  60.2155533
  16.0487461  15.2447681  60.1384125  15.2159300  16.2582321  59.3832359
  64.8085175  28.6628246  35.0839043  65.6943665  29.0153027  35.1691971
  64.8399429  27.8226891  35.5415230  10.5473280  40.3194160   8.7569294
   9.8424273  40.2134476   8.1180878  11.3131332  39.9293098   8.3355122
  65.2904053   5.3239412  21.4112663  64.8930435   5.6809287  20.6169777
  64.5483475   5.1297851  21.9838772  14.1971197  11.1960831  67.9769135
  14.9216595  11.7668924  67.7210770  14.0207949  11.4270229  68.8889465
  76.7833786  46.3435440  82.9515457  76.0524368  46.2820663  82.3365784
  77.5251617  45.9637642  82.4806366  11.0549421  33.9184647  78.3856506
  11.7797298  33.9475594  79.0102081  11.1314383  33.0597153  77.9698105
  43.8113556   9.9571867  69.0820847  43.7503510   9.1067400  68.6470566
  43.6534653  10.5944176  68.3854904  58.8736877  43.0278931  79.4698181
  58.3583183  42.4159088  79.9952698  59.7349129  43.0358734  79.8875046
  34.4557228  49.3716049  73.5169601  35.3829193  49.2573547  73.7254944
  34.4529419  49.7543945  72.6396408  65.2584229  18.1408253   0.7449008
  65.2758408  17.2429218   1.0761094  66.0387955  18.5494480   1.1194377
  44.5376854  41.5081711   1.9216759  44.8999329  40.7497063   2.3796535
  43.6198807  41.2815170   1.7716811  24.3516388  46.1867523  70.7477341
  24.9317303  46.0776672  69.9941940  23.6760502  46.7930794  70.4441223
  47.4765701  63.0540314  65.9457245  47.4284401  62.1073227  66.0785980
  48.0001869  63.3727570  66.6808929   2.4012239  35.4439163  54.7687874
   2.3443723  35.4451828  53.8132782   1.4974616  35.5583382  55.0626488
  36.3337860  28.2925587   7.6562805  36.9043655  28.8312225   7.1080904
  36.9180336  27.9203014   8.3168173   0.3544072  26.4411392   2.8599074
   1.0019425  25.8862076   3.2946267  -0.4179160  26.3945312   3.4234467
  54.4585876  16.6771030  67.1546936  53.7327957  17.3011150  67.1467438
  54.9970322  16.9454594  67.8992081   1.9542269  64.0662460  35.1666107
   2.8956878  63.9313431  35.0585098   1.5986720  63.9941368  34.2808266
  50.1585808  37.1583099  68.0402069  50.8868217  37.6051788  67.6086884
  49.3771858  37.4958611  67.6023560  71.5397568  25.0231647   5.8631229
  71.1081848  24.2158394   6.1427712  71.4497147  25.6142101   6.6106434
  10.2440262  44.2979965  71.4597778  10.8411837  45.0335159  71.3232117
   9.9995003  44.0208855  70.5767975  58.2862282   6.5679731  78.2865601
  58.6463890   5.8134232  77.8205414  59.0452652   7.1223741  78.4674835
  24.2990341  63.0903664  31.3582973  24.7246189  62.3525848  31.7950878
  23.7015724  62.6845665  30.7301273  64.1947708  34.5136795  70.2770157
  63.4215050  35.0049667  70.5543747  64.9332962  35.0713463  70.5216064
  19.8471069   5.5475726  50.6217651  19.5469818   6.2398176  50.0327377
  20.5239353   5.9639173  51.1554260  36.7314148  56.1709709  57.0202713
  36.3311462  55.5455589  57.6243210  37.6698570  55.9908791  57.0761261
  58.1687660  41.0382957  23.9159527  57.3061867  41.2860031  23.5830460
  58.6870346  41.8410378  23.8590584  41.8649368  45.6372147   7.4383349
  42.7907257  45.5970268   7.1984782  41.4467583  44.9721107   6.8915277
  15.1031628  53.4184799  83.9140091  15.3818760  54.0550117  83.2556915
  15.2195864  53.8712120  84.7492981  33.0941544  51.1605301  10.1775484
  32.3508072  50.7680206   9.7197266  32.9818268  50.8932991  11.0897999
  55.2821007  46.4996796  39.5629425  55.1289864  45.8338051  40.2333145
  56.0165405  46.1601944  39.0514946  59.7151222  63.4488487  28.0927410
  59.4978561  64.2565613  28.5581760  58.9664078  62.8733978  28.2493076
  10.3422318  41.4909172  69.4195404  10.6464214  40.5862694  69.4924164
   9.8331423  41.6373901  70.2167892  46.4444771  60.0029488  58.9510765
  46.9053688  60.3182907  59.7284889  46.0077591  59.2017097  59.2400894
  63.7099228  20.7602844  63.0853996  63.7288284  20.6780930  62.1319237
  63.2075310  20.0011635  63.3813210  48.8309059   2.7543018  44.6436615
  49.0234947   3.6394665  44.9528923  49.2781944   2.6928413  43.7996292
  47.4139671  28.1928616  79.2325058  47.0998039  28.9660339  79.7012711
  48.2082024  27.9352856  79.7005615  29.6429405  55.8771820  87.9243774
  29.9617710  55.8415375  88.8262100  28.8534565  56.4164505  87.9705887
  13.4866934   4.1119022   5.0115066  13.6483698   5.0542688   5.0566463
  12.5392895   4.0366206   4.8975296  62.6902008  46.9230080  10.1502275
  62.3817711  46.7972145   9.2528543  62.4664459  47.8307991  10.3553572
  17.8706093   1.8919828  52.5310020  18.3929977   2.2176406  53.2640038
  18.2231598   2.3456604  51.7654190  14.2872086  61.3554230  11.6325350
  15.1383715  60.9268188  11.5428047  14.4901476  62.2907829  11.6447458
  18.1994781  60.6181564  30.6292801  18.5861683  59.7987251  30.9378796
  18.1974449  60.5377655  29.6754646  76.1864319  62.3660011  42.1678200
  75.3075867  61.9903908  42.1151924  76.0731049  63.2787056  41.9025764
   9.5108576   7.5532861  37.4362488   9.5368280   6.7386575  37.9381828
  10.3314638   7.5572577  36.9434814  53.5172310  11.9351816   3.1890888
  54.0180016  12.3493118   2.4862680  53.5859032  10.9971151   3.0114725
  24.8895512   5.7514915  26.0978775  24.1708317   5.9339046  25.4925671
  24.5709019   6.0572505  26.9471169  84.4236603  42.9874992  63.0018883
  85.0176239  43.1072235  63.7429008  84.9102173  43.3219299  62.2484627
  83.7537766  37.3781624   6.0301361  84.6703339  37.6256180   5.9079862
  83.7849045  36.4491272   6.2585168  33.1997948  62.6385803  28.1941662
  32.4487762  63.2139740  28.0488205  33.9286118  63.2348289  28.3660431
  49.4784851  12.4288683  81.1460190  50.0563622  13.1858530  81.0497742
  49.6971512  11.8647661  80.4042664  16.7667446  27.2217140  21.5001030
  16.4532318  27.0307426  22.3841133  17.6215897  27.6315346  21.6324654
  55.8340721   3.7326996  58.6346092  55.2863922   3.4123127  57.9179268
  55.3264542   3.5482347  59.4248810  15.4181490  29.9450912  86.1054153
  16.1295280  29.5779228  86.6301651  15.0010834  30.5853539  86.6819153
  63.0890236  22.8338871  75.3571625  63.3782616  23.7363338  75.4919205
  63.5018501  22.5703392  74.5347595   2.4821939  44.1709824  71.6674652
   3.1479864  43.5334625  71.4095459   1.6898705  43.6501274  71.7984848
  19.9293690  39.5079117  14.3149614  19.0718365  39.2524567  13.9749451
  20.5546207  39.1280060  13.6977377  75.2527924  11.5367756  39.6706314
  75.5302048  11.8644896  40.5261307  75.1868210  12.3198214  39.1240807
   1.6385251  21.2582092  65.3830185   2.0250986  22.0984173  65.1363602
   1.7284294  21.2235641  66.3353577   6.2307396  18.9725742  89.0452423
   6.0040307  19.8592358  88.7647629   7.0576754  19.0744991  89.5164337
  85.4083252   1.6943843  48.6392288  85.9901505   1.2625477  48.0137482
  85.8191681   1.5453557  49.4908295  37.8595657   5.4155889  26.4000549
  38.1195564   4.9162278  25.6259251  38.3400764   6.2400985  26.3257256
  68.5874481  21.9141159  19.1994591  67.9335632  22.0172157  19.8908634
  69.4146805  21.7997398  19.6672630  23.2910690  62.0535393  81.7156525
  23.0653286  62.1420288  80.7896729  24.2481613  62.0497398  81.7295532
  62.6985893  65.5885620  68.7159271  63.6240654  65.7950974  68.8465805
  62.2493896  66.4278183  68.8164291  14.2197895  56.8809013  15.6985903
  13.5393543  57.5011482  15.4367990  13.7421417  56.1618042  16.1120892
  29.5253792  55.6980705  40.4801216  29.2629280  56.2689095  41.2022629
  28.8179512  55.7802620  39.8405724  66.0826035  41.0797653  44.4121819
  66.5173950  40.2660446  44.6672211  65.2569885  40.7970924  44.0188828
  22.9054184  38.0641327  76.2383881  22.8978653  37.1150627  76.1141281
  22.3558769  38.2092285  77.0085678  31.6879368   0.8834949  33.3185730
  31.6450806   1.3402302  34.1586838  32.1768723   0.0822685  33.5062180
  52.6125069  38.0278778  85.0874405  52.1800270  38.7903442  85.4719391
  53.5344162  38.1311455  85.3233490  37.2393112  44.4660339  21.6613579
  36.8615875  45.0260086  20.9831371  36.4954033  44.2216187  22.2118969
  28.5996361  11.9374065  72.6064987  27.7908020  11.6464300  72.1853638
  28.3204689  12.6229658  73.2133789  55.8436775  47.5588875  82.9024124
  56.1533813  47.0746651  83.6678162  54.8933678  47.4449615  82.9153290
  20.7111874  67.7892532   8.9978027  21.2846775  67.1097946   8.6432877
  20.5576038  67.5239182   9.9045782  84.9031906   4.3982925  23.0297623
  84.0416107   4.3853307  22.6129360  84.8910522   3.6512458  23.6280975
  37.3564987   9.1604404  63.1289215  36.9636230   8.7567930  63.9028397
  37.1916542   8.5353651  62.4229889   3.9360251  49.8521385  23.7936611
   4.0452356  50.5474091  24.4424343   3.3186498  50.2130699  23.1574135
  23.7665577  69.7260284  54.0277863  23.7481060  70.5360641  53.5181503
  24.5476246  69.2666931  53.7192764   3.0448983  69.5339432  16.1315899
   3.1012828  70.0018387  16.9647312   2.1063759  69.4115448  15.9886713
  84.8045731  44.4725990  49.0811043  84.3270493  43.9817505  49.7498817
  85.3630753  45.0715370  49.5766716   4.5758896  23.0969276  71.0708160
   4.5094795  23.9598217  70.6618729   3.7185004  22.6966934  70.9261551
  58.5202675   3.4670880  59.4570122  57.7005806   3.6992006  59.0205841
  58.5162697   2.5101950  59.4809151  29.3334064  10.4610929  82.6567383
  29.0816860   9.6108036  83.0171204  29.8701668  10.8616610  83.3405991
  82.2410812   7.6277003  75.2368546  83.0010681   7.2845268  75.7068405
  82.5529327   8.4399776  74.8378754  35.8101463  59.4809990   3.6856518
  35.7541580  58.5674706   3.4053662  36.7407417  59.6213150   3.8603890
  65.5002594  13.4592495  41.7058792  64.9747925  13.5859671  40.9159012
  64.9111328  13.0168905  42.3170052  19.2031631  24.2054443  86.0482254
  19.2511444  25.0623722  86.4720230  19.7298336  23.6327000  86.6057358
  64.5475388  55.0467072  65.8272705  64.6261826  55.0737190  64.8736954
  65.2342911  54.4415245  66.1071930  17.2720299  41.8388863  68.6157150
  16.9937000  41.4024124  69.4208603  17.2745152  41.1454391  67.9559021
  44.2547150  14.0750885  72.1673660  44.4147377  13.9033146  73.0953293
  44.3254738  13.2169456  71.7492523  47.2042503  28.4627228  70.2804108
  47.1354256  28.4440727  69.3258667  47.6530304  29.2861729  70.4721375
  46.5850410  30.1794281  88.7794800  47.0845757  30.6261616  89.4629440
  45.8432083  30.7592945  88.6072159  50.8858871  57.5790443  63.9480667
  50.5598030  56.9122620  63.3436623  51.3052177  58.2289619  63.3841515
   9.4919329  43.0389099  32.6038170   9.8579435  42.1545029  32.5940742
  10.1518898  43.5760880  32.1654930  36.1542282  39.3915291  87.2666779
  35.7542725  38.5515327  87.4917908  36.6169777  39.6571007  88.0613937
  79.1223602  62.5512123  15.6915789  78.2972031  62.7876396  15.2679567
  79.7981567  62.8487320  15.0824690  13.6729565  52.6747818  25.1576672
  12.7645607  52.6886711  25.4590912  13.8853388  53.5938034  24.9947872
  62.3232994  11.6871243  29.8939438  62.8131561  11.0968275  30.4664974
  62.9962730  12.2010288  29.4475803  32.6089745  17.1843586  16.1054592
  33.0161324  16.7328796  16.8447971  31.7243500  17.3897209  16.4079456
  36.9362488  54.4566879  59.6566963  37.6083641  53.8139191  59.4300957
  36.9331970  54.4727745  60.6137543  72.6677704   3.5053122  71.6983566
  73.3151093   3.9305518  71.1359024  73.1129303   2.7247467  72.0281754
   0.7520948  54.7624741  56.6355019   1.1477735  55.6339645  56.6485901
   0.1367303  54.7897987  55.9028282  52.6341858  49.5931702  15.1835632
  52.6008911  48.9188118  14.5050602  52.8604851  50.3954124  14.7130051
  39.6718216   8.0842600  14.3492155  39.5746841   9.0127668  14.5605717
  39.8606567   8.0706863  13.4109240  57.4200821  48.3023796  48.1221237
  57.3955116  49.2507935  47.9950714  58.2544250  48.0309982  47.7394295
   3.3484609  24.6772270  60.8364296   2.9272695  23.8236523  60.9376183
   3.5861397  24.7187252  59.9101372  77.2291412  67.2074203  75.4865723
  78.1092148  67.5759811  75.4099884  77.3445206  66.2734833  75.3114243
  65.1979218  33.2253036  63.2024078  66.0073166  33.7281532  63.1115417
  64.5206070  33.7932243  62.8350677  35.3028259  66.2468796   9.3088312
  34.5582771  65.7688446   8.9436483  35.0303802  67.1643143   9.2911568
  63.7717628  56.5090446  29.6865482  63.2240410  55.7585945  29.9168968
  64.5360413  56.1248779  29.2569942  12.8950100  50.2798347  52.6698303
  12.6665049  49.9921303  53.5537109  12.8798218  49.4789429  52.1458321
   9.5873480  39.2534828  40.6720200  10.0428820  38.8229294  39.9485970
  10.2316513  39.8631172  41.0318108  84.2326431  63.2893028  -0.1548571
  84.6492844  62.4303703  -0.0850165  84.8467484  63.8885918   0.2693700
  74.6109085  34.1790581  81.6144409  75.5078506  33.8528862  81.6875000
  74.1081161  33.6351128  82.2207031  59.3945885  66.0546799  23.3136749
  59.5092850  65.9475555  24.2579193  59.4323082  65.1639557  22.9652367
  52.4791107   3.6562579  71.6548309  51.6320763   3.2896714  71.4010925
  52.8951263   2.9644129  72.1691360  37.5895653  29.4490700  85.1343918
  37.5195885  30.3457394  85.4619827  36.7198029  29.0745354  85.2739105
   7.1502910  56.7342300  25.3006668   7.9324470  56.1833267  25.3318157
   6.7417221  56.5228462  24.4612484  84.3162460  48.9466095  23.9631844
  85.2325211  49.2148323  23.8944149  84.0610580  49.1916542  24.8526020
  40.9029121  26.5247574  10.0423269  40.5642624  27.3528347  10.3826714
  40.2507553  26.2452621   9.3998289  58.8910561  63.1093636  17.9056568
  58.5449448  63.9691162  17.6663628  58.4105721  62.4948692  17.3508911
  63.7554817  52.0595169  75.6139526  64.4104919  52.1477890  74.9215698
  64.1300888  52.5289421  76.3593063  24.0504494  38.2458305   3.4521458
  23.3179970  38.3404160   2.8432133  24.5084476  39.0851936   3.4081204
  38.3416023  37.0571632   2.5592337  38.5038795  36.1153069   2.5063221
  37.9664803  37.1870117   3.4302409   8.9563942  40.5728226  46.3018684
   9.4308014  41.2375412  46.8011856   8.1399651  40.4473000  46.7855186
  74.4035950  26.8422565  88.0989151  73.9158554  27.1479797  88.8636856
  74.0240326  25.9865360  87.8991470  49.0412979  67.8191833  83.8302994
  49.5859680  67.0402603  83.9436340  48.3460083  67.7219925  84.4809647
  49.5124474  41.4644432  78.5145798  50.4269180  41.6924019  78.3472137
  49.0223465  42.2524261  78.2798080  19.5088425   0.3358178   8.0034761
  18.6532173   0.7614744   7.9491320  20.1009121   1.0256224   8.3032331
   4.7591162  23.2413197  39.9925652   4.3651190  23.8130131  40.6514778
   4.7449374  23.7586250  39.1873169  21.3858261  13.8526144  89.2443085
  20.7179031  13.5874853  88.6119995  21.6870327  14.7054949  88.9310989
  62.6078606   1.7190515  17.0839138  63.0295029   2.1896379  16.3648891
  63.3333893   1.3407574  17.5806351   8.2532597   7.6914973  48.8535233
   8.8958244   6.9839263  48.9053421   8.3324308   8.1487188  49.6907272
  19.8433323  45.5580215  56.9650955  19.5630836  44.6748734  56.7247963
  20.7662163  45.4608955  57.1997910   4.8634701   6.6197047  74.3067551
   4.6016288   5.7031622  74.3940582   4.0602136   7.1146798  74.4680328
  22.8689060   8.2511425  41.2423820  22.9693584   7.4684105  41.7841110
  23.0003166   7.9408360  40.3464622  86.4929581  30.0519772  16.0461445
  85.8217468  30.6729641  16.3291283  87.2294617  30.2096863  16.6368408
  38.5533142   1.6391771  54.8856964  39.2079582   1.2203302  54.3269119
  37.7838707   1.7331136  54.3241310  36.8889999  59.0481682  53.6053772
  36.6304855  59.7360077  52.9919624  36.0964622  58.5253296  53.7268486
  22.3410969  56.5812607  38.4169960  22.1828499  56.7088509  39.3523598
  23.0906258  55.9870796  38.3797493  47.0516052  53.4643021  26.9309959
  46.9687271  53.0425262  27.7862549  47.4262009  54.3239441  27.1231709
   4.0634055  25.5030403  22.7039509   3.4415541  25.6608353  23.4143257
   4.8805475  25.8973656  23.0089397  77.4347229   3.4396122  46.1979065
  76.5931320   3.8934970  46.1537666  77.2631760   2.6690767  46.7392769
  10.8403683  -0.1100466  57.4921570  11.7943439  -0.0315560  57.4934044
  10.5278568   0.7636280  57.7272339  28.4377518  64.3840408  27.4621506
  27.4834232  64.3527451  27.3950005  28.6282215  64.0340881  28.3324852
  40.8854408  19.2174950   8.6639519  40.9243622  18.3767738   8.2079859
  39.9564667  19.3417244   8.8583975  41.7302551  67.8126831  87.5837708
  41.0888329  68.5220718  87.5439453  42.5011864  68.1614609  87.1362686
  11.8155031  31.8969707  33.9875984  11.0030632  31.6248398  34.4143486
  11.8756504  32.8359222  34.1636314  78.0634689  45.3125725  78.2809677
  78.1121979  44.4184303  78.6191483  77.4750977  45.2522621  77.5283661
  69.8845749  70.8304520  79.7642822  69.6774597  70.4763641  78.8994370
  70.7367325  71.2518921  79.6527481   4.0848007  30.2449322  65.8751755
   3.4805956  30.9872532  65.8639450   3.5746925  29.5155621  65.5229797
  20.5995541  56.7496643  83.3233566  20.6361599  56.6820335  84.2774582
  21.4833374  57.0140533  83.0679016  54.9617653  20.0805359  51.4837456
  54.0486183  20.3655663  51.4498100  55.0794449  19.7596626  52.3778496
  57.2966957  34.7283974   6.0995798  57.8227539  34.9218674   6.8755069
  57.1348152  35.5833321   5.7006922  67.2190094   6.7367902  84.9592209
  66.5813293   6.3231654  84.3774033  68.0695724   6.4984636  84.5904770
  58.2506371  58.9256706  20.5924473  58.0373497  59.0672493  19.6701164
  57.9575653  58.0322304  20.7716427  47.0293007  25.3801899  76.3108673
  47.4343681  26.1855679  75.9891281  46.0904198  25.5173073  76.1846237
  19.1080303  34.3639374   1.3825058  19.1364765  33.4721375   1.7290841
  18.8214188  34.8993950   2.1223497  53.0870781  55.8248444  17.3898678
  53.4124336  56.5457726  16.8507595  53.5143089  55.0465393  17.0321636
  16.2538567  66.5344009  57.0783234  15.5039597  67.1194229  57.1861839
  16.5212364  66.6532822  56.1669464  62.6381073  54.7549667  22.7300301
  63.4207268  54.9865227  23.2301445  61.9145088  54.8880577  23.3423405
  35.8632507  20.7306004  39.1234741  35.6094551  21.4835262  38.5896950
  36.7900887  20.5975952  38.9246864  61.3912697  13.6276064  43.4368515
  62.1064034  14.0547991  43.9083633  60.8006325  14.3422890  43.1989250
  44.7450943  48.9105339  84.4551163  44.4125290  49.6153870  83.8993988
  44.1795273  48.1636543  84.2588043  80.9621429   2.6963689  41.2272263
  81.8736343   2.4268556  41.3402596  80.9570694   3.6258082  41.4560242
  51.3589783   8.4260225  60.2301712  50.5948792   7.8985462  59.9974594
  51.4277878   8.3414316  61.1811409  78.2545013  69.5689697   5.1519690
  78.3870010  69.1581268   6.0062995  78.0386200  68.8422318   4.5676112
  25.2334824  49.8068008  81.2416534  25.0417576  48.8774757  81.1158295
  25.5947876  50.0925598  80.4025879  11.0785923  69.0213699  61.0545273
  10.4554424  69.3479614  60.4054832  11.8063726  68.6779709  60.5362206
  69.5903931  29.1243229  66.4812546  70.1925507  28.3939037  66.3393936
  68.7193756  28.7370167  66.3943329  65.4584122  49.5736618  19.2500515
  66.3233719  49.3205185  19.5725346  64.9215622  48.7893219  19.3633595
  77.0931091  46.3924751  67.7591171  77.6082001  46.6622810  68.5194550
  77.7262344  46.3542786  67.0422363  74.2685165  30.4960270  87.3290482
  74.0960770  30.0578423  88.1624069  75.2181549  30.6149750  87.3129807
  20.7139130  27.7959080   8.7427435  19.8997211  28.0566730   9.1732359
  20.6804676  28.2243271   7.8874240  34.4255753  64.0074844  62.1669235
  35.2332458  64.5191956  62.1216011  34.2571831  63.7450829  61.2619247
  49.6860504   6.6677999  49.1037102  49.2009544   6.0703230  48.5345573
  50.5642357   6.6999798  48.7242508  24.3114624  62.4775391  49.2425575
  24.2857418  62.2552147  48.3118896  23.4288921  62.7922897  49.4380989
  72.9963531  17.6004143  15.3372698  73.3681488  18.0053692  14.5536795
  72.2934570  17.0407982  15.0071335  81.4601288   3.6907139  51.3448868
  81.3219757   2.9236903  51.9006042  80.6932678   3.7130101  50.7724686
   2.1418567  45.6802177  53.1625633   2.9060972  45.1334534  52.9803085
   2.4020166  46.5571594  52.8805695  72.7398911  11.5153742   4.4545274
  73.5878983  11.3049326   4.8454733  72.5217590  12.3786077   4.8059230
  11.4904709  21.4627934   1.2492481  12.3190022  21.6125717   0.7939091
  10.9990578  20.8826313   0.6677338  74.1855087  58.6254730  18.6783943
  73.5937729  59.3759232  18.6244297  73.6977844  57.9065132  18.2765789
   3.7218461  45.4887733  44.6017838   4.1023374  45.7561455  43.7651443
   2.8005927  45.3211098  44.4032555  23.8458500  60.7249985  16.7236462
  24.5253162  61.0983162  17.2850647  24.3285847  60.2712936  16.0327415
  69.1218643  16.9370823  21.1434822  69.8811646  16.6442471  20.6395569
  68.4101257  16.3636093  20.8592510   8.2706461  60.8955688  86.7024612
   8.6775351  61.1910782  87.5169220   8.8798199  61.1700630  86.0170517
  18.6280117  66.3367996   2.7780600  18.3662148  66.0273819   1.9109054
  19.1105518  65.6029282   3.1586173  70.5354462  29.9515228  61.7444153
  69.5802078  30.0123634  61.7523193  70.8332901  30.8281612  61.9873619
  17.9562244  54.2021561  27.7962723  17.2793541  54.8783379  27.8255386
  17.5245457  53.4483948  27.3941231  43.9746475  50.9296379  87.1163635
  44.0781441  51.4356117  87.9222870  43.0474472  50.6924515  87.0998764
  30.8059139  68.2683029  73.1234512  30.8942585  68.4242020  74.0637283
  30.1276207  67.5964203  73.0547562  76.0370102  33.3380966  28.7489090
  76.0658569  34.1552582  29.2465534  76.4436722  33.5542145  27.9097710
  23.6966763   5.8973174  61.2750015  23.5365829   6.8202305  61.4720650
  24.2114067   5.5797782  62.0169258  59.7788620  33.9470749  39.4907074
  59.3662033  34.4231796  38.7701035  59.0701065  33.4294128  39.8727036
  50.3662682  17.0771275  67.7981110  50.6998863  16.2471046  68.1386871
  50.7148209  17.1282349  66.9080887  66.1006470   0.7663430  74.1341629
  66.5658112   1.5977514  74.2270050  66.2513657   0.5077999  73.2249451
  15.2495642  21.9218006  80.3289871  15.0147934  21.0185165  80.1164093
  15.0473232  22.4152431  79.5341034  39.5552864  67.8981628   3.7832732
  40.2395287  67.2769241   3.5340705  39.0229225  67.9974594   2.9939933
  16.1990852  68.4301529  67.3711319  16.0597935  68.4153595  66.4242401
  15.3927412  68.0671234  67.7375336  46.9566917  68.3532944  46.7217941
  47.1106300  67.6005249  47.2926521  47.8326912  68.6496964  46.4748154
  85.4855423  45.9687042   0.5983833  86.2555313  45.9414139   1.1663635
  85.4931641  45.1263008   0.1439261  57.1289597  54.9109650  25.7544994
  57.1208229  55.5859871  25.0758915  57.3559761  54.1060219  25.2889233
  35.0156631  53.1421127  28.6906681  34.0968742  52.9663849  28.8936024
  35.4703712  53.0339584  29.5259972   2.0345070  60.5436516  59.1815796
   2.3655398  59.6458321  59.2054024   2.5142601  60.9943352  59.8765259
   0.6767250  64.6675491  79.7323685   0.0886840  63.9172478  79.6458740
   0.1852368  65.4009476  79.3624954   3.9531560  52.3618889  25.0187016
   4.3352127  52.7675514  25.7969704   3.0685153  52.7241478  24.9695778
   4.4435558  67.5506287  67.4734421   3.8257871  68.0151062  66.9087677
   4.7928991  66.8508377  66.9216385  82.5337219  10.2614079  53.3525047
  81.6548920   9.9698524  53.5951729  82.4129028  11.1623697  53.0526695
  24.6346989  44.6002274  13.4884577  24.7415695  44.7797356  14.4225817
  24.1393108  43.7817955  13.4569817  25.7486305  52.2613678  25.2337074
  25.8430347  52.1849060  24.2842484  25.8599262  51.3677521  25.5582027
  58.2867966  32.8146362   0.4718767  58.4027252  33.2950745  -0.3478633
  58.2606812  31.8946991   0.2086980  59.7314262   7.6557174  83.0071335
  60.2156143   8.4812231  83.0253983  60.0339279   7.2181702  82.2113495
  52.8720055  68.5433884  26.9042549  52.6910782  67.6287155  27.1207638
  52.0087051  68.9545898  26.8611069  28.8802795  40.4401741   9.7262621
  27.9493160  40.6623955   9.7137871  29.1032124  40.3946419  10.6560259
  82.0636215  38.8295517  40.2164955  82.1019897  39.3427925  41.0235519
  81.1300659  38.6689911  40.0789108  55.6675301   1.7724991  40.8613815
  56.4852104   1.7531487  40.3641319  55.1299438   2.4253476  40.4130249
   8.3504400  34.3310509  -0.1281073   8.0317831  34.5117798   0.7562154
   9.2695122  34.5979500  -0.1107258   2.3508515  32.9201469  17.0971394
   1.7468750  33.2681160  17.7531586   2.7032583  33.6957626  16.6607151
  43.7336922   0.5211372  54.8729553  43.1238976   0.1452763  54.2380447
  43.5798187   1.4645840  54.8233185  84.5449524  42.9298897  40.1837921
  85.1239090  43.5868912  40.5702972  84.6945267  42.1418457  40.7061424
  16.2089367  52.9621468  50.0488472  15.3865690  52.4929657  49.9080925
  16.8738441  52.4079514  49.6401901  69.6167526  51.9805794  71.9656219
  70.2734833  51.2933502  72.0780869  68.8267288  51.6259689  72.3734818
  56.0474472  46.1498604  74.5650558  55.8475075  47.0785179  74.4473724
  55.4606667  45.6996460  73.9574203  43.1685181  67.7367020  64.5127869
  43.2961082  67.6607132  65.4583969  43.9697189  67.3758087  64.1332321
  24.3890896  31.7530594  21.4037895  23.8461323  31.6294403  22.1823444
  24.7031555  32.6547279  21.4715118  25.3751297  70.2394104   4.9393249
  26.1306305  70.5031052   5.4646010  25.2541962  70.9564438   4.3168507
  58.4179993  56.7506561  33.1278076  59.1604996  56.7380562  32.5238495
  58.6757278  56.1611748  33.8365555  53.8259621  16.6898766   3.4579461
  53.5461235  15.8732319   3.8714852  54.2168427  16.4164352   2.6280816
  20.7344456  19.3342686  69.9331512  20.3365250  19.8957081  70.5984955
  21.2134991  18.6732178  70.4329071  59.0214157   1.9072328  51.1980209
  58.1157341   1.9567891  50.8922195  59.1949730   0.9696312  51.2817650
  78.7631989  13.2069807  84.9706573  78.2255325  13.7520399  84.3961563
  79.3589859  12.7490826  84.3777008  42.4606056   3.0617039  55.1335754
  43.0317841   3.8277423  55.1899033  41.8348389   3.2797999  54.4428673
  36.6574402  48.5427055  68.9305496  36.7274055  48.0961380  69.7742996
  36.4382553  47.8481674  68.3094177  43.0651360  42.0072365  80.6116257
  42.1971016  42.0256119  80.2086258  43.0514526  42.7267380  81.2427826
  55.0856171  70.9474487  22.3156719  54.1513329  70.8342972  22.1409130
  55.2637405  70.3638306  23.0531597  65.0904312   0.6814844   5.8484621
  65.9606171   0.3266155   6.0303040  65.1850052   1.6252933   5.9769592
  79.8103561  48.4652977   7.9339390  80.4803238  48.3950462   7.2539134
  79.2488403  47.7023468   7.7966809  81.8963852  45.0267487  25.9416504
  81.2965317  44.8878975  26.6745338  82.7443924  44.7228661  26.2653408
  66.4246902   8.4105015  68.0373154  65.8129425   9.0957832  67.7682724
  67.2905426   8.7916584  67.8915329  57.0023003  26.9296856  16.9363804
  56.7833710  27.5126247  16.2094116  57.9242516  27.1107426  17.1192837
  81.5367432   9.4575596  46.6236343  82.3741226   9.3129349  46.1830559
  81.7648468   9.9367237  47.4202538  75.3226395  27.3732681  46.5528831
  75.1934433  28.3077850  46.3909607  75.6791992  27.3309803  47.4401855
  35.0449562  68.9994659  11.8361559  34.4482536  68.8704681  12.5734034
  34.5155716  69.4448929  11.1746569  82.8697052   2.2504036  18.7937489
  83.3314896   2.9793322  18.3794479  82.0587692   2.6372499  19.1238537
  70.7380676  40.6436958  25.6099930  69.7879028  40.5999184  25.7172203
  70.9187241  40.0932350  24.8480282  79.6885681   7.9020071  13.5128727
  80.0769272   8.5168343  12.8904591  78.9347305   7.5365396  13.0498438
  30.5370731  62.6585770  45.7580948  29.9873638  62.0499763  46.2517128
  30.7652721  62.1818695  44.9600296  21.9425468  57.7227364  56.5443573
  22.0773354  57.7551270  57.4914665  21.3299580  56.9988327  56.4142342
  51.2912827  62.8440094  35.5620804  50.8682404  61.9919281  35.4561272
  52.1794090  62.6360435  35.8522758  84.4279022  62.2595100  11.9139957
  84.6621399  62.2612419  10.9858999  84.9078522  61.5169716  12.2807627
  41.1124725   7.2140360  51.8828011  40.9912453   7.0483689  52.8177299
  40.2854843   7.6039491  51.5994453  11.5427866  56.4775505  51.7883568
  10.7194824  56.2869949  51.3388100  11.9991188  57.0843163  51.2054100
  65.5978622  65.6513748  78.3608170  65.8155746  65.8698349  77.4546661
  64.9621811  64.9393082  78.2894211  71.6331787  55.5682945  74.0653839
  70.7365036  55.3500214  73.8112946  72.1109543  55.6196251  73.2375336
  16.5708179  48.1954536  47.0757294  16.1976566  47.5551414  47.6815186
  15.8426991  48.4357071  46.5027084  54.2359962   7.4187379  67.6787415
  54.2130737   8.1083918  68.3421326  53.3214493   7.3044920  67.4203186
   2.5826411  53.4499207  16.1986504   2.6979818  53.4406662  15.2484694
   2.2602084  52.5736313  16.4093266  67.8751526  42.2180557  11.1497250
  67.6935043  41.7650108  10.3263273  67.1436691  41.9811821  11.7198639
  81.1935425  16.5830555  24.9395638  81.0939865  16.5706558  23.9876347
  80.3863144  16.9858055  25.2595768  17.7248497  45.3801880  27.1872540
  17.7101498  44.7965584  26.4287071  18.1717892  44.8770561  27.8679428
  23.1953945  10.9295702  30.1274929  22.9527721  10.8134031  31.0461178
  22.4127998  10.6743965  29.6389599  52.8297462  32.3550034  23.7843571
  53.0235939  32.4767532  24.7137833  52.0799484  31.7601242  23.7719955
  35.3284836  17.5816669  86.8766327  35.9253197  18.2156754  86.4790802
  35.8019714  17.2537251  87.6411514  77.3479996  32.6122818  19.7988243
  77.4576874  31.8968658  19.1724224  78.1790771  32.6453629  20.2725773
  35.2841148  63.0172234  72.6778336  34.6585121  62.4097290  72.2831192
  35.8487244  62.4630585  73.2166824  62.5081749  17.8204250  63.1734428
  62.9447517  18.0351944  63.9977608  62.9574661  17.0346584  62.8620911
  25.3898735  45.4576149   3.1532094  25.1766205  45.3955574   2.2221329
  26.1039448  46.0937843   3.1934886   1.9453427   4.1172099  69.5723801
   2.3578973   4.2438579  68.7179871   2.6073761   4.4015574  70.2025299
  50.4348145  18.0458031  55.7115326  50.9621620  18.0733776  56.5098915
  50.7282600  18.8027267  55.2043953  37.9596329  10.9473705  13.8537245
  37.9742966  11.9044323  13.8607922  38.4936371  10.7052307  13.0971270
  46.2960510   8.9216375  87.3597946  46.6098213   9.3664446  86.5724411
  45.3476868   9.0506582  87.3459244  54.0253983  64.4714050  86.6786880
  54.4994202  63.7094040  86.3456879  54.6236763  65.2054443  86.5391006
  27.7016163  57.5347557   9.2680683  28.6514359  57.5384560   9.1494923
  27.5717201  57.8273544  10.1701469  34.1963577  54.1655579  85.4853287
  34.9905434  54.6877594  85.5985031  33.7494812  54.5675926  84.7404175
  21.2263775  71.3134689  24.0279179  21.6940117  72.1082230  23.7711792
  20.3777084  71.3831253  23.5907230  73.3590088  51.0614967  84.3129044
  72.6829758  50.4656754  83.9900970  73.3107376  50.9847794  85.2658005
  48.0080070  56.8190880  74.6241150  48.9466896  56.8431816  74.8099213
  47.6332169  57.4881821  75.1968994  78.3492432  38.2210121  51.2323608
  77.5947189  37.6989098  50.9597206  78.0136337  39.1156693  51.2887878
  36.1523170  48.8157921  87.9469147  36.4352608  47.9364395  87.6960754
  35.5398560  49.0757370  87.2587585  76.4895859  46.3878708  36.2440910
  76.2593842  45.7244072  35.5936623  75.9578323  47.1482964  36.0091019
  82.4151154  31.4283333  47.9524231  82.9911652  30.6639881  47.9656181
  81.9950256  31.3968334  47.0929070  56.8079453  16.3283825  65.2004013
  56.7298584  15.3761158  65.2580185  56.0331726  16.6601257  65.6541595
  85.1233215  31.4886551   9.9787025  84.2177887  31.7965050   9.9402494
  85.6447296  32.2874908  10.0576153  42.9209900  55.1072273  33.9640465
  42.4722595  54.4576340  34.5052452  42.4646835  55.9283791  34.1477051
  53.3359108  47.0353928  55.3660774  53.7918472  46.2036171  55.4945335
  53.9163246  47.5413551  54.7974396  21.3346481  39.2068825  19.2431488
  21.8508682  39.5146523  18.4981480  21.9710655  38.7764282  19.8140373
  81.8562088  42.8640175   6.8074322  81.8263626  42.0438423   7.3000340
  80.9485245  43.0198860   6.5465593   4.6839914   0.7485157  53.9409523
   3.9352133   0.3769955  53.4745445   5.3569932   0.8534887  53.2684326
  72.7994995  67.7336655  54.8292770  72.4560928  68.0407639  55.6683273
  73.7493210  67.8160248  54.9146347   8.9440317  70.7472382  38.2168198
   8.7453222  69.8816833  37.8596649   8.2955332  71.3262558  37.8162956
  31.1393127  11.6304255  72.1883926  31.4031296  10.9033775  72.7523346
  30.1972446  11.7169847  72.3341599  66.5265961  24.1145439  77.3448868
  66.2888031  23.5249023  76.6293335  65.6981354  24.3018284  77.7862625
  24.8722134   2.8046744  14.5008011  25.2589455   2.1069901  15.0298624
  24.9222755   3.5824318  15.0565157  55.2906799  40.4414330  23.7484550
  55.2848167  40.6086769  24.6909122  55.6635475  39.5639687  23.6632290
  13.2926989   8.7059450  76.9303360  13.6019325   7.8251586  77.1420441
  13.9794216   9.0736227  76.3740463  53.6127472  39.5950241  13.3214722
  52.8616104  39.4098549  12.7577887  54.2751694  38.9575615  13.0548859
  72.2168655  68.4796982   7.5255609  71.8607559  67.6847153   7.1288075
  72.5427017  68.1958618   8.3796711  68.6148300  12.9729099  55.6992645
  68.1025696  12.7136812  56.4651794  69.4428864  12.5022840  55.7944679
  58.9743271  58.9695511  68.6178207  59.7016411  59.5625954  68.8063660
  58.6485138  58.7086906  69.4792328  13.5431242  27.4664288  21.6330662
  13.1397181  26.8179207  21.0560627  14.4794540  27.2712994  21.5950794
  31.6365929   3.4266944  43.3832703  31.3344784   3.9891825  42.6701317
  32.5778427   3.3362088  43.2346306  81.4713821  20.8540363  24.4048805
  80.7058640  21.3448887  24.7036781  82.0348358  21.5128098  23.9989700
  65.4410782  20.4090710  26.2512932  64.5796356  20.0144138  26.3868828
  66.0059967  19.6745033  26.0114822  14.4852791  44.3399277   3.9686012
  15.0385227  43.9042130   4.6169109  15.0939312  44.6245728   3.2868741
  27.4459457  58.4164085  30.3644390  26.9055653  58.5912971  29.5939617
  26.8656960  57.9445648  30.9618549  39.8782692  28.2991829  86.0775223
  39.6545982  28.1778526  87.0002823  39.1357422  28.7803726  85.7123566
  62.6293297  15.2620144  82.2218018  61.8376312  14.9076929  81.8169556
  62.7327499  16.1281967  81.8277664  56.6703491  42.9903908  33.4805679
  56.7574234  42.0723534  33.7371941  56.8407555  42.9929810  32.5386620
  16.6042004   3.3943987  68.9328537  17.2356262   3.3610065  68.2142334
  16.9542542   4.0567288  69.5286865  67.8532791  70.3378983  89.2407837
  67.5361710  71.2398300  89.2875748  68.5714493  70.3689957  88.6087189
  63.6140251  48.4860611  38.8825302  64.5341873  48.5860367  38.6385117
  63.3589211  49.3474312  39.2129860  67.9853439  40.3131180  32.8035240
  68.5480652  39.8018646  33.3850708  68.4257812  40.2803497  31.9543056
  23.7444191   8.0487719  13.4328556  23.8293552   8.9998827  13.4992323
  24.5985222   7.7534704  13.1173620  42.1268883  48.7837486  13.6643066
  41.8707237  48.3717194  12.8391752  42.7902908  49.4271278  13.4149265
  64.5267487   5.3691220   4.4154539  63.8831062   5.4074030   5.1229048
  64.4480591   4.4807429   4.0678606  66.8481216  26.2929173  26.6100845
  67.2077103  25.4159088  26.7434387  66.9622269  26.4588242  25.6743031
   5.1597180  58.6753769  16.3574467   4.6773133  58.0089226  15.8682070
   4.8000336  59.5067673  16.0481720  12.4780130  67.4743195  25.7351055
  13.2997322  67.9590759  25.6575356  11.7971392  68.1364670  25.6159611
   3.6283844  36.9745216  42.6932793   2.7477479  36.6976776  42.4401665
   4.0152893  36.1995163  43.1005898   1.7721756  30.4502163  49.2820892
   1.7730683  31.3416996  48.9335365   0.9591340  30.3899632  49.7836494
  36.8892136  61.3333130  41.6710625  37.4453468  60.6060829  41.9504929
  36.9135170  61.9487038  42.4038200   2.8914471  28.7929459  19.7481689
   2.2918632  28.2485905  19.2378654   2.3582070  29.5355206  20.0318394
  71.4053879   8.1273680  36.9365120  70.6225586   8.2751369  36.4058838
  71.2575912   7.2766891  37.3497124  82.1800385  71.4148407  41.3760300
  81.7559280  72.0352249  41.9688950  81.4698029  71.0868607  40.8244591
  80.7102127  70.5714569   5.6419764  79.8371506  70.3580322   5.3126812
  81.2027969  69.7546768   5.5615911   3.4536669   7.0610590  60.5471573
   3.2412188   7.5774832  61.3245926   2.7194443   6.4538975  60.4549408
  69.9057617  25.5061970  44.6079102  70.8608170  25.5504513  44.5616608
  69.7078629  24.5700188  44.5825958  81.6750870  14.4458895  57.7267609
  82.0957184  15.3056927  57.7330055  81.2994690  14.3566427  58.6026497
  48.3650475  48.1399879  54.0939293  48.6890335  47.3228760  53.7150002
  49.1160011  48.7327232  54.0628700  67.2740402  40.1644020   4.3228955
  67.3019485  40.9000130   4.9347200  66.7086258  40.4656906   3.6117229
  77.7092514  32.2439842  32.1737938  76.8772202  31.7721786  32.1368790
  78.0900726  32.1264267  31.3035164  85.2419968  27.0094795  75.9473953
  85.2112579  26.8308392  76.8872757  86.1516495  27.2560024  75.7800827
  79.8229446  49.7657127  67.4737778  80.0565109  49.0430183  68.0563507
  80.5902100  49.8786507  66.9127350  71.0491104  65.6239777  28.1414719
  70.3079071  65.2859268  27.6389046  71.6083984  64.8607712  28.2861614
   9.3867750  60.3660583  52.1183891  10.2221107  60.4651184  51.6616249
   9.4835100  59.5577774  52.6219292  73.2846832  33.8033409  23.6028786
  74.0696182  34.1518478  24.0255451  73.6144714  33.3261757  22.8414459
  58.1968842  51.5226936   7.8424401  57.6668053  50.7786942   7.5565801
  57.6032410  52.2720642   7.7948909  31.4879208  61.7075844  87.0125809
  32.3624725  61.4829903  87.3303070  31.5057735  62.6596146  86.9148483
  18.5871220  70.9388885  13.6339254  18.1600418  71.2172089  12.8237572
  17.9713345  70.3220749  14.0296221  44.5104256  44.0900574  36.5140305
  43.5555878  44.1101952  36.5781517  44.7186203  44.7336502  35.8367729
  57.7118492  11.3289328  47.6665154  57.1147842  12.0219822  47.3846893
  58.5645523  11.7590027  47.7310905  17.0836029  43.3211098  76.2515106
  16.7869987  44.1148720  75.8063202  17.7779579  42.9767113  75.6898193
  53.1518211  33.2139168  19.0005474  52.7911568  32.3750801  19.2877827
  53.2843971  33.1076622  18.0585461  71.4389801  36.7806053  10.1873245
  71.2465744  37.5367508  10.7418118  70.6484070  36.2428741  10.2328253
  48.0634613  19.9596176   1.0028108  48.3814621  20.4756374   0.2619783
  48.4385872  20.3884373   1.7719843  62.4126740  16.3061142  20.8341980
  63.0734711  15.6342268  20.6664295  61.6840439  15.8309851  21.2336788
  70.1679916  16.6796246  72.0538864  70.8312225  16.1382961  71.6257248
  69.6026306  16.0531330  72.5056686  45.4728737  64.7259369  21.3457050
  45.8088379  63.8296585  21.3391285  44.7503510  64.7062912  21.9732456
  67.0860443  15.8896093  63.9467278  66.6222610  16.7202663  64.0522842
  66.4868164  15.2337484  64.3030930  84.1674118  42.9147911   9.7629967
  83.5031891  42.2590103   9.9750986  84.7397003  42.4802132   9.1306515
  82.2844543   0.8082082  36.2947159  81.3732224   1.0977767  36.3398590
  82.4714279   0.7509306  35.3577042  64.2852173  16.2049942  70.3957214
  63.6255379  15.5297995  70.5543823  63.7948418  16.9346886  70.0171585
  34.4898224  41.0703506  67.0369873  34.1613197  40.5953445  66.2736511
  35.0913734  40.4574966  67.4598160  36.0845909  42.8107719  72.0612259
  36.8876076  43.2166138  72.3878632  35.8031197  42.2323341  72.7700348
  60.1831932  55.9470596  60.9260635  60.6433372  56.6317520  61.4115486
  59.4760742  56.4077034  60.4743805  31.2397900  47.4635849  76.5040665
  31.3954258  48.2445107  75.9728775  30.3362427  47.2163010  76.3073883
   7.6512399  59.2049484  18.2308769   7.1402192  59.0836067  17.4306488
   8.5022516  58.8138695  18.0332222  72.5013962  43.8702812  30.7787781
  72.3209610  43.0981636  30.2425766  73.1846237  43.5859337  31.3858891
  41.6989250  11.3371315  22.9350967  42.5524025  11.7437830  23.0848866
  41.2043839  11.9925385  22.4430561  81.3741760  15.1286592  38.5534325
  80.9625397  15.3547087  37.7193527  80.8486099  14.4034185  38.8911247
  17.9857731  31.7487221  16.5616512  17.9749718  32.4745102  17.1856289
  17.2389851  31.2053852  16.8132915  47.8104973  53.0206642  46.9823303
  48.0781021  53.0602989  46.0641556  47.5926056  52.1001701  47.1287804
  35.8751297  49.2762985   3.8250663  35.7312660  49.4769440   2.9002545
  35.3766441  49.9444771   4.2954755   1.1398648   1.5624211  50.7900620
   1.3062503   1.9320332  49.9229202   0.5124677   2.1642399  51.1905861
  66.1096954  48.9923210  68.0234680  67.0362091  49.1861992  67.8813095
  65.9492722  48.2002945  67.5104523  37.4183540   9.0712709   7.0644937
  37.6472168   8.6311092   7.8830967  36.6607475   9.6122789   7.2871394
  55.7375259  13.4077072  67.6057816  55.7022896  14.2957497  67.9612732
  55.5980415  12.8404608  68.3640747  86.4793243  12.5960827  72.0108032
  86.9672470  13.3604136  72.3173447  86.8773193  12.3803158  71.1674271
  84.4303360  27.2512321  72.0809402  84.8256607  27.6118641  72.8746033
  83.4920883  27.4072838  72.1885071  38.9575577  63.3930740  46.1921844
  39.3627815  63.1968307  47.0368843  39.0954475  64.3327560  46.0729332
  72.5603714  49.9647751  57.0215988  73.3084869  49.3744698  57.1115723
  72.6191635  50.5435219  57.7817497  76.0048981  52.6886749  51.6380424
  75.2896042  53.2426605  51.3255005  76.7481308  53.2851410  51.7278442
   0.4522623  45.3999748  37.5103683   0.6296509  44.7486267  38.1889763
   1.1473114  45.2692375  36.8653526  48.9333229  47.3359184  87.5671005
  49.1854095  46.5811691  87.0350876  48.2655296  47.7831078  87.0471878
  60.0689774  66.3595581  18.0412121  60.7917671  65.7621231  17.8491745
  59.9215508  66.2625351  18.9820023  72.1039963  37.8699646  15.7781048
  71.1879807  37.6878395  15.5684023  72.4681931  38.2287598  14.9688730
  77.9253311  40.8505783  71.6606979  77.8923187  40.8655357  72.6172104
  77.1799316  40.3078041  71.4037704  77.4542313  31.4607830  63.0597229
  76.5339355  31.1993790  63.0905952  77.9269867  30.6508121  62.8682060
  30.3289604  48.3502579  60.4312668  30.1982937  49.2981453  60.4571571
  31.2783051  48.2379341  60.4798622  47.5676384  58.4169693  56.7886658
  46.8529549  58.4323273  57.4252357  48.2567940  57.9071350  57.2145386
  82.7490158  24.4817467  50.7892036  82.6400223  23.7268944  51.3676071
  81.9474792  24.5005226  50.2663078  60.0707512  18.9340763  26.1661739
  59.7115364  19.2822037  25.3500843  60.6877594  19.6037750  26.4611931
  77.4551392  31.3479080  50.5332184  76.5877228  31.6355000  50.8180122
  77.4659195  30.4073868  50.7108078  68.6784439   4.7078490  26.4800510
  68.5669785   4.0673151  27.1825638  67.7884140   4.9913282  26.2709618
  19.4519711  70.3787689  35.5479202  18.9014606  71.0378189  35.9707985
  19.6404171  70.7432251  34.6831131  80.2463303  35.6096191   3.1443598
  79.9920959  35.3571434   4.0319686  80.9933701  36.1954575   3.2666836
  58.0461884  57.2873421  59.0873299  57.5085297  57.9614296  59.5029678
  57.5063782  56.9604416  58.3676262  67.3602371  30.5342216  19.8862705
  67.8118362  30.0436783  19.1994953  68.0606155  30.8377266  20.4638462
  52.8688164  46.3961906  65.1036072  52.4108963  46.9649658  64.4847183
  52.7411728  45.5131454  64.7569580  23.3886814  67.7638779  47.3994064
  22.8886871  68.2346725  48.0661774  22.9896984  66.8942795  47.3703957
   2.3731365  14.2234783  22.2493076   2.1971879  15.1410637  22.4574184
   1.6933290  13.7374163  22.7160397  21.1515827  60.2607269  17.5528831
  21.9388695  60.2219543  17.0098267  20.9660091  59.3474236  17.7712212
  77.2305298  11.5983305  68.2506943  77.0405197  12.0050688  69.0960922
  77.2324753  12.3266211  67.6295547  50.4942932  67.2786713  23.3840714
  51.1894684  67.3656845  22.7318497  50.4126892  66.3350906  23.5227222
  44.8087273   7.9986849  37.9000130  45.2450829   7.9710221  38.7515182
  44.0307083   8.5365810  38.0469398   6.7410617  26.0826683  50.8567543
   6.7570477  25.6261749  50.0155716   6.9933615  26.9816952  50.6462097
  74.4834518  65.1017380  81.1359253  73.5416031  65.0234070  81.2876358
  74.5544662  65.4653091  80.2533112  59.6500969  46.0333862  40.4489479
  59.5039787  46.9775124  40.5081482  58.9106712  45.7083282  39.9353142
  79.4700623  21.4277821  70.0735016  79.1138306  20.8294983  70.7303009
  80.3935547  21.5188198  70.3082504  31.5263996  12.8919821  74.9866333
  30.6984253  12.9605293  74.5112457  32.1977615  12.9339285  74.3056412
  14.3545008  29.5354805  72.8688965  14.7597246  30.2776585  73.3174515
  15.0519018  29.1779518  72.3193207  33.6747017  58.1795120   0.8766609
  33.5103531  58.2665062  -0.0623031  33.0947685  58.8241539   1.2820560
  60.4027634  69.3190994   4.6748390  61.2467461  69.0805664   4.2914042
  60.6022530  69.5142288   5.5904593  26.5802307   2.6747212  60.2284470
  27.0313168   3.3222444  59.6867218  27.0554695   2.6846817  61.0592804
  38.8088799  68.4038162  66.7812881  39.5719299  67.9464874  66.4279709
  39.0975494  69.3111954  66.8791122  26.3348255  36.3590088   1.7949969
  25.4290943  36.6630173   1.7361785  26.7183571  36.8835258   2.4978607
  46.6529503  10.7298775  27.5491371  46.9591675  10.0408125  28.1387558
  46.0444984  10.2864246  26.9580631  82.6142883  64.2190552  46.0853539
  82.9823990  64.2870712  46.9663200  82.3713226  63.2973518  45.9978027
  82.5554733   1.8387750  62.6799431  82.5952301   2.0926421  61.7578773
  81.6443100   1.9903723  62.9310265  48.3137321  31.4674797  19.0662804
  48.8220367  32.0324821  19.6481991  48.7597847  31.5302906  18.2216949
  81.5357819  40.7317657   8.1637487  80.8567810  40.0602417   8.0986118
  82.3558960  40.2399063   8.2051840  21.8911724  54.0465775  18.8708153
  21.8791275  53.1142120  18.6545238  22.7033176  54.1678696  19.3626900
  30.2327881  65.8676682  81.1954041  29.5714836  66.2887344  80.6462097
  29.8319321  65.8260498  82.0636292  65.2950974  56.2648697  69.5367966
  65.4507217  55.3960228  69.9070969  64.4822311  56.1714363  69.0400543
  35.3826027  23.0190563  80.2810516  36.0244522  22.5624905  79.7371674
  35.6783524  23.9293995  80.2873993  45.6727142  57.4485207  59.9002876
  45.9689445  56.6683998  59.4313622  46.1366348  57.4156723  60.7369080
  78.6379929  53.9504967  78.5074615  78.9129944  54.4499321  77.7385864
  78.8107071  54.5339241  79.2463837  83.7349472  63.7224083  27.0761585
  83.3141785  64.4871674  27.4690018  83.1315842  63.0003929  27.2518673
  20.9391384  47.8008499  61.4575157  20.1783314  48.2732086  61.7955666
  21.6760731  48.1377716  61.9670677  54.9580956   9.4871979  21.4929543
  55.3660088   9.0013866  22.2097702  54.0633392   9.1494474  21.4533882
  75.2784348  22.3831615  42.4876595  75.4813004  22.7150936  43.3622475
  75.5408554  21.4630108  42.5138779  42.8410339  57.3972664  86.1969681
  42.9604034  56.6326218  85.6336823  42.0814323  57.8491859  85.8295364
  73.4004822  57.7123413  81.7390060  73.7232819  56.9650574  81.2354202
  73.9440231  58.4465637  81.4531479  19.4782200  12.5366259  54.7785759
  19.8475914  13.1550236  55.4089584  19.2179585  13.0797491  54.0345917
  20.7821102   5.6852684  36.6023064  20.1362839   5.2510152  37.1595879
  21.4336948   5.0085425  36.4186974  68.4334183  60.1641541  83.4623871
  68.3301239  59.2388077  83.6844101  68.2799988  60.6267090  84.2862473
  80.0193481  34.9154968  36.4654732  79.1400528  35.2375679  36.6638184
  80.4229355  34.7777519  37.3224297  12.9447327  42.0113907  79.1490097
  12.0593290  41.9075584  78.8004227  12.9569349  42.8970528  79.5118942
  37.9771004  51.9845695   3.9680004  37.1109123  52.2347755   4.2894721
  38.4794617  52.7993240   3.9742842   3.8047867  55.6102371  27.9596100
   3.1125917  55.9420815  27.3877907   4.2753167  54.9736214  27.4215088
  16.6316032   5.7649946  45.8978691  17.2535324   6.4760594  45.7435188
  16.1567822   6.0289464  46.6859703  75.7648315  71.3400879   1.5789214
  75.6301651  70.4001999   1.7002280  76.6345139  71.5063400   1.9425738
  69.2844391  69.9810715  45.1184006  69.4369049  69.0433350  45.2351532
  69.3811264  70.3505554  45.9961052   9.3172960  55.4220161  84.0178833
   8.5575323  54.8471527  83.9255676   9.0335054  56.2560158  83.6435318
  76.1726151   1.4711511  21.2158470  75.9587326   0.8681049  21.9277592
  75.5856781   1.2182606  20.5032578  12.0033045  54.1999550   7.8753066
  12.0035038  53.9463158   8.7982903  12.7080984  54.8436661   7.8036580
  54.6790047   2.5527630  61.0481300  54.5586243   1.6118436  60.9200211
  55.4825592   2.6234558  61.5634308  54.5624466  33.6395607  64.9663544
  54.2726364  34.4832230  65.3134537  54.2093048  32.9944496  65.5790176
  81.3726196  39.7922859  71.4683075  81.8294525  38.9637451  71.3231964
  80.9919205  40.0081749  70.6170197  51.0457039  10.8973818  69.4727249
  50.4383888  11.0433989  68.7474060  50.5748138  11.2086964  70.2457581
  72.5162201  61.7312202  66.6321564  73.2408371  61.7522545  66.0070877
  72.1877289  62.6301422  66.6483841  57.9456139  29.5457954  21.1721573
  57.7378387  28.7506695  20.6814060  57.3179359  30.1945972  20.8538628
  25.7022228  51.3858185  19.6445084  26.4179249  51.7864151  19.1510239
  25.5803490  50.5285759  19.2364445  27.0836964  48.0996017   6.7390208
  26.4124889  48.7796326   6.6818328  26.8623428  47.6106377   7.5315776
  83.7372437  49.0198822  43.2283211  83.4659500  49.3976250  44.0649490
  84.5614929  48.5738373  43.4229622  30.3407001   7.6381698  52.3304787
  30.0463562   8.5309076  52.1498833  31.0673637   7.4981384  51.7233696
  69.3867035  39.9842072  28.9898376  68.9222641  39.5632553  29.7132511
  68.7587662  39.9801292  28.2674046  53.6992722  14.3668623  51.2167816
  52.7880096  14.4341660  50.9316406  54.1844101  14.1528416  50.4198723
  71.4000092  25.5141068  34.3264809  71.7074432  25.3516903  33.4346619
  71.2652969  26.4610100  34.3646660  72.3102951  42.2879257  43.2983208
  71.8292313  42.0155334  44.0797386  71.7443161  42.9388924  42.8834190
   6.9779797  37.3035774  80.2468262   6.1481433  36.8396263  80.3579712
   7.6272454  36.6093712  80.1338654  27.8097992  59.9679985  59.3801270
  28.2021255  60.8330078  59.2615089  27.8124771  59.8316650  60.3275642
  49.6325798  22.4466877  69.6807175  49.3689423  21.8590050  68.9726562
  49.2107811  23.2797375  69.4701385  61.6583138  61.2345810  60.8943939
  62.4303932  61.7974510  60.8369675  61.8741646  60.4758720  60.3521767
  80.5865784  15.3359585  18.6465950  79.8004837  15.0184774  18.2021885
  80.3139191  15.4607620  19.5556126  84.1627350  47.0371208  30.4024296
  83.2207947  47.1217155  30.2547112  84.3035507  46.0974655  30.5184116
  27.9283733   2.8802123  45.3824539  28.0295696   3.7758956  45.0603638
  27.4068680   2.4414692  44.7103157  70.7472839   5.8248868   1.9237320
  71.4154892   6.4527411   1.6489136  70.4226608   5.4473844   1.1062082
  34.2051697  65.1703949  77.8178635  33.2858582  65.4348907  77.8515930
  34.3700523  64.9948502  76.8914566  81.9371109  36.1957855  82.9493484
  82.0748291  35.6925812  82.1468201  81.8089142  37.0955124  82.6488724
  45.9545250  47.2996178  18.3137970  46.7452469  47.5298424  18.8016319
  46.2788734  46.9286118  17.4931965  81.1804657  30.8967705  67.6854782
  80.9418945  31.4902802  68.3975677  81.4575500  31.4747791  66.9745941
  29.0881710  59.6862030  17.9782829  28.3498344  60.1938133  17.6415005
  28.7871666  59.3591919  18.8260422   6.8202701  56.0067711  53.9402924
   5.9174151  56.2506943  54.1442184   6.7424798  55.1871300  53.4520569
   4.9923491  17.2655869  20.8833656   5.3271937  17.4133015  21.7678375
   4.5070872  18.0638046  20.6745586  25.7288742  24.1248722  86.1598129
  25.2473392  23.6245537  85.5009995  26.6499119  23.9450569  85.9711609
  25.9355507  71.8638916  76.6657028  25.6361103  71.2034760  77.2905502
  26.0404568  71.3853989  75.8433456  38.7199783  33.4275436  71.6418228
  38.2476997  34.1132812  72.1139984  38.1709251  33.2391510  70.8807144
  80.2912598   0.8618433  88.6720200  80.7090988   1.7226908  88.6961594
  80.0816574   0.7231519  87.7484055  45.0738869   4.8225031  84.9925995
  44.2707214   5.1558332  84.5925369  45.7019691   5.5390916  84.9017792
  51.7433624  46.0556221   5.0884786  51.4459724  45.1665306   5.2816176
  51.3856239  46.2446976   4.2210069  24.9827633  69.5475159  57.7261276
  24.5259705  69.9446793  56.9846230  24.3669796  69.6229630  58.4550667
  51.0899887  40.7403564   3.4720123  51.5279884  40.8310356   2.6257474
  50.2905884  40.2514000   3.2767830  61.3158836  19.8461723  78.4926758
  61.1287308  20.0336323  77.5728531  62.1518478  20.2811871  78.6604843
  71.8981476  59.2101097  60.6945114  71.1490402  59.0676651  61.2731133
  72.0434113  58.3609543  60.2772980  62.0318871  49.5323715   7.7264371
  61.2875710  49.0586853   8.0977106  62.7554817  49.3489914   8.3256168
  10.8421831  50.7634583  45.9100304  11.5522318  50.9266090  45.2891884
  10.3024883  51.5529633  45.8695374  35.6051979  62.1347122  32.3134232
  36.0455284  62.4553070  31.5263042  34.8002815  61.7303085  31.9896889
   7.0952611  41.8816071  57.1700401   6.3560710  41.6987762  57.7500420
   7.8480978  41.4863510  57.6096306  29.0893936  18.5659351   7.6571317
  28.5215473  19.2980537   7.4167490  29.3551598  18.1842346   6.8205290
  58.8798065  62.8372192  35.0196724  58.8544884  63.7607536  34.7693138
  58.1584167  62.4374924  34.5338249  60.8716583  21.8089867  44.7827454
  60.1244469  21.2689171  45.0401001  61.4293861  21.8323784  45.5603256
  14.1614361  11.9760942  30.6511288  14.9972334  12.0955286  31.1021385
  14.1488037  12.6627569  29.9843712  33.3248024   5.2405152  10.0817795
  32.8875198   5.7502394   9.3997259  33.9167938   4.6594591   9.6041269
  44.9933014  58.1795464   7.2243719  44.9541702  57.6833229   8.0419664
  44.5847626  59.0193825   7.4341335   5.1015129  13.6928368  28.2247353
   5.8977814  13.1796627  28.3619957   4.5252237  13.1123991  27.7275295
  76.0785599  19.5209599  42.3211174  76.5673447  18.7164822  42.4946976
  75.4364777  19.2723503  41.6561623  76.5620041  35.5453987  12.6667442
  75.8215332  35.3157158  13.2281494  77.3309631  35.4279785  13.2245569
  66.7783661  22.2745914  67.0974045  66.9182510  21.6489506  66.3866043
  66.3015213  22.9975529  66.6897507  29.4732380  51.9440651  83.6107101
  28.9915524  51.8745728  82.7864685  30.2600174  52.4412842  83.3871460
  78.0479279   3.6424043  88.1888123  78.1047668   3.1641102  89.0159988
  78.7624588   4.2779932  88.2300644  84.7861176  69.6128769   1.4944822
  84.2895279  70.4214783   1.3687770  85.5335312  69.8721390   2.0333617
   9.4143124  30.9080544   4.2223148   9.6451521  31.6078777   4.8332109
   8.5120802  30.6813164   4.4477005  73.1613388  48.9453125  82.0256500
  73.0352783  49.8204117  82.3924484  72.2885971  48.5523796  82.0381165
  61.4980240  28.5882893  38.1511269  61.4521370  28.6995182  37.2015190
  62.1916733  27.9420681  38.2833443  83.1295242  15.4094372  35.4069519
  82.3205566  15.2598925  35.8962784  82.9117508  16.1104736  34.7926598
  18.9685574  17.9833622  84.4756317  19.2712097  18.5580711  83.7725372
  18.0613518  18.2481403  84.6276245   6.5758605  29.1151543  30.3923721
   7.5168138  29.2632027  30.4868240   6.5007892  28.5192089  29.6470909
  25.2646255  53.4777908  41.9976921  26.1170769  53.5993538  42.4157639
  25.1323967  52.5297737  41.9945908  47.1903877  36.7622833  71.3038330
  47.0056114  37.6782761  71.0963516  47.7919617  36.4775238  70.6159058
  70.8940811  51.5426598  69.0617142  71.4109573  51.1037521  69.7373047
  71.0093155  52.4759254  69.2405090   2.3192525   7.8031120  20.8135147
   2.1978164   8.3972464  20.0729141   1.9919063   6.9599161  20.5003109
  51.7471390   5.5578675  58.9079018  51.1302338   6.1349893  59.3580017
  51.4064865   5.4922490  58.0157814  21.4881268  38.0933762  12.6080132
  22.2816334  37.8804321  13.0991678  21.1979179  37.2557411  12.2469311
  82.4359360  62.5714455  15.3492556  82.8701324  62.8186951  16.1656952
  82.6549149  61.6470451  15.2319374  30.6780510  56.0379143  79.7167130
  31.3582802  55.4944839  80.1144638  30.9688396  56.1625633  78.8133163
  81.7021713  64.2199249   4.5745006  81.7108459  64.7315598   3.7655556
  81.2417450  64.7749100   5.2039728  52.6174850  28.4551563  71.1473999
  52.3964424  29.1829052  71.7285690  51.8196793  28.3021069  70.6411285
  10.8190889  21.0321007  45.6128693  10.7944965  20.3220921  46.2543640
  11.7284498  21.3308125  45.6209641   4.2894430  48.7862854  38.3078613
   4.9049435  49.4728317  38.5648499   4.7400351  48.3092384  37.6109924
   8.3356428  70.7289276  40.9552879   8.7517433  70.5617599  40.1096230
   8.9227724  70.3259811  41.5949326  61.1461525  38.8111687  59.4233589
  61.5390968  39.5117760  59.9439163  60.5192871  38.3955956  60.0154495
  65.9676056  42.4486160  33.7932205  66.7477722  42.0303268  33.4290733
  65.7766113  43.1662521  33.1892738   5.0219827  59.9594879  77.1992416
   5.7921944  60.2427025  77.6919861   4.5433612  59.3951759  77.8064575
  48.7428627  49.0567856  34.7539787  49.6632919  48.7982597  34.8009453
  48.7133598  49.7118683  34.0566788  80.5856857  63.6492882  43.5228691
  80.4748611  64.3970261  42.9356346  80.0862885  63.8831253  44.3052711
  13.3264866   8.5024490  52.1390038  13.1398335   8.0612583  51.3103027
  14.2493658   8.7487059  52.0766830  10.7312794  15.0356407  28.9125938
  11.1627712  15.1597309  29.7579613  10.7457123  14.0887814  28.7730179
  33.8801155  65.6016846  89.3737183  34.6013756  65.6517487  88.7464142
  33.0960693  65.7703629  88.8511810   1.0178760   7.6943474  28.4300861
   0.4248562   7.0606766  28.0263271   0.5193206   8.5112629  28.4480610
  50.5968590  36.7665901  76.8864288  49.6483154  36.8140678  77.0057678
  50.9194260  37.6144524  77.1918945  38.6095161  12.1807928   4.9189453
  38.7231903  11.3100872   4.5379171  38.7265968  12.7814674   4.1829333
  85.8899078  65.1818695  71.2809753  86.7811737  65.1893845  70.9319458
  85.5526047  66.0582352  71.0953903  76.4065399  64.1438828   2.8590250
  77.0205612  64.4701080   2.2011642  76.5536652  63.1982117   2.8758955
   8.4591980  23.0519409  82.9487228   8.8468952  23.2278385  83.8060379
   9.0851698  23.4170017  82.3233261  40.2435837  62.1820221  79.0535583
  40.9220123  61.5321465  78.8701859  39.8117561  62.3218002  78.2108154
  65.7998123  27.6493034  82.5721512  66.1000748  27.6967125  81.6644974
  65.0710144  27.0291004  82.5512466  85.3458939   7.0406132  20.7787113
  85.1092834   7.6257801  20.0591087  84.5072556   6.7625999  21.1469822
  52.3050766   8.0486240  34.8877411  52.6582870   8.7384596  34.3259583
  52.3523865   7.2563343  34.3526993  56.7470284  44.2628517  82.5735016
  57.2875404  44.7000504  81.9155273  55.8491592  44.3832893  82.2643738
  79.2881470  67.5526199   1.4044079  79.3871841  68.4432449   1.0679331
  78.9675522  67.0483551   0.6566367  34.1797867  44.6207886   0.7535892
  34.9875984  45.0718613   0.5082133  33.7818184  45.1856079   1.4160339
  23.7372608  63.1102142  68.3583908  24.4183216  63.2145691  69.0228424
  24.1251602  63.4676247  67.5596237   7.9803424  27.7120628  59.1190948
   8.5692692  26.9575138  59.1118469   8.5020733  28.4266205  58.7538033
   7.5986128  16.2762642  50.6723709   7.0529447  15.4955091  50.5780296
   8.3585129  16.1060658  50.1157570  33.3823586  43.5849304  78.7397690
  33.6308746  42.8177299  78.2241364  32.6130409  43.3022423  79.2342072
  46.1991806  66.9898376   8.8413382  46.6874123  66.1705017   8.7603846
  46.3427162  67.4375610   8.0075693  62.7375679  40.3205452  76.8355026
  62.7866974  39.3705826  76.9422302  61.8024292  40.5189819  76.8841324
  60.7271843  41.0857506  33.8165512  60.5255623  40.3590393  33.2270851
  60.2180939  41.8203773  33.4739418  14.1010780  38.8436584  68.2783966
  15.0048771  38.9178963  68.5847702  13.9463520  39.6525345  67.7905350
  30.4798737  71.6232147  39.1533127  30.9520760  71.2768478  38.3961563
  31.0963745  71.5362701  39.8803596  56.0290146  23.6833420  51.7790794
  56.7318802  23.1560497  51.3993759  55.8766785  23.2947655  52.6404953
  14.5001030  44.3250313  23.0744667  15.1164732  44.0321045  23.7456722
  13.8660049  43.6114807  23.0037918  28.9653664  68.9375687  51.1974564
  28.9096375  67.9848862  51.1231537  29.8379021  69.0991898  51.5563354
  70.3445358  46.0243988  30.1157112  70.9400177  46.7102699  30.4177265
  70.6855621  45.7718620  29.2577133  63.8911057  21.5716190  77.5601959
  63.6868629  22.3024521  78.1436386  63.8326569  21.9439964  76.6803436
  51.6352615  49.8510132   9.7996616  51.2168350  48.9939346   9.7186451
  51.2152786  50.3871269   9.1270332  64.9591217  13.8687191  53.5907707
  65.8321609  14.1646910  53.8485222  64.3612671  14.3975086  54.1191444
  67.1310730   1.1248221  47.3706245  66.7845154   0.2364083  47.4533844
  66.6414642   1.6340386  48.0165443  65.4620590  14.8629742   8.0311308
  64.7492294  14.3681765   8.4352102  65.3979263  15.7356262   8.4191999
  59.0349579  50.3784637  43.2032661  59.0420685  49.4984703  43.5798225
  59.6576958  50.8722878  43.7367096  61.3847923  40.3007774  40.5141411
  62.1817627  40.6462708  40.1120148  60.9390411  39.8389435  39.8040390
  47.7335281   2.4465098   5.1258626  48.5306664   2.0634129   4.7597427
  47.0244560   1.9141233   4.7652931  51.3030281  66.2570343  63.4966507
  51.9487610  66.1695557  62.7955017  51.7893829  66.0571518  64.2964859
  57.1649933  48.1489525   0.9758418  57.7820625  47.8562126   0.3051985
  57.0775185  49.0903397   0.8262820  86.7281876  47.2084579  72.5832596
  87.4922714  46.6787758  72.8109512  86.0706482  46.5720520  72.3024368
  82.3939514  71.0633698  82.1542969  82.8923035  70.6292496  81.4618988
  82.7060852  70.6588211  82.9637070  32.6635437  27.9511509  23.0709591
  31.9007854  27.4473381  23.3548660  32.6021347  28.7732658  23.5573597
  49.0489807  63.6268501  12.8806181  48.5169983  64.3662567  12.5865097
  49.8575630  63.6966820  12.3731270  78.9332504  38.8688660  20.4303150
  78.9714661  38.7546349  21.3799057  78.2243805  39.4972572  20.2930031
  74.1274567  44.4496880  57.4613304  74.4556732  44.6662903  56.5886421
  73.2861786  44.9025040  57.5200233  44.2446861  70.8036652  44.6159325
  44.6091156  71.0283585  43.7598152  45.0017433  70.5313034  45.1345024
  50.5106506  56.8939400  75.9318848  50.4866333  57.7879257  76.2731247
  50.3456573  56.3414230  76.6959076  23.8409214  25.8391018  25.6394310
  23.5747986  25.1043873  25.0866146  23.1628132  26.5004673  25.5016022
  44.0897484  34.7885742   3.8679130  43.9792480  33.8398552   3.8050237
  44.2193642  34.9532166   4.8018961  75.5879974  41.1639900  61.0663795
  75.7607498  40.4177704  60.4923210  75.4978638  41.9082146  60.4711990
  39.7634659  14.3196001  11.7111626  40.6616478  14.5552950  11.9434309
  39.8570786  13.7181931  10.9723940  52.1595345  64.9047394  48.4550629
  52.3447838  64.2534943  49.1316681  53.0214462  65.1611710  48.1270638
   6.6332378  25.4836769   0.7221345   6.7491736  24.5730953   0.9934872
   6.0757885  25.8663750   1.3996478  57.7936058  67.9883804  14.6408491
  58.2759666  68.1547165  15.4507208  57.2352333  68.7582169  14.5322151
   9.9074802   7.3068929  78.4138336  10.1259947   6.9970384  77.5349274
   9.9417171   8.2611275  78.3467789  23.1399727  24.8879147  60.2763939
  22.2356243  24.7905617  60.5745697  23.0707531  25.3798237  59.4581833
  69.3810349  16.4892559  88.8440933  68.8353348  16.2972374  89.6066971
  68.8311615  17.0424690  88.2892761  48.5425797   2.9328051  57.8400688
  49.4916344   2.8538082  57.9364319  48.3505096   2.5078180  57.0041695
  44.1296196  63.9392967  74.9978409  44.7716408  64.4594955  75.4809952
  43.3434105  64.4850082  74.9804993   9.5670290  21.0822506   6.2092323
   8.8617010  21.6057606   5.8288651  10.3613319  21.5865326   6.0331235
  60.6050339   4.4720144  43.8784981  59.8214722   4.0212116  44.1932068
  60.7525787   5.1697946  44.5169067  22.1876526  37.7848282  88.1645966
  22.6841068  37.5367928  87.3846970  22.7637424  38.3887901  88.6331940
  78.2651367  65.0576096   4.9007034  77.8363571  64.6534042   4.1463852
  77.5849838  65.0909348   5.5733957  84.1259079  53.5986023  57.9751968
  84.9210205  53.0672302  57.9343529  83.6300430  53.3479919  57.1957436
  41.4419899   7.0254445   2.9764509  41.9550781   6.8412390   3.7632415
  41.9706192   6.6767340   2.2586880   2.4956417  60.2448425  82.2562714
   1.7649513  60.5643997  82.7856140   3.0778666  59.8177872  82.8846588
  32.0167198  71.4119110   5.9584732  32.2619972  71.1148911   5.0822005
  31.1455460  71.0420532   6.1016192  17.4621639  32.7665787  77.2775497
  17.7596588  32.0119057  76.7694244  18.0283241  33.4844360  76.9940491
  27.7510891  53.9337006  47.0090790  27.3201485  53.6279716  47.8072357
  27.2928391  54.7435493  46.7846298  69.6602859  64.9940567   4.5233932
  69.2179642  65.5376892   3.8714371  70.1247559  64.3336411   4.0092382
  37.2591667  68.1304169  54.8807449  38.1573906  67.9039841  54.6395950
  36.7215614  67.7501602  54.1860352  77.1367722  22.3421192  59.8057442
  76.3901672  22.9271622  59.9343643  77.5197906  22.2473125  60.6778374
  19.6620827  29.3102856  25.4791317  19.1882782  30.0624638  25.1242142
  20.5809402  29.4906101  25.2806034  25.6890526  41.8684502  13.7493553
  25.1544514  41.7032089  14.5259686  25.0786610  42.2414627  13.1133394
  60.3544922   5.2656751  13.1464062  59.5032768   5.2001843  13.5792761
  60.1725121   5.0644059  12.2284708   8.9445877  71.2090607  10.2442007
   8.9504995  71.5423508  11.1414833   9.5682955  70.4830322  10.2542639
  25.9167938  67.5592270  46.6357574  25.0427170  67.6488647  47.0154762
  26.4720345  68.1196976  47.1778069  82.8291702   1.1242063  49.0434990
  82.2704468   1.8746274  49.2458038  83.6605148   1.5115380  48.7695045
  10.8240414  61.5975227   3.7906284  10.6427174  62.3631058   4.3358173
  10.4087467  61.7971649   2.9516380  15.1685390  13.7866573  83.4696426
  15.1631336  14.6925325  83.1604614  14.3329287  13.4269829  83.1719437
   8.3737917   6.1687903  41.7118034   8.2518120   7.0237947  42.1245041
   8.0729561   5.5407410  42.3685265  53.0852165   5.7827477  70.2443695
  52.9449234   4.9738379  70.7365265  52.3817024   5.7933249  69.5953827
  45.7915115   0.9031093  88.8890381  46.5533295   0.5226200  88.4518967
  46.1359558   1.6705693  89.3457642  12.4191599   1.5060916  46.1617622
  11.8666811   0.8078868  45.8103256  13.1600800   1.0482914  46.5588646
  53.1825943   2.3220806  19.0251846  53.1313400   3.2029521  19.3962250
  52.5401688   1.8152455  19.5218124  57.0537682  43.7409744  87.5884171
  57.0768547  43.5346451  86.6539993  56.1270142  43.8863106  87.7787781
  79.2265549  11.1441574  13.0095310  79.2849045  11.8544531  13.6485214
  78.3457794  10.7882004  13.1268530  54.8900299  45.4189301   8.5326557
  55.6786575  45.9232407   8.7325745  55.2128716  44.6370659   8.0846663
  12.0692835  28.1725540  33.7445145  12.7202387  28.8594532  33.8882446
  12.4477825  27.6238365  33.0575790  86.8526230   2.3591502  18.6109695
  86.2904587   1.5993274  18.4597321  86.8828354   2.4489367  19.5634689
  56.4432945  19.9145679  56.2165260  57.0176620  19.2436295  55.8475075
  56.5567284  19.8325748  57.1634369   8.9965096  59.0625877   2.6160610
   8.9514036  59.9204025   2.1937439   9.6314173  59.1768570   3.3232148
  42.7794838  28.2010651  73.6822662  42.4358788  27.8942318  72.8432083
  42.7158890  29.1548653  73.6327515  32.7021255  26.7360458  73.1995621
  32.5074310  25.9790344  73.7520676  33.6427307  26.8763161  73.3082581
  71.9920120  43.9203682  16.0116615  71.9878464  43.0485382  16.4067841
  71.0797653  44.0771980  15.7678556  61.7345505  42.2924156  80.7169342
  62.3864098  41.6909943  80.3569336  62.1786919  42.7149734  81.4520645
   4.0051866  69.9266510  59.0390244   3.9379425  68.9973907  59.2585373
   3.4771354  70.0243988  58.2466621  72.2829742   3.9660537  74.4052963
  71.3408661   3.9860497  74.5734177  72.3556976   3.7573693  73.4739609
  48.0658035  29.7186432  73.5910873  48.3199883  30.5637989  73.9616776
  48.4608574  29.7108555  72.7192459  37.6056480  68.3217697  20.7804050
  37.0961418  67.8128510  20.1498260  38.5124702  68.0583038  20.6239033
   4.4291430  28.6930695  49.1601677   3.7776423  29.3853912  49.0485039
   3.9702075  28.0085831  49.6470871  53.7302246  67.7319870  16.1212006
  52.8738899  67.3418198  15.9460106  53.5310860  68.5629349  16.5526009
  79.2007141  55.5042496   0.1415167  79.7535248  55.0006638   0.7390397
  79.8045959  56.1060486  -0.2936733   4.4662457  62.7445564   3.5705669
   4.7215977  62.0526047   2.9604626   5.0071592  63.4942741   3.3224366
  53.5388451  56.6492233   3.3142161  54.4561882  56.4873199   3.5344417
  53.0892143  55.8375969   3.5494308  58.6383972  36.5908928  86.8973236
  58.5284233  35.6421318  86.8341141  57.9387627  36.9499855  86.3516159
   5.6253400  71.4249954   7.9290228   4.7194500  71.1545792   7.7791290
   6.0514188  70.6465683   8.2878265  23.1594296  26.4377651   0.4773724
  24.0123386  26.8568020   0.5922070  23.3620453  25.5815296   0.1004911
   5.0940428  45.2163773  26.7448578   5.9829512  45.5095634  26.9451466
   4.7616577  45.8656235  26.1249981  75.0206299   5.7463875  38.2778893
  75.2167206   5.5748796  37.3568192  75.7000198   6.3601265  38.5571518
  56.9098663  44.8479424  71.7662430  56.2833366  45.5716019  71.7635345
  57.0741005  44.6698532  70.8402100  26.1180096  53.7425537   3.8983407
  25.5289440  54.0819931   4.5721469  26.9315891  53.5521011   4.3652959
  63.2815285  30.0197220  83.1664429  63.5238380  30.5264606  82.3913727
  64.1173935  29.7552891  83.5506744  52.5698776  67.0548401  11.6159973
  52.0463066  67.8010101  11.9081268  52.7988281  66.5925674  12.4222965
   6.3661313  25.1010933  61.4379082   5.4688797  25.0917664  61.1046143
   6.5891523  26.0299168  61.4993935  51.6409645   7.8236122  52.6140022
  51.0095787   8.4416447  52.2457390  52.4927139   8.1496458  52.3233833
  24.4198380  53.2890549  75.8858948  24.7473640  52.4106865  76.0793610
  24.1945744  53.6545029  76.7414246  23.7810574  29.1004715  57.9826279
  23.2621117  29.2458744  58.7736969  24.4380531  29.7964687  57.9958839
  81.5373611  59.9831581  87.8402100  81.9910278  59.6856613  88.6288300
  81.5053482  60.9358482  87.9273071  16.3038235  42.9538651   5.5176620
  16.4172478  42.3777199   6.2735872  17.0630894  43.5361404   5.5442448
  53.8731842  26.5340748  16.4627647  54.7106552  26.0759068  16.3924046
  53.5492973  26.5805798  15.5632286   6.0564737  56.8977547  65.4170074
   6.0393019  56.7646027  64.4692688   6.7018409  56.2668266  65.7358627
  85.7430420  27.6134796  32.6568260  85.2961807  28.2671490  33.1946640
  85.9832306  26.9206905  33.2721138  86.3913498  66.9239120  33.0190620
  86.7770233  66.2340317  32.4791069  86.7574081  67.7356720  32.6679688
   4.8268080  66.3742599  78.2003326   4.6850090  67.0620956  77.5499420
   4.0084934  65.8777161  78.2061005  68.9128418  65.6362991  52.8311005
  69.5525742  66.1175232  52.3063164  68.0836716  65.7577438  52.3685379
  54.6467781  56.5072441  39.7369804  55.0726547  56.4495964  40.5922775
  53.9056816  55.9044456  39.7973175   3.0039709  45.3621254  36.2754059
   3.9278843  45.5911255  36.3762703   2.9587338  44.9159851  35.4297409
  57.9310951  71.6021957  24.4094257  57.6565552  70.7948227  24.8441830
  58.1136208  72.2099686  25.1260338  57.0427094  38.6145973  39.5891647
  57.9741974  38.4842148  39.7668266  56.7498016  37.7804337  39.2222786
  49.5204506  65.8539658  27.2786789  50.1514778  65.8491516  27.9984074
  48.6762466  65.6905670  27.6992130  81.7878494  25.7217369  23.5305767
  82.2736969  26.3185978  22.9614182  81.8978119  26.0857677  24.4089985
  56.3284149  27.9126911  28.0512390  57.1850853  27.5873146  27.7746887
  56.5257492  28.6785412  28.5904636  75.7333221  66.7997589  82.8094025
  75.6317368  67.4225693  82.0896759  75.2987518  66.0045471  82.5011444
  83.6399994  46.4828644  61.9383812  84.3682938  46.8790779  62.4167404
  83.0301590  46.2016792  62.6204872  10.3391132  14.6633539  42.1097031
  10.3151550  13.8542681  42.6206245   9.9279432  15.3164558  42.6759453
  11.4104548  33.1248932  25.8019848  11.3244505  34.0747261  25.8835793
  11.1679182  32.9394989  24.8947716  28.2217560  13.6378021  74.7652435
  28.4542217  13.3277559  75.6404953  28.5232620  14.5460501  74.7449646
  12.2187052  31.6876793  76.8837128  13.1334133  31.7622623  76.6117172
  11.7770882  31.2911777  76.1327133  10.4047890  27.3789177  44.0013771
   9.5624924  26.9315643  43.9198723  10.6565285  27.5815639  43.1003799
  82.5441437  29.7280712   1.7593971  83.2257004  29.0668316   1.6391126
  82.3861389  30.0718689   0.8801526  67.8239365  59.0810547  65.6488800
  67.6332016  59.4631538  64.7922287  66.9637756  58.9314346  66.0412827
  18.4528732  45.6718102  79.2058640  17.8884239  46.0056038  78.5085754
  19.3003578  45.5341454  78.7827225  40.6743355  10.5808640  51.8939819
  39.9166985  10.1017752  51.5582848  41.0468941  11.0099525  51.1237106
  55.7756004  68.2771988  67.9388733  56.3533287  67.9933472  67.2304306
  56.2618484  68.9738312  68.3798981  57.9512062  10.5063677   4.8166366
  58.2068901  10.1393223   3.9703887  57.5181770  11.3317366   4.5987277
   7.3925476  29.6828594  36.0546303   8.3390512  29.5653076  35.9737320
   7.1768332  29.3084774  36.9087601  60.3539581  14.6855030  57.5342026
  59.7818832  14.8678284  58.2796669  59.8192787  14.1510887  56.9470482
  73.0740280   9.3496456  11.8685217  73.2247086   8.5217781  11.4122753
  73.0460052  10.0054331  11.1718235   4.1835771  29.7620258  34.6099091
   4.2802682  30.3618259  33.8702354   5.0179925  29.2947178  34.6499977
  15.5631218   7.4241066  32.3147392  16.2833900   6.8220649  32.5018005
  14.9723701   6.9233537  31.7521629  42.3170967  49.3990021  16.2784805
  43.2540894  49.5942497  16.2660027  42.1184464  49.1209755  15.3843498
  10.4387417  14.5130644  11.3730955  10.6085768  14.5494261  12.3144064
   9.8882084  15.2765865  11.1993761  84.2185059  51.6429329  45.2236176
  83.2711258  51.5126991  45.1818657  84.3343887  52.5889053  45.1345024
  54.2960320  70.2847672  29.0548820  53.4951057  70.7908554  29.1913567
  54.0454025  69.6033173  28.4311504  13.0570555  66.0537415  55.3187790
  12.1261044  65.8438110  55.2446709  13.1121035  66.9819412  55.0915260
  11.0988789  52.2946053  12.5389261  11.3066721  51.5261154  12.0074387
  10.6359262  51.9421120  13.2989626  80.3819504  48.9011765  25.2797127
  80.5032578  49.5725441  24.6083126  81.2682800  48.6996117  25.5797672
  22.1350174  39.7416611   5.8679295  22.8579845  39.7646484   5.2410145
  21.9370766  38.8108635   5.9712253  83.7310410  37.1443748  47.4350471
  84.5541229  36.7014503  47.6414185  83.5200958  37.6389542  48.2269592
  86.3961411  57.2415619   6.7827840  86.4206390  58.0568352   7.2837381
  85.7354889  57.3952141   6.1073856  63.1549606  29.9819527  26.1195698
  62.7075119  30.8221321  26.2201881  63.8452721  29.9973259  26.7824898
  46.7807426  34.0069580  86.0553207  46.8783607  34.6668205  85.3688202
  47.2646980  33.2483521  85.7289276   6.5836954  43.8888626  38.6412430
   6.1156211  44.5215721  38.0964394   6.0058608  43.1264114  38.6730347
  56.3389435  11.6702433  70.0625610  55.9602432  11.9193821  70.9056168
  55.5929871  11.3666391  69.5452576  46.1733437  40.0816956   9.3291779
  46.1778297  40.8704567   9.8714590  46.9774590  40.1411171   8.8133268
  54.9215622  63.1686325   3.3231764  54.3026886  63.3959846   2.6292450
  54.8320923  62.2208481   3.4228251   1.2284625  40.5493927  73.4877472
   0.8739707  41.4373817  73.4425430   1.2408167  40.2498741  72.5786972
  55.0936127  68.0067215  36.6035461  55.5170631  68.4383316  37.3455925
  55.7724228  67.4402618  36.2367020  37.8420029  54.8862114  48.1132507
  37.3726730  54.0548706  48.1828079  37.2113380  55.5427589  48.4089508
   6.1537790  39.6271286  33.5125999   5.9132919  40.5346603  33.6991196
   5.8649549  39.4831848  32.6114388  31.0048275  54.7320175   8.4144745
  31.9036121  54.4493027   8.2456818  30.4645462  53.9943047   8.1314440
  14.3723335  42.4836464  88.8048019  13.9444818  41.6273994  88.8013153
  15.3072062  42.2840614  88.8538895  66.2499466  45.9576302  49.9419746
  66.2975922  45.2803421  50.6166916  65.5126648  46.5077896  50.2065048
  83.2792892  19.9636269  56.5599556  82.5335159  20.5630608  56.5329018
  83.8207245  20.2211075  55.8137779  16.1502457   3.5608771   9.0184135
  15.6322737   3.9638658   9.7152185  16.8889847   4.1567006   8.8939524
   6.4546838  36.7888069  58.2156525   7.0915284  36.7391663  58.9285316
   5.6792297  37.1837502  58.6143036  33.7778435  30.4262810  83.4017105
  33.0112038  30.8545990  83.0208664  33.5927010  30.3941746  84.3402863
  32.3266563  61.4704628  33.7013397  31.5617027  62.0455818  33.6836662
  32.3667603  61.0981026  32.8204460  17.0790596  61.4533272  43.7639771
  16.6713905  61.8782005  44.5186462  16.3611584  60.9885674  43.3340378
  53.8563919  64.6346741  38.1034737  53.2188034  63.9420433  37.9303513
  53.3993797  65.2405701  38.6867981  21.3264446   9.6497536   1.5442196
  20.4029751   9.8633537   1.6776676  21.3136940   8.8311491   1.0482812
  66.9054031  34.0232124  46.6028519  67.8141556  33.8691864  46.8610535
  66.9630814  34.3421898  45.7022095  80.2910538  48.3590317  83.0155411
  81.0763474  48.7474289  83.4011612  80.3917694  48.4998245  82.0741272
  16.3567429  38.1074791  84.5062103  16.7461796  37.2996254  84.1716385
  16.5188046  38.7539406  83.8191528  69.5636978  20.7022724  31.8358898
  68.8802643  20.4796906  31.2037411  69.2990952  21.5533772  32.1849480
  56.9663391  53.2592354  69.9374313  56.5798264  52.9856606  69.1055679
  57.4297028  52.4833450  70.2529068   4.2670474  28.7115841  25.7293835
   4.4922724  29.6414642  25.7005844   3.8245358  28.5982666  26.5705585
  53.0537491  57.7920952  79.6157074  53.3664780  57.9486923  78.7246933
  53.3536148  56.9069557  79.8226929   2.1586711  -0.2414803  32.7341576
   2.0870528   0.1999452  33.5804710   1.4078279   0.0774215  32.2333908
  84.2723846  43.1235046  51.4276619  84.5534668  42.2245712  51.2569389
  84.9023819  43.4538994  52.0681076  12.6753941   1.6246008  36.8786163
  12.3800135   2.2029233  37.5818405  12.2389164   0.7911099  37.0547180
   1.6476114  56.5845528  66.9627914   2.0308318  55.8110619  67.3764191
   1.3658818  57.1329231  67.6950150  48.5282326  50.5052605  87.8543015
  49.2849388  50.3474693  87.2897339  48.5720901  49.8120575  88.5129166
  78.8906021  42.7358055  19.7858467  79.7053299  42.2645569  19.9601402
  78.3028336  42.0724220  19.4243393  57.3494759  24.4339123  66.8717422
  56.4515114  24.7652130  66.8829575  57.6584778  24.6095085  65.9829712
  12.8733635  54.8054314  62.4646416  13.4807444  54.5284615  61.7786331
  13.4355135  55.1607323  63.1531029  34.7077141  56.9984665   3.3236520
  34.4186554  57.2432327   2.4445813  33.9845352  57.2580032   3.8945141
  76.7380829  12.6390638  54.2509804  77.2390137  13.4322815  54.4409828
  76.7813339  12.5507908  53.2988396  27.2637768   0.2915253  36.3974533
  27.2099743   0.4020188  37.3467293  27.3092442   1.1840703  36.0546265
  80.4187698   2.1099212  46.0975838  80.0639191   2.5701342  45.3369827
  80.6901321   1.2576309  45.7567101  83.6650238  12.8507690  16.7710972
  83.5944366  13.5612221  17.4086742  82.7692795  12.7171602  16.4612255
  50.8252373  31.0395622  68.1531982  51.6779060  31.0158844  68.5875168
  50.7367058  31.9425983  67.8483734  68.1855087   1.3083540  38.6205368
  69.1145325   1.1119131  38.4998741  67.7609100   0.4508999  38.6473694
  49.9482727  19.9459343  67.3594971  49.2364731  20.1251526  66.7451248
  49.6452103  19.1906834  67.8634644  49.7041550   1.1204382  84.6844177
  50.3418350   0.9960440  85.3873520  48.8696823   1.2431508  85.1369934
  15.3763399   4.6835871  80.7594299  15.8660545   5.3619132  80.2943649
  15.1212311   4.0622287  80.0774689  14.2477770  40.5333214  33.5811424
  13.7695322  39.7128792  33.4612007  14.6525497  40.4505844  34.4445915
  50.3326797  46.0684547   2.7659817  49.4679337  46.2805214   2.4145906
  50.7915421  45.6507874   2.0371265  21.9787903  64.9278183  74.0260925
  22.3994255  65.3150558  74.7937851  22.0846405  65.5848083  73.3380585
  84.3343353  30.7934208  68.0535355  83.5008774  30.7805958  67.5829849
  84.8643723  30.1244831  67.6201630  27.2205486  34.5017662  12.5136461
  28.0958462  34.3341255  12.1643867  26.7870445  33.6486053  12.4931479
  49.9667969   2.6280370  10.0562601  50.3701973   1.7785412   9.8777714
  49.2492104   2.4306781  10.6582146   3.1788795  17.7605247  57.1883011
   2.9940643  16.9370937  56.7365990   3.2957499  18.3987541  56.4845734
  14.8691616   7.5641499  54.6306839  14.1149826   8.1045618  54.8660583
  15.5742311   8.1922312  54.4737663  80.6209717  10.0376520   3.9091604
  80.7277985  10.0208807   4.8602328  81.3024216  10.6356344   3.6021104
  76.2245941  61.2418098  83.5853500  76.7486343  60.4483719  83.6952209
  76.8638992  61.9250603  83.3836288  85.0706787  65.0801544  30.6936150
  84.5987091  65.8600540  30.4016819  84.7793961  64.9476013  31.5957336
  66.1877289  20.3814373  71.8623886  65.8452835  20.6461449  71.0086365
  66.5448914  19.5055046  71.7160797  84.9567413  44.3683472  43.5425758
  85.8086090  44.0999107  43.8868103  84.5688400  44.8912277  44.2442589
  74.2215652  54.0925255  58.2470627  73.5299835  53.4612923  58.0483170
  74.3982086  54.5252037  57.4117088  70.0918198   4.6869879  58.2738304
  69.1892471   4.3778038  58.3512497  70.0459442   5.4040661  57.6414337
  50.0531807  29.2931881  19.5212097  50.2704010  29.4264965  18.5985622
  49.2501335  29.7970409  19.6534271  83.0877380  65.8021851  19.2140083
  83.4874725  66.3790512  19.8649082  82.2678604  66.2371368  18.9798164
  24.0757771   9.1102324  76.6101532  23.4478111   8.6880026  76.0239639
  24.3720951   9.8821106  76.1278305  20.5779629  25.2809200  88.5589218
  21.2321930  25.6838856  89.1297379  20.2383442  26.0061378  88.0345688
  43.3187904  60.5134697  58.6854515  43.3357506  60.2223282  57.7737617
  44.2344627  60.4854126  58.9629135   7.9771628  17.7142696  53.0396080
   8.0339365  17.0283508  53.7048340   7.7648668  17.2472153  52.2315102
   1.3291690  21.6354256  30.9423218   1.0018545  21.8518257  30.0692425
   0.6863298  21.0190468  31.2931328  79.3814011  32.9445000   2.5737407
  79.5764084  33.8805847   2.6178985  80.0749207  32.5308647   3.0877151
  33.9843178  24.5769901  88.1760941  34.3555069  25.0957699  88.8897629
  33.1435242  24.9943657  87.9887619  55.4221230  14.0254326  53.5535812
  55.6705208  13.1905861  53.1566391  54.7775612  14.3951578  52.9501953
  62.6486206  41.3837814  60.9013290  63.3795929  41.9785767  60.7335968
  62.2584038  41.7069130  61.7134552  23.8923512  44.9028282  40.0904732
  23.1429787  45.4954071  40.0311012  24.6482983  45.4507713  39.8794365
  80.8978119  67.1304321  35.7633820  80.2713089  66.4317093  35.5749359
  81.1371613  66.9965973  36.6804619   1.5915459  70.2066422  18.4423447
   2.0659595  69.7732620  19.1518116   0.7754223  69.7127609  18.3632431
  71.9310074  46.0721703  80.4385834  71.8220215  45.9275627  79.4986725
  71.7919312  45.2103539  80.8312225  18.8238163  43.7445602  24.8917370
  19.4562874  43.3285446  25.4775200  19.0614243  43.4291306  24.0197983
  13.6178122  10.5336657  40.3590736  12.7690210  10.9748182  40.3248787
  14.2260151  11.2076950  40.6623993  32.8320580  34.4687080  85.2527771
  33.1309891  35.2978973  84.8795319  33.4541588  34.2847710  85.9566193
  56.9432106  40.0915985  20.7753201  57.8959198  40.1220818  20.6878872
  56.7843132  39.4101295  21.4284515  38.8656349  41.8159752  16.3871994
  39.6963844  41.8856659  15.9168434  38.2968941  41.3217354  15.7968674
   8.4020758   5.9125843  84.1727676   8.3024015   6.5834708  84.8481979
   8.7793446   6.3782959  83.4264297  81.5064621  53.3308067  23.9978886
  81.2042923  52.4881248  23.6590462  81.1137161  53.9788551  23.4130688
  61.8262901   4.9223843  51.9659119  62.6925926   5.3228607  51.8926048
  61.6641693   4.5425453  51.1023903  12.9092331  13.1266947  60.4080544
  12.8180084  12.3206501  60.9161911  12.1253576  13.6334782  60.6200485
  50.5497932  57.9295425   6.9415331  50.7189484  58.7484398   7.4073911
  50.1493607  58.2019806   6.1159043  83.4804840  37.5715294  34.3835831
  83.1047211  37.7811470  33.5285454  84.4244843  37.5381889  34.2286758
  85.0513153  10.7524662  54.8518028  84.3350372  11.3845043  54.7908669
  84.6176147   9.9129810  55.0047722  22.0139198  48.9156799  68.8242416
  21.4816265  49.2288742  68.0929413  21.8748112  47.9686852  68.8334274
  41.1531219  49.3208160  19.9217052  40.7770996  48.6502686  19.3514404
  40.9895172  50.1447449  19.4627857  75.6776733  51.9853439  55.4671593
  76.2232971  52.2346039  56.2130775  74.7924423  52.2476921  55.7196693
  66.2873001  66.6592026  44.3541641  67.0631714  66.1446991  44.1315613
  65.7781372  66.6874466  43.5441093  73.3625031  21.8049774  49.6406822
  74.2881622  21.6520023  49.4509850  72.9215088  21.0114536  49.3372383
  27.8304005  28.5030365  15.3048582  28.6781998  28.2142887  15.6426306
  27.4565105  29.0275173  16.0129261  85.2439880  27.7966900  52.7208176
  84.3257294  28.0287247  52.5822754  85.3164673  26.9000912  52.3935738
  40.6429749  39.3370552  86.8001404  41.1579666  39.6774368  86.0685959
  39.7379303  39.3658981  86.4898224  13.7455235  69.5414276  28.8803883
  12.7938261  69.5592194  28.7794456  13.9685469  68.6105881  28.8848820
  42.5949173   3.8283954  67.2355957  42.5693817   3.8353894  68.1924362
  43.4820709   3.5394735  67.0217896  19.4496746  15.3894796   3.8771737
  18.8152962  14.7364273   4.1726699  19.9302883  15.6318235   4.6686993
  77.8818283  23.0953026  45.2127037  78.4939270  22.6854515  44.6014748
  77.7017593  22.4162140  45.8628120  84.5039825  55.6376419  81.8335114
  85.3716125  56.0205193  81.7036819  83.9251328  56.1633759  81.2814484
  64.6626587  27.1344414  27.6917076  64.3397827  26.6037292  28.4199448
  65.5466537  26.8053455  27.5289898  63.9883652   2.8550706   3.5775192
  63.1013603   2.5710516   3.3566411  64.4413528   2.0507274   3.8306320
  68.1844788  13.8519964  75.9988022  67.8606262  14.3476400  76.7509232
  67.5738525  13.1198092  75.9135590  60.2181358  70.1509857  79.2179184
  61.1723976  70.2081604  79.1695175  59.9101295  70.9883423  78.8712311
  33.4553604  47.4759712  26.4706059  32.8968506  47.9659843  27.0740852
  33.8755760  46.8127518  27.0181332  52.5167274  21.3183708  50.8726501
  51.9685440  20.7626495  51.4266357  51.9817848  22.0949879  50.7085228
   7.1918044  29.9769859  72.8668213   7.1669602  29.0477161  72.6386261
   6.3703384  30.1310863  73.3333817  71.8446121  38.2628937  18.3564644
  71.7089996  37.3952827  18.7373753  71.9574585  38.0984764  17.4202671
  25.9696198  45.8893890  15.6015711  26.8260975  46.0225983  16.0076923
  25.3417835  46.0816002  16.2980690  36.2629089   3.8268552  30.2308350
  36.5858955   3.3888278  31.0182629  37.0140648   4.3251033  29.9087372
  76.3402023  69.2471848  18.1509056  76.6460266  70.1429291  18.2935543
  76.8736343  68.9248123  17.4244328  39.4163437  29.0282936  15.5153208
  39.1990471  29.5280323  16.3022614  39.1590652  28.1300926  15.7233410
  43.8678322  48.0658302   2.5421493  43.1881180  47.4113388   2.3813217
  43.6507034  48.4308205   3.3999782  18.0724525  48.5195580  85.8773956
  17.9086437  47.7817154  85.2900391  17.6882782  49.2727547  85.4286957
  63.3224907  52.1304741  43.0520363  64.1837540  51.7130089  43.0657806
  63.5082550  53.0656700  43.1365242  63.1062660  12.5110273  65.0025864
  62.4272842  12.9147320  64.4619904  63.3286858  11.7014980  64.5427704
  77.5523300  68.4780579  87.3755798  76.9327850  69.1032791  86.9994278
  78.0007858  68.1005096  86.6188889  41.1442337  17.3093548  67.7789307
  41.2018089  17.5507278  66.8544540  41.8206635  17.8347931  68.2062378
  73.8108521   9.2506170  39.7657738  74.5309677   8.6201429  39.7787476
  74.2357330  10.1017313  39.8721275  67.9652634  64.8253250  28.5444145
  68.5086365  64.4271393  27.8643990  67.3854904  65.4208298  28.0695801
  84.1428299  53.1261978   0.6066909  84.5183945  52.4789009   1.2035048
  83.9921722  52.6435776  -0.2060904  14.1280975  16.4759560  33.5512199
  14.7591801  16.2703705  32.8615112  14.4497099  16.0031242  34.3188362
   3.9589767  65.8872757   0.3425290   4.6594191  65.3768768   0.7488605
   4.4051323  66.4335709  -0.3045663  61.5273628  36.6525841  19.1643658
  61.6466827  37.4147339  18.5976887  61.0337982  36.0311241  18.6291866
   0.9700327  34.3306198  18.8848877   0.4176280  33.7395515  19.3964691
   1.0633482  35.1079407  19.4356079  50.7896996   3.8468761  84.2337723
  51.0493240   4.1595116  85.1004257  50.3211098   3.0298343  84.4043503
  67.5877380  67.7001495  21.3645515  67.9863510  68.4205093  21.8528423
  66.9699326  68.1264114  20.7705326  58.1831474  39.7031364  50.6734314
  57.9219742  40.4981689  50.2087326  59.0158997  39.9301872  51.0872040
  23.1508770  68.7862778  62.4878120  23.9800320  68.9565048  62.9347534
  22.4805851  69.0021515  63.1361465  18.7068138  47.7515640  74.8202667
  18.4803410  47.4711952  73.9335098  18.9252605  48.6791000  74.7297592
  31.2008934  43.4303703  70.1966934  32.0671539  43.0795708  70.4034805
  30.5899162  42.7890778  70.5595779  76.8250885  58.9589119   5.6244144
  77.5246658  59.4821930   6.0155668  76.9943008  58.9981956   4.6831093
  43.9040871  65.8796310  78.1253662  44.7369652  65.8554535  77.6542435
  44.1350479  66.1782837  79.0049667  56.9950066   8.5449648  82.0694427
  57.6469078   7.8454452  82.0255127  56.4370766   8.4007473  81.3051453
  53.4783783  37.4545364  87.8550262  54.0780106  37.6060448  87.1244659
  52.9775772  38.2671547  87.9263229  75.3960648  21.1715717  29.7084694
  74.9760208  21.3924580  28.8772030  76.2793198  20.8949203  29.4644375
  15.5968866   3.8670673  28.7575779  14.8327875   3.4154541  29.1159496
  15.7460518   3.4492683  27.9093895  83.6598282  53.5166855   8.8437138
  83.0427017  54.0320740   8.3243322  84.4200134  54.0886688   8.9494686
  31.1579037  64.7139664  27.6953983  30.2672176  64.4123459  27.5166874
  31.4093170  65.1977768  26.9086666  80.0790329  46.8701286  78.8024902
  79.3158569  46.3127365  78.6504593  79.9624023  47.1979065  79.6942291
  66.1222610   9.2836599  85.4126740  66.6116333   8.4852057  85.2146530
  66.7958069   9.9353580  85.6072388  17.7910595  62.2749100  84.1838608
  17.8645782  62.9719620  83.5319824  17.6793785  61.4759636  83.6686478
  18.5419865  19.4548855  68.3737564  19.2119579  18.9059982  68.7813034
  19.0252209  20.0039444  67.7563019  64.8288727  61.0201530  80.3042221
  65.5282822  60.3811760  80.1672592  64.8524780  61.2034836  81.2434006
  23.8344250  29.8576546  81.7122650  23.3781223  29.0221653  81.6123886
  24.7372189  29.6696739  81.4556351  82.4094772   2.7077785  69.8849411
  82.2340393   3.6444750  69.7952042  82.3642044   2.3688936  68.9908829
  41.1632652  51.2357063  32.4159927  41.3573761  50.5263710  31.8032970
  41.4767685  50.9144592  33.2614174  72.4300613   5.0225687  19.9798679
  71.8506622   5.4215093  20.6289997  73.0806580   4.5491467  20.4983521
  13.7187433   9.7136402  83.6682358  13.1561069   9.3931360  82.9632874
  14.4832706  10.0743895  83.2192459  42.3634567  35.5758438  24.3141861
  43.2947311  35.7600746  24.4367237  41.9178162  36.3376160  24.6847801
   6.0835023  47.5386581  13.5799904   6.7209015  46.8332024  13.4691677
   5.4598532  47.4124985  12.8648844  23.3530788  60.1016083  34.4552994
  22.6180267  60.5307198  34.0173569  22.9722271  59.7242203  35.2482414
  55.1283646   6.0776768  85.3285599  55.4071198   6.9703388  85.1243973
  55.6096649   5.5289254  84.7093201  83.1747971  18.3252583   5.1791992
  82.9238586  18.2417507   4.2592592  82.4266510  17.9768791   5.6641116
  74.6985855   0.7378602  18.8890324  75.3789444   1.3721907  18.6632690
  74.5609512   0.2377429  18.0845642  16.0576382   4.2061043  49.5569382
  15.4379997   3.5134678  49.3277359  16.8928070   3.7523992  49.6704216
  45.1497459  51.0680237  31.7859306  44.3810043  51.6344337  31.8526497
  45.0854645  50.4867630  32.5437126   0.7668908   2.6942353  88.7801971
   1.0245004   2.6266842  89.6996002   1.4859953   3.1697810  88.3642883
  18.3306389  66.4868546  42.3814697  18.2759209  65.5825043  42.6903381
  19.2682018  66.6468201  42.2736893  19.6339149   3.5330262  30.0786285
  19.1028595   2.8690059  30.5182743  20.5113888   3.4180226  30.4433842
  22.5867062  11.5638981  78.3565979  22.7966595  10.8548336  78.9643631
  21.9723339  11.1728678  77.7354126  33.8516579  34.7806969  10.9620838
  33.6170044  35.3842201  10.2571497  34.8073540  34.8177376  11.0008945
  40.9286461  68.5103455  21.2290974  40.5798187  69.3752213  21.4448376
  41.4718857  68.6575089  20.4548454  77.2648010  58.4846992  14.6977396
  78.0673218  58.7356262  14.2403212  76.8586197  59.3161850  14.9424524
  73.2974014  32.3315125  20.8945580  73.7558670  32.2779350  20.0560055
  72.6798859  31.6003475  20.8770580  70.2928467   6.0791330  62.8980331
  70.4325790   5.2631011  63.3784485  69.6008148   5.8718662  62.2700424
  58.9236832   1.4690800  34.3749619  59.8274994   1.1568063  34.4177971
  58.9821472   2.4012134  34.5845833  13.8058405   9.9312296   8.0596762
  14.5770893  10.1123657   7.5224643  13.6098347   9.0090580   7.8941035
  14.4053936  64.5992889  52.7107010  14.8894167  64.1406326  53.3974228
  14.0822821  63.9026337  52.1392975  60.1584435   4.0122824  49.5420265
  59.6561890   3.4989817  50.1748734  59.9342766   3.6314402  48.6929474
  51.8081551  19.1550770  52.3068466  52.3486862  18.4766922  51.9020576
  51.9132614  19.0152397  53.2479248  66.0179367  11.7819605  28.9654961
  66.6517868  12.1680479  29.5699768  66.3917542  10.9306526  28.7379799
  26.0979137  61.5688057  62.6739960  26.3584614  60.6478043  62.6637993
  26.7385273  62.0051765  62.1123657  17.9900265   8.9469280  81.1544876
  17.4083576   8.2796412  80.7903137  18.8375244   8.5089445  81.2329025
  47.0736084   0.7585292  68.3559341  47.9939690   1.0154653  68.4120941
  46.9812469   0.0563382  68.9998474  10.1768026  36.8092575   4.5152607
   9.4283104  37.3447037   4.7784891  10.8754864  37.0608597   5.1192226
  29.9129581  40.4825668  73.1302948  29.3364601  40.7781029  73.8349457
  29.4621868  40.7428436  72.3269882  70.5059814   9.3267498  69.8073730
  71.0883560   8.7088900  70.2493286  70.7131119   9.2283058  68.8780518
  72.3528671  46.9901657  41.8673706  71.6403427  47.6102715  42.0223198
  72.8737564  47.0184402  42.6699295  24.4045677   1.6689615  71.0723724
  24.5395565   2.6102099  70.9625473  24.7232971   1.4827251  71.9555206
  59.7418518  18.2483101   8.8526154  60.3114433  17.6359863   8.3869400
  59.1483040  18.5821590   8.1799498   1.4932212  38.8529930  41.8583031
   2.1628211  39.4554214  42.1822624   1.4086750  38.1952248  42.5485344
   5.3079782  64.6892471  58.5531769   4.7307439  64.5026321  59.2935867
   5.6990056  65.5375671  58.7621994  28.4051285  12.2285862  13.4563599
  27.6953316  12.3853331  14.0791359  28.2964935  11.3143244  13.1945286
  12.3378344  16.5569649  88.5197525  13.0945129  15.9901123  88.3702621
  12.6631613  17.4407864  88.3487167  78.5951614   3.3016293  55.8339310
  77.7381592   3.7256923  55.8780746  78.6189575   2.8994792  54.9656334
  42.9136810   4.6965890  59.4440117  43.4200096   4.8240347  60.2462730
  43.3832207   4.0095110  58.9710541  35.1158791  45.2511673   8.7994013
  34.4888306  45.2159691   8.0770426  34.5730515  45.2551765   9.5877886
   1.2111977  12.8430662  57.2904816   0.9119310  11.9407244  57.1788979
   2.0587866  12.7619514  57.7277985  53.2610893  46.9776993  85.4148483
  53.0392914  47.2032356  84.5114212  52.6943436  46.2347298  85.6222763
  22.3674755  24.1888828  15.2745867  22.1655350  23.5014992  15.9093733
  23.1232224  24.6437073  15.6463566  40.0415573  10.4659700  19.5920372
  39.6346664  11.2970753  19.8368587  39.3100319   9.9125729  19.3184490
  13.5790834  59.2122040  85.4231949  13.1506882  58.3697739  85.5749283
  14.5087328  58.9976845  85.3459549  48.6112900   3.8404608  22.0822392
  47.8948402   3.3468354  22.4813232  49.0894089   4.2108040  22.8241825
  10.8951626   9.1664581  23.3686867  11.4869633   8.5108538  23.7377205
  11.1242876   9.2001858  22.4399261  44.8518753  70.4895401  10.9711676
  44.1390152  70.8166428  10.4224691  44.4118347  70.0660400  11.7082195
  38.6457100   2.0186071  34.7124062  39.5045738   1.5970867  34.6822777
  38.1303177   1.4700937  35.3037910  82.6920853  19.3097954  18.6818905
  81.9223862  19.8513241  18.5071182  83.3380585  19.5961876  18.0361881
  60.4406548  62.2932549   3.3537641  59.4882660  62.2828751   3.2584567
  60.6124763  61.7244225   4.1041899  40.6353607  33.4876328  75.4152679
  41.0686340  33.4816322  74.5617676  41.2010345  34.0275993  75.9672470
  61.7507095  37.5779762  55.0466995  61.7335587  36.6791153  55.3753128
  61.3043709  38.0885201  55.7222443  80.8028030  63.1279411  85.1399002
  81.5960312  63.4851913  85.5391464  80.1027603  63.7098274  85.4358368
  39.2496529  67.8269043  15.3217583  39.6952095  67.6005630  16.1381397
  38.3817482  67.4319000  15.4050989  25.0771809  58.1079559  25.1833878
  25.6120434  57.5315475  25.7291965  24.1747780  57.8776245  25.4044094
  72.0397110  28.3880005  51.6779938  72.0354767  27.7594337  50.9561081
  71.1165009  28.5989208  51.8173447  28.0056419  39.9224167  53.2445488
  28.6808052  39.5473366  53.8099709  27.5824852  39.1643257  52.8414726
  56.0739632  19.0759506  26.6299648  55.7130585  19.0664883  27.5164700
  55.8823433  19.9548302  26.3027248   8.0518770  68.8993988  65.5345993
   7.6374941  69.7396622  65.7307281   8.9195023  69.1316681  65.2036819
   6.8761106  30.9254436  63.0406685   7.4241505  30.2703018  63.4727287
   6.3952641  31.3440266  63.7546768  60.7884026  70.2078781  62.2345276
  60.1320114  70.6545792  62.7691689  60.7342072  69.2912903  62.5050011
  84.3101120  26.1635075  30.2761631  83.3555222  26.1051788  30.2362385
  84.4928970  26.5029430  31.1522942  14.1823664  45.9916649  69.1209717
  14.4445658  45.7203026  68.2412872  14.9425726  45.7957153  69.6686249
  34.0689659   9.0509501  78.7602692  34.3436050   9.7038622  79.4040909
  34.8070068   8.9871054  78.1540909  50.0186844  60.3510971  35.8393288
  49.1404877  60.1630478  36.1704483  50.5642891  59.6500816  36.1958809
  68.7552795  18.4175491   8.3866625  69.2521591  17.7321186   8.8333483
  68.7876053  18.1727715   7.4618540  38.4764633  19.5678978  32.2769318
  39.0420418  20.0884705  32.8473320  38.0452347  20.2117214  31.7150021
  33.0700264  48.9421768  68.1219101  32.4674339  48.5319977  67.5015259
  33.9141006  48.5261955  67.9466171   3.6663339  54.8280907  59.4268227
   3.5748680  54.0593147  58.8639297   3.4658275  54.5065575  60.3058243
   7.2284722  14.6550932  62.7907448   7.2964625  13.7044992  62.8800697
   6.3638840  14.8674688  63.1423378  73.7673340  62.8974419  15.1836157
  74.0507126  63.6431122  15.7126770  74.2483826  62.9905968  14.3613310
   9.6175604   0.3372239  12.9800091  10.5370979   0.5696841  13.1090221
   9.4965038  -0.4580550  13.4987659  79.5469971  50.7770271  52.2820053
  79.8333893  49.8861046  52.0808296  79.2138062  50.7249641  53.1778297
  50.5068283  64.7387619  33.0546036  49.6698036  64.4800873  32.6689720
  50.7519264  64.0004654  33.6123466  38.9128532  57.9218102  82.9422302
  39.1879921  57.0094948  82.8516006  38.6800308  58.0110817  83.8663864
  58.7868690  12.6979008  22.1407433  59.3695221  12.0275030  21.7839317
  57.9133568  12.3105116  22.0847244   0.9652801   6.0537181   6.7282763
   0.8473166   5.5670533   7.5440421   0.0751121   6.2329793   6.4254589
  54.6122093  18.7807827  28.9551411  54.1587677  17.9399929  28.8943443
  54.0128288  19.3410549  29.4481621   2.6066549  15.2095108  56.1949272
   3.1521573  14.8898048  55.4762840   2.2219837  14.4190331  56.5736160
  35.2492599  16.7972889  76.3593674  35.8769684  16.4136753  75.7469482
  35.7915077  17.2404022  77.0119400  44.1469994  68.4912491  31.9001484
  44.8433228  68.4495926  32.5556107  44.4428673  69.1560898  31.2783127
  16.9545040  15.8846016  85.3293762  17.6009445  16.5651169  85.5171127
  17.2151966  15.5351620  84.4772263  47.8440056  63.5130043  17.0133343
  48.5859604  64.0103760  17.3573666  47.6658630  63.9081345  16.1598873
  56.6012230  48.5140724  37.7654114  57.3601608  48.5580559  37.1837692
  56.9699554  48.5838547  38.6459770  56.6503830  59.7398033  60.0428581
  55.9924278  60.0424347  60.6687546  57.4850769  59.8609047  60.4954605
  14.8415375  68.6691437   4.8971806  15.6726904  68.9475021   5.2818050
  14.3962317  68.2001190   5.6028347   3.7639508   9.1634445   9.7061987
   2.9825466   8.9946661   9.1797457   4.2436180   8.3351746   9.6952600
  27.7346592  59.8804703  87.4203110  27.8728065  59.5487595  88.3075104
  27.9935551  60.8008728  87.4657135  76.1676254   4.4942465  66.7987061
  75.8935165   3.6098440  66.5559616  75.7982788   5.0551558  66.1166534
   2.8948185  19.0940247  68.8219070   3.0175281  19.9077682  68.3330307
   2.3617814  18.5464001  68.2455292   9.2406330   2.1835504  46.5556259
   8.8048506   2.7664495  45.9338913   8.7459249   1.3657076  46.5043602
  14.2237415  42.8587036  69.0811310  13.9538631  42.9588089  69.9940262
  15.1428270  43.1259766  69.0723953  66.1611481  41.5858154  77.5041122
  66.2763443  40.9650002  78.2235184  66.1157074  41.0383339  76.7202530
  63.6262436  67.5078125  19.0513439  63.4100685  67.3052216  19.9615402
  63.3943520  66.7148819  18.5678997  25.3742695   5.6942301  59.1513557
  24.8429604   5.9366884  59.9097481  24.8166332   5.1009641  58.6480598
   0.1622989  66.5206146  43.0718727  -0.4993922  67.1462326  43.3668213
   0.4244372  66.8386993  42.2079659  78.0348282  32.3289070  37.5876770
  77.8025055  33.0022469  38.2271080  78.9193115  32.0589600  37.8347626
  27.5593052  60.3319778  47.2118187  28.1196632  60.7889748  47.8390198
  27.1581745  59.6261749  47.7189369   9.1437330  27.7782021  24.7607002
   9.5284986  27.8029613  25.6368122   9.8358793  28.1048164  24.1858177
   2.8121111  14.5389748  31.9411621   3.5745416  14.9849205  31.5722923
   2.1005120  14.7382479  31.3327637  74.1257324  19.9862137   8.8130722
  75.0402832  19.8531895   9.0623369  73.9021225  20.8449192   9.1720343
  83.7171783  51.3283730  63.7337074  83.8274384  52.0232697  63.0847130
  82.9010925  50.8948441  63.4841232  76.0652466  28.3625298  41.4268417
  76.4996033  28.8256283  42.1431541  76.7792511  27.9513607  40.9396439
  63.5033836   2.3168774  68.5978470  62.6549759   1.8736597  68.5978546
  63.3391876   3.1484342  68.1531219  16.4736519  62.9343338  48.0547447
  15.8891602  62.8429108  47.3022537  16.8544121  63.8071556  47.9576187
  66.7700653  21.3230190  77.7750092  65.8909836  21.4510994  78.1314468
  66.9678879  22.1441517  77.3246307  61.8799438   8.9879570   9.9590435
  62.0218811   9.7023563  10.5801067  61.1582375   8.4837837  10.3347816
  81.7317276  60.1726112  77.5762634  80.8462982  59.8794365  77.3610840
  82.3053055  59.5662308  77.1077118   0.6054171  14.6138124  30.5179863
   0.2920340  15.3794479  30.9994678   0.3496765  14.7802448  29.6107216
   4.1622882  54.0847740  81.7666855   3.3014846  53.8539200  82.1159058
   4.0400829  54.0975380  80.8174057  40.2969780  50.1750069  86.5533981
  40.4006042  50.5995903  85.7017899  40.2335434  50.8992882  87.1759872
  79.0452042  15.6444693  12.3525114  79.4217224  16.2775879  11.7412577
  78.6716003  14.9639368  11.7925758  33.2331200   3.9501679  54.2237015
  32.8911285   3.0888982  54.4634666  32.8200798   4.5525875  54.8423462
  66.5555344  49.4920959   5.0187469  66.7183380  49.7979546   4.1264596
  67.2761154  49.8571472   5.5322914   0.3234594  55.6054878  79.2834702
   0.4081126  56.3487244  78.6862488  -0.6109207  55.3978424  79.2764893
  38.7263947  35.1844177  78.3446579  39.0204811  34.3432693  78.6942520
  38.1374435  34.9526215  77.6265793  65.5694046  54.5071907   2.0458841
  65.9346848  55.1349373   1.4224004  64.7599792  54.9165916   2.3515806
  81.9718628  11.5712767  39.5648727  82.4553146  10.7452459  39.5514755
  82.4671707  12.1481400  38.9833794  66.5803146  45.6869316  82.7227707
  65.9004059  45.9699478  83.3342056  66.6929016  44.7539787  82.9048462
  84.0445786  60.2360954  41.9134026  83.1317749  60.5204010  41.9602623
  84.0050888  59.3696632  41.5084724   8.2381544   9.5152817  24.1154232
   9.1020041   9.2966471  23.7658596   8.4171734   9.8978453  24.9743938
  63.3683472  35.1958237  21.5945683  62.6208763  35.2074127  20.9967499
  64.1050720  34.9156151  21.0514812  32.3458290  55.2277260  73.9038010
  31.5470982  55.5463448  74.3242111  32.7548790  56.0131187  73.5403900
  61.6846275  43.2629929   0.9013978  62.3554192  43.9449043   0.8657799
  61.5414047  43.1165161   1.8364184  75.1800003  31.5269279  43.1144600
  75.4860840  32.3699875  43.4488182  74.3115921  31.4167004  43.5016861
  30.8527031  51.0444221  45.1227684  31.6233273  50.5003662  45.2851601
  30.8201561  51.1354637  44.1704636  50.8544617  33.1079750  83.4393539
  51.0381088  33.2776566  82.5153885  49.9237366  32.8855209  83.4616318
   5.4593534  13.6797161  56.6484032   5.7444248  13.6414385  55.7354393
   5.5443559  14.6027021  56.8873634  85.3698120   6.2690606  70.2865982
  84.4618073   6.5702209  70.2540131  85.5327606   6.0994821  71.2144547
  21.4571934   1.7641792  52.6120796  21.7372952   1.8581744  51.7016182
  21.9955044   1.0512675  52.9558945  35.0825195  70.9821930  74.7462616
  34.9437866  71.9245148  74.6513596  35.4615898  70.7105179  73.9103622
  35.0295792  38.4654655  76.7389832  34.7454338  38.6364670  77.6368942
  34.4468346  37.7711449  76.4314728  19.4955311  63.8533363  39.5815582
  20.1140766  63.4530411  40.1926193  19.9597111  64.6157990  39.2359772
  28.8651104  24.0186768  16.6878662  28.2122993  24.6654396  16.4199657
  29.6602116  24.2726593  16.2193165  25.5606976  16.4100418  49.5282860
  25.8626747  17.2561893  49.1980247  24.6748409  16.3183117  49.1774673
  74.8615494  66.2098541  36.1590652  74.7160645  65.7704239  36.9968987
  74.6750793  65.5396729  35.5015526  30.1840534  22.7222214   6.4929724
  29.4983406  23.2013054   6.0276675  30.2579594  21.8921318   6.0220985
  42.9457588  69.1656036  78.6382065  42.4645653  68.6123352  79.2534943
  42.6529503  68.8743362  77.7746964  69.0913467  51.5349884  17.5422001
  68.7742157  51.0728226  16.7662716  69.6766510  50.9103279  17.9705086
  79.0324020  67.1997528  16.3511410  79.8330154  66.6830826  16.2600117
  79.3219223  68.1077805  16.2623482  34.9845238   7.6474152  75.7336960
  35.7715416   7.4387937  76.2369995  34.2848740   7.1622620  76.1711349
  23.1920261  67.0154266  17.2778130  22.6794357  66.3234634  16.8598824
  22.5377522  67.6045837  17.6533813  23.1144314  66.8557968  72.3329010
  22.6260471  67.1952438  71.5829086  23.2189407  67.6106262  72.9121628
  61.1453094  16.9921150   6.5923333  61.5538940  16.3304424   6.0342288
  60.2537193  17.0736446   6.2537332  22.3200245  41.2977448   2.9642615
  21.5847855  40.7182655   3.1639075  21.9356194  42.0006332   2.4404178
  70.5514526   5.6542864  38.6999130  71.3633881   5.1886883  38.4993744
  69.8574905   5.0522008  38.4313278  69.6843796  45.4851723  10.3131208
  70.4983978  45.8321724  10.6780853  69.9625778  44.7592926   9.7546110
  32.5788078  40.2434921  85.8405533  31.8937092  40.7856750  86.2315903
  33.2974968  40.8521461  85.6694946  58.7188759  48.1216698  85.4995956
  58.4207191  47.4511185  86.1141663  59.6727448  48.1120071  85.5787735
  35.4656258  61.4825096   7.4746137  34.7120018  61.5548782   8.0603132
  35.1856041  60.8647308   6.7992086  85.1242142  40.1611252  21.9107132
  85.1306534  39.8496819  22.8158073  85.9858627  40.5596809  21.7884293
  81.0917358  21.2281246  62.6835632  80.1545715  21.1381073  62.5107994
  81.4963760  21.2272148  61.8160934  56.2891045  30.9895992  75.0604553
  55.7189941  31.7519283  74.9601669  56.6289749  30.8272705  74.1804733
  51.5607338   8.7373028  42.4834747  52.2617607   9.2952137  42.1465340
  50.8570061   9.3461218  42.7078285  19.6001873   1.3047506  85.3964996
  19.6305294   0.3722025  85.1828079  20.4967670   1.5210837  85.6525803
  47.4220200  49.3557587  45.0545425  47.5657768  49.8635216  44.2559547
  46.8179817  48.6614075  44.7914047  60.2313652  54.6626663  24.3038731
  60.0246010  54.1507759  23.5219231  60.0891228  54.0569038  25.0312290
  25.4562912   1.2730476   2.9442921  25.8902111   1.3163458   2.0921936
  24.5231342   1.3387650   2.7414887   1.7137645  27.2284641  49.4218979
   1.7721912  27.3956184  50.3625793   2.2773359  26.4682083  49.2782707
  39.1720657  42.2765083   9.5313292  39.6379395  41.8886185   8.7905636
  39.6799393  43.0574799   9.7512836  17.0363617   0.7926464  35.4269218
  17.3987675   1.0075912  34.5674515  16.4974804   1.5499064  35.6558266
   5.6983089   2.3004363  80.5187454   5.0359569   1.6666845  80.7942123
   6.2026911   2.4799333  81.3122253  42.0601349  31.2408581   5.9464951
  42.6734962  31.4001694   5.2291112  41.1984177  31.4154396   5.5680785
  79.6214218   0.5258445  10.7806902  80.2116928  -0.0997147  10.3605814
  78.9622192  -0.0186760  11.2110176  16.0879974  58.4527168  79.2971115
  15.1577616  58.6741905  79.3400345  16.1065731  57.5647507  78.9401779
  15.8037729  21.7843361  61.5550117  16.4574394  21.4410877  60.9458046
  16.2633591  21.8405781  62.3927765  82.6263275  58.3069229  34.4933128
  81.8772202  57.8853416  34.9144287  82.7351303  59.1311874  34.9676361
  15.0350122  17.4100018   1.1115922  15.7072849  17.1629524   1.7466100
  14.2188168  17.4021473   1.6115861  42.7396011   7.3844957  42.5685425
  42.4134865   7.7408504  41.7421684  41.9556351   7.0736108  43.0212898
  72.0874252  39.8313637   0.1861917  71.2497559  39.8983917   0.6445119
  72.7275620  39.6705971   0.8794524  17.5949955   5.8151083  79.5365067
  18.2049313   6.4400821  79.9284515  17.9641895   5.6294255  78.6731186
  30.2887268  69.1215286  28.9005070  30.4194756  69.9552689  28.4488239
  29.8285809  69.3554230  29.7066040  57.8286552  17.3791924  25.7145119
  58.6231041  17.7621021  26.0866241  57.1152878  17.8942184  26.0914536
  60.6639099   6.9746947  24.5203171  60.4839706   6.1110415  24.8917408
  60.0592842   7.5614781  24.9745712  74.3028107  44.5791283  64.2588272
  74.0606995  44.4387360  65.1742020  75.2188721  44.8546333  64.2929230
  80.2683334  38.3227959  58.4047813  80.3652267  37.4617424  57.9980507
  81.0700684  38.4383545  58.9147873  27.5058670  49.0889702  12.8180180
  28.0688934  49.1008797  12.0440073  27.5196648  49.9909515  13.1381292
  52.5560608  36.7405434  82.7937164  52.4352989  37.0827484  83.6794662
  51.8956680  37.1938820  82.2696991   0.3139583  39.5638123  88.1141281
   0.1000525  40.0887299  88.8854523   1.2707134  39.5592918  88.0853043
  61.3358078  21.7955761  17.3644238  61.6714706  21.0424519  16.8782501
  61.6711807  22.5560093  16.8895569  30.2561512   9.1484184  48.0989151
  30.8981094   9.0968533  47.3907776  30.5560970   9.8777304  48.6414719
  58.0885773  45.7484093  80.9703979  57.8617630  45.5670700  80.0583115
  57.8907890  46.6777687  81.0861664   3.1812918  51.1574783  88.8653641
   3.3683686  51.0616951  87.9315262   3.4057720  52.0668488  89.0625687
   0.6433856  37.3804817  25.0096874   0.7685427  37.0957222  25.9149380
   0.5139197  36.5688667  24.5190239  83.3483276  11.2117624  67.8327942
  83.4399261  10.3331795  67.4641037  82.9059830  11.0750217  68.6705704
  57.1650047  21.8881607  82.5760651  56.6673393  22.3289452  83.2647400
  56.8803139  20.9754143  82.6216431  83.2524414   5.8637600  32.2826920
  83.9806213   5.8602509  32.9039612  82.5655746   6.3655853  32.7215729
   4.1932507  70.5405045  37.9641800   3.8834894  69.7151489  38.3370895
   4.8793511  70.8320541  38.5645943  33.2232857  27.9981766  26.4623871
  32.8974533  27.8447857  25.5755177  32.9321480  27.2340813  26.9600105
  57.1333389  34.1282120  78.7088089  57.5375557  34.4416809  77.8997498
  56.6476707  33.3461838  78.4465332  65.1750107  50.5799370  25.9547901
  65.8469620  50.5366135  26.6351166  64.5748367  49.8645172  26.1650295
  19.5788860  21.1112671  79.2978516  19.1008816  21.6957893  78.7095642
  19.1574001  21.2308865  80.1488876  35.2105217  55.6645203  36.9518890
  34.5782089  56.1782875  36.4494400  35.6399918  56.3033028  37.5208740
  72.5465393  10.5923967  71.7477798  71.6004028  10.7345181  71.7185669
  72.7044754  10.2079506  72.6100388  76.1078644  28.0030327  49.0941391
  75.5106201  28.4502182  49.6937637  76.7419739  28.6745090  48.8426208
  44.0248528   7.3814201  27.4742355  43.2003250   7.4277229  26.9902534
  43.9206696   6.6263061  28.0531826  58.7123985  11.3443470  11.9015455
  58.9239006  12.2673120  12.0416641  57.9492950  11.1864347  12.4573946
  26.1753082   3.7879417  51.7439232  26.2801723   3.0318489  51.1663780
  26.9395046   4.3352513  51.5631256  66.1656723  37.4843559   2.5109794
  65.4272461  38.0931244   2.4918337  65.9332428  36.8470650   3.1863089
  74.1286392  64.2968521  34.4105721  74.0367661  63.3564758  34.2573242
  73.2291641  64.6191635  34.4679947   5.5409818   1.3948065  20.2485714
   6.4007320   1.8153936  20.2615242   5.6977663   0.5416817  19.8438148
  27.6203594  69.6135178  63.0979195  27.3928528  68.7612915  62.7261810
  28.5760784  69.6045074  63.1503868  34.3213959  27.3808460  18.4931355
  34.3360901  28.3122425  18.2728748  33.4116554  27.1166286  18.3560314
  52.4059525  43.4285965  10.8563013  52.1821175  44.2124825  10.3546534
  53.1534348  43.6928177  11.3926678   5.8702483  39.4741745  75.6927795
   5.7492180  38.9749031  76.5004349   5.1412330  39.2055893  75.1336441
   5.2547836   5.3510747  79.5435638   4.4859142   4.8198256  79.3365707
   5.8581491   4.7429767  79.9706421  53.8975563   3.2903144  49.4708672
  53.4058037   3.5825975  50.2383194  53.2355728   2.9124510  48.8918762
  71.9906693  14.1673803   0.9589106  71.0864487  13.8548107   0.9891242
  72.1371384  14.3882408   0.0391276  34.3268433  61.7815514  88.3801193
  34.4122086  61.3691292  89.2396851  34.3752403  62.7206116  88.5591583
  26.5867271  30.5027637  81.7219009  26.4587479  30.1611671  82.6068649
  27.3530712  31.0718403  81.7933273  18.8835297  46.9730721  45.0257988
  18.1055317  46.6282425  45.4640236  19.3364773  46.1969604  44.6960716
  22.9795952   6.9633217  32.9901123  22.3330898   7.3218913  32.3820877
  23.4528904   7.7290549  33.3154945   3.6886690  38.1841660  23.6816998
   3.1416612  38.2794266  24.4614048   3.2936893  38.7729607  23.0386276
  47.1234665  55.5333405  86.5720367  47.0550690  55.0294342  87.3829803
  47.6533279  56.2950058  86.8073044  86.6629944  42.3546829  48.8701324
  86.1441727  43.1590767  48.8668556  87.5419922  42.6355743  48.6157951
  14.5154181  65.6391983  71.0281982  14.9946232  66.1646347  71.6689148
  14.8727942  64.7567062  71.1268005   9.7003336  54.0811806  29.7119007
   9.9159374  53.1614838  29.5572872  10.1046209  54.5481644  28.9806633
  82.9620285  12.7623177  65.7931824  82.0496445  12.5898619  65.5607224
  83.1009674  12.2678661  66.6009216  58.4601288  16.4543171  29.5971680
  59.2120438  16.6725502  30.1478310  57.7876129  16.1649799  30.2138004
  36.5911713   8.7056913   1.9772559  37.4414597   8.3907671   2.2839537
  36.3218994   9.3470402   2.6348240  86.1366272  63.7415466  82.3821716
  86.0960922  63.5467415  83.3184586  85.3565063  63.3242989  82.0167236
  46.3228531   5.8359485  56.4037971  46.4893990   5.5687294  55.4998703
  45.3687668   5.8383193  56.4809380  78.2893829  67.9794693  72.6264114
  77.3739395  67.8815308  72.3645020  78.2946014  68.7488632  73.1958237
  10.6181259  67.6526337  29.5159016  11.0089645  67.1278763  28.8172531
  10.8524885  67.1916656  30.3213902  55.1749992  40.9954872  58.7796059
  54.6294708  41.5787697  58.2519569  55.3894386  41.5080795  59.5590286
  79.4198685  38.1426888  35.0676765  79.0104141  37.7494202  34.2970161
  80.2843857  38.4198990  34.7643738  56.2729492  54.5031738  81.3965149
  56.8167915  54.8187828  82.1182175  56.8886719  54.0735931  80.8027267
  17.0203915  13.5045109  47.2915344  17.4406185  14.0110073  46.5964775
  16.6728821  14.1640720  47.8919067  53.4885941   2.1632700  78.2769623
  53.9617958   2.0339589  79.0989075  53.0832405   1.3148226  78.0979233
  34.5243454  30.1084194  17.9351845  34.3204727  30.6826572  18.6733685
  34.4530678  30.6731472  17.1656170  76.0963669  52.7284088  63.8471375
  75.3598785  52.1834297  64.1242905  75.7317352  53.6114044  63.7872543
  37.9895592   6.2559977  44.1897926  37.8356628   5.8722024  45.0530739
  37.6097221   7.1327882  44.2463150  49.3016586  11.2568903  87.3772659
  49.5405121  12.0938721  86.9789734  49.7169991  11.2747498  88.2394791
  39.7393532  65.8965683  47.2176437  38.8236313  65.8989639  46.9389420
  39.6987038  65.8683243  48.1735649  59.2982559  11.9046392  53.5067673
  59.0554237  12.6123180  54.1038055  59.2043533  11.1079245  54.0289345
  79.5746231  24.2367859  76.3545074  79.0833588  23.4804573  76.0337906
  79.7139053  24.7787514  75.5779114  19.0127525   3.1719165  42.3507309
  18.1609974   3.6082525  42.3318748  19.2028656   3.0578492  43.2819023
  62.1293983  32.8979836  40.3133011  61.2245827  33.1868324  40.1945152
  62.3575783  32.4780006  39.4839745  75.2065048  55.8894424  69.9542236
  74.4785767  55.4685860  69.4968109  74.7971878  56.5895691  70.4626617
  53.2098846  10.1551924  33.3769035  53.0719757  11.0929956  33.5100861
  52.8314667   9.9773588  32.5158539  61.3648300  68.1137619  84.5954742
  61.8396530  68.9253769  84.7745361  61.5329170  67.9371643  83.6698456
  82.2195587  61.5303268  27.2181969  81.9712524  61.3304596  28.1207638
  82.9200974  60.9090881  27.0193405  64.6206589  19.0193348  31.5209370
  63.8382645  19.1108913  32.0647240  64.2867966  18.7564831  30.6632233
  37.5486107  29.8547745  78.2154999  38.0362816  29.9341564  77.3956833
  38.1895905  29.5231934  78.8443298  68.4932404  33.3809280   8.5653172
  68.4913101  34.1631927   8.0136967  67.5903015  33.0646210   8.5355301
  19.7204018  25.0361938  80.1070709  19.2763290  25.7648506  80.5407639
  19.1180592  24.2982864  80.2014618  67.5930023  69.1382523   2.3178184
  68.4919357  68.8103485   2.3428266  67.5914536  69.7789307   1.6066507
  29.8638878  46.7481003  58.1101418  30.5623913  46.1199341  58.2938118
  29.7342110  47.2109032  58.9379272  73.6018143  41.8708801  70.1978226
  73.2680588  42.2166328  69.3699951  72.8372269  41.4781456  70.6190033
   0.5282241   0.3222314  61.3912849  -0.2148230   0.5427669  61.9529572
   0.1408929   0.1753995  60.5283546  42.0873108  61.8892670  64.7740479
  42.4606094  62.2446938  63.9674797  42.6357346  62.2496262  65.4709091
  84.6635208  59.4280396   5.5714612  84.4641953  60.3483429   5.3995872
  84.5624924  59.3339386   6.5186520  31.7129173  67.6088715  10.6731243
  30.7997971  67.3650284  10.8247404  32.1559105  67.4018250  11.4959974
  79.1634064  22.4886246   8.9085627  79.7893295  22.9894428   9.4316635
  78.3175888  22.8983421   9.0900984  21.2498245  46.1071167  38.9670296
  20.6764183  45.3417015  39.0066986  20.8689842  46.7243195  39.5917320
  56.3203812  51.4258575  80.4510193  56.5922813  51.3034363  81.3605804
  57.0030785  51.9775009  80.0691223  47.0259514  50.0638161  13.0281687
  47.0831490  50.2249413  12.0863628  46.6502686  50.8680458  13.3863688
  64.3554230   1.1078048  23.7200832  63.5745010   0.5560514  23.7643185
  64.0204926   1.9810224  23.5162582  49.9498749   9.5214987  67.0787048
  49.4824333  10.0303640  66.4162979  50.8739967   9.7151146  66.9214172
  32.3680420  48.0624504  83.9453888  31.4596882  47.7650070  83.8938828
  32.3062592  48.9706917  84.2412109  70.2847900  37.9319344  84.5574341
  70.2106552  37.9261856  83.6031265  71.1201324  38.3662148  84.7301636
  67.3000183  67.4063721  31.3336449  66.9248123  66.5386047  31.4833965
  67.7068405  67.6387100  32.1683578  14.5335407  15.5128078  57.0309067
  13.7599277  15.1596737  57.4702835  15.1295271  14.7672243  56.9592400
  85.6151123  -0.2063774  65.8639526  86.5557251  -0.0776980  65.9860840
  85.2888947   0.6522446  65.5945358  33.2576027  47.5204315  59.3929710
  34.0118866  47.3630447  59.9608803  32.8541451  46.6589813  59.2864037
   9.0227671  42.4286957  43.5435066   9.2348242  41.5070305  43.3958664
   8.2993965  42.4106331  44.1701164  52.2097588  26.7624359  27.1267529
  52.5160408  25.8953114  27.3922997  52.9106178  27.3565731  27.3951378
  17.3084583  68.7304153  64.6038666  17.9817333  68.3534164  64.0374680
  17.3024597  69.6614761  64.3817749  69.1252289  13.5272188   1.6521627
  68.6141510  14.2788048   1.3519036  68.7466736  12.7798204   1.1892128
  84.9925690  13.4545555  35.7422142  84.3130646  14.0674601  35.4614029
  84.7220688  12.6126919  35.3757019  59.6213455  32.0059662  74.5909958
  59.5641823  32.2793198  73.6754379  59.0224800  32.5920029  75.0537643
  63.2993698  58.1334419  86.6757202  62.4649849  57.6987419  86.8520050
  63.8743553  57.4325790  86.3684464  50.9726334  65.4609833  29.5394211
  51.8357582  65.0557022  29.4558182  50.3714371  64.7240143  29.6474590
  71.3769989  45.8737755   6.1002698  71.4728470  46.7513962   6.4701672
  72.0841599  45.8056831   5.4587774  72.2200241  46.9999466  51.8100777
  72.8142700  47.2949333  51.1200867  71.3600464  47.3212242  51.5390549
  86.1906509  11.7831774  12.2473621  87.0257874  11.4835739  11.8881855
  86.3940659  12.6238441  12.6574020  32.3630867  51.3889275  84.8816986
  31.8599110  51.9480820  84.2897568  33.2412376  51.3666077  84.5014496
  42.5275536  16.5244045   7.4797668  42.7268219  15.7257557   6.9912138
  41.8136063  16.2745113   8.0663366  38.8032188  59.8239708  19.1992989
  38.4370651  59.6264915  18.3372288  39.5886917  59.2798882  19.2562561
   3.0727332  58.1966972  71.3879318   3.2341158  58.5425797  72.2657471
   2.4369786  57.4935455  71.5207062  13.1194725  28.8489933  15.8142605
  13.5025034  29.5775070  15.3256016  12.7964802  28.2516308  15.1396742
  15.3265877  62.5300636  35.0457954  14.8316469  62.6275330  34.2323036
  16.2391663  62.4643745  34.7645226  60.3706741  18.3730068  45.7709274
  59.7250366  17.8202095  46.2111549  60.0474701  19.2651997  45.8964691
   6.9914927  56.5700073  12.2923985   6.2292624  56.2986069  11.7809496
   6.7688942  56.3399467  13.1944818  67.6857758  39.5471992  66.4565125
  67.2773285  38.9955215  67.1236267  67.8201065  40.3892441  66.8914261
   8.5011320  53.2897873   0.7076066   9.4314785  53.4974289   0.7946228
   8.2501936  52.9500427   1.5665801  26.5729828  34.1843605   0.1117403
  26.5226307  35.0398026   0.5382549  27.5104713  34.0285339  -0.0025674
  12.4844170   4.4768085  54.5560150  13.3021555   4.2808142  54.0987167
  12.7589159   4.9242191  55.3564529  55.4443092  57.9202576   6.9020400
  55.4853172  58.8741417   6.8338351  55.8864212  57.6045570   6.1139383
  53.3311348  49.2660294  23.0156040  53.0718307  48.3873177  22.7383766
  54.1749344  49.1409340  23.4498615  33.8098297   6.3141880  15.6124573
  34.6167717   6.6604843  15.9934464  33.4988976   7.0116520  15.0353117
  54.3230553  34.9118118   0.0893829  53.9496651  35.7719498  -0.1029033
  53.5670090  34.3645821   0.3019218  37.7669220  64.2118149  33.5349464
  37.9481430  63.4438820  32.9930305  38.4685059  64.8268509  33.3210716
  61.8602371  62.3898087  46.0305138  61.5086479  61.6911583  46.5823326
  62.6964417  62.0475540  45.7145081  76.1621933  20.9216194  18.0149708
  75.5201111  20.3951511  17.5387383  76.9903564  20.7538395  17.5652828
  71.3809280  13.5874624  53.3517532  72.1881943  13.0753365  53.3994637
  71.4625092  14.0881033  52.5400047   6.2355733  30.6004200   0.0767643
   5.7580476  30.6266060   0.9059296   5.9589548  31.3924809  -0.3840529
  39.9919510  58.7021370  39.2297249  39.9948006  58.6170998  38.2763138
  39.0646706  58.7050667  39.4671555  27.6564522   1.9239888  63.2715950
  27.8049984   1.3344976  64.0109634  27.4086590   2.7560556  63.6747017
  17.3649464  69.5114594  26.7881088  16.7819481  68.8057709  26.5082188
  18.1995792  69.0770721  26.9639626  79.8962021  35.9397163  13.9173603
  79.8625336  36.8071365  14.3206997  80.3101425  36.0869179  13.0669403
  61.4241600   2.5082369  11.0598249  61.8040009   1.7754523  10.5750780
  60.5507622   2.2046573  11.3073092  78.4604187  13.9509506  10.3337612
  78.4668274  14.7161140   9.7586823  78.5392227  13.2043619   9.7399359
  51.7269516  64.1489334  18.8572674  51.7767563  63.2736397  19.2414665
  52.1245422  64.0535889  17.9917850  44.4876671   7.1481185  89.2878952
  44.4436455   7.9043117  88.7026901  44.4884148   6.3913741  88.7017441
   1.5204270  24.2819481   3.9963689   1.7212476  24.3807468   4.9270363
   0.9211461  23.5365219   3.9584773   2.3986027  67.9693527  61.7165527
   3.3420863  68.0789490  61.8351250   2.0129235  68.7327957  62.1462517
  43.0381660   7.1861858  61.9775391  43.6136017   7.9324775  62.1453362
  43.3788452   6.4900103  62.5392418   1.4707450  10.2176838  46.3164253
   1.5593432   9.9642706  45.3976402   1.0429391  11.0735121  46.2886467
  77.6380234  11.4796591  16.3735275  77.0285187  11.5506620  15.6388884
  77.9439697  10.5731449  16.3441563  67.1965332  18.5496235  82.4560471
  66.4784317  18.9679070  82.9310226  67.0979156  18.8558979  81.5545502
  55.5421753  31.3902245  31.9413357  55.3485565  31.5168133  32.8701630
  55.7397804  32.2684860  31.6160011  71.9989319  64.1195450  49.2710342
  72.1923904  64.3905334  48.3736076  71.7827682  63.1898499  49.1991653
  85.5348892  59.4644737  81.1572876  86.0889359  60.0188408  81.7067795
  85.8784332  58.5803185  81.2856750  49.7104034   0.7642104  22.7112961
  48.8710442   1.1178179  23.0056858  49.7699318  -0.0933592  23.1323223
  39.2444458  61.7095337   5.4050202  38.6322403  62.0868034   6.0367675
  39.9547043  61.3567924   5.9410591  30.9919796  45.9572372  87.3448944
  31.9465523  45.9016266  87.3009720  30.7101345  45.0690460  87.5637665
  35.9155235  50.0420761   1.2941043  36.1553383  49.7912636   0.4020199
  36.3044777  50.9087029   1.4120055  78.9236832  16.9935379  64.6208344
  78.3721390  17.7535362  64.4352570  79.6470413  17.3437824  65.1407471
  86.7076721  28.8832397  28.1939697  85.7719040  28.7502422  28.0427074
  86.7972794  28.8927021  29.1469193  17.5614357  43.4224281  33.3994102
  17.3528843  42.5216370  33.6470222  18.4924622  43.4005775  33.1781807
  77.6431656  58.6161957  81.8257370  77.8437958  59.5375099  81.6609116
  78.0882721  58.4178162  82.6496048  57.2927170  40.4156265  78.4547882
  57.4354515  40.8807106  77.6304321  56.6414108  40.9427834  78.9175339
  86.1910324  67.7485352  84.1703339  86.4418106  68.5388794  84.6485672
  86.3144379  67.0382690  84.8000412  78.2704544  28.6193905  51.1012039
  78.0101852  28.1126328  51.8704147  78.9234772  28.0728569  50.6640587
  86.2275772  25.4610710  69.0261841  86.9538269  25.6718102  68.4393387
  85.7108917  24.8145542  68.5452576  82.1910019  62.9808540  77.7993240
  82.8254395  62.9845467  77.0825882  81.9429855  62.0613022  77.8949127
  44.7227287  66.2470245  54.8480873  44.5342407  66.6063995  55.7150116
  44.8146477  65.3054733  54.9939346   7.0672917  49.2529488  10.1915188
   7.0242949  49.5240135   9.2745085   6.8645396  50.0471802  10.6858053
  38.1206589  20.8717995  74.7346725  37.4525795  21.4537106  74.3723450
  38.6719589  20.6445332  73.9859085  43.6908913  49.1670570  69.9827576
  42.9827843  49.0438271  69.3505936  44.4212341  48.6616249  69.6258698
  37.7808571  59.9952736  76.4372406  38.5333748  60.5866928  76.4502945
  37.0226288  60.5700912  76.5416870  16.4033775  57.6537476  51.8185310
  16.4172745  56.9222260  51.2013474  15.9422235  57.3120804  52.5845795
  81.0317612  58.8571320  56.1735344  80.4399567  58.2975807  55.6706352
  81.0846024  58.4386902  57.0328026  83.0888824  65.0884705  37.4642067
  82.8623505  64.7161484  36.6119766  84.0065765  65.3461914  37.3766975
  33.4442558  42.1973572  71.0370789  34.3151093  42.4293671  71.3595963
  33.5393982  41.3014259  70.7138443  28.5226517  54.1171761  62.3301163
  28.2368603  54.6443291  61.5840149  29.4774494  54.1840019  62.3188782
  54.9587212  35.3610992  19.7557812  54.3071136  34.6713448  19.6297817
  54.4429550  36.1563530  19.8891678  31.7589321  25.7257652  -0.0049179
  30.8242359  25.5567551  -0.1232794  31.7947502  26.5723267   0.4403742
   5.9403090  27.0685673  35.2029152   5.1372862  26.6612415  34.8781509
   6.6149726  26.4012032  35.0776672   1.1934595   8.8425703   4.2077632
   1.0524199   9.7770948   4.0560975   0.3760881   8.5378389   4.6018128
  46.4480934  11.4641457  71.9081192  46.5093422  10.9471436  72.7113571
  45.5102959  11.5056276  71.7209015  16.4212456   6.2027469  74.0995636
  15.4844265   6.3505821  73.9701538  16.6257877   6.6614432  74.9144211
  52.3139534  23.2680931  82.6266403  51.3731880  23.3774223  82.7653580
  52.4110146  23.2125473  81.6759949  27.2736015  71.5636597  61.2289543
  27.1621532  72.2986832  61.8319016  27.3846779  70.8019180  61.7978516
  47.0599632  13.3841972  78.6344604  47.7856293  13.0586605  79.1670609
  46.5318680  13.9034195  79.2408829  33.4483109  52.0390167  38.5273514
  33.5887604  52.5413589  37.7247581  32.6166916  52.3649406  38.8714714
  12.6458311  26.9231472  13.5230780  12.3951778  26.0563545  13.2035856
  12.3511705  27.5248356  12.8394270  42.3440933  11.5693684  16.6131058
  41.4683990  11.2571812  16.3852348  42.6838150  11.9440088  15.8004150
  71.1447372  43.4585419  70.8949356  70.3254471  43.9491234  70.8291779
  71.3826141  43.5125580  71.8205338  20.9350967  31.0883465  87.8088074
  21.0869713  31.8566132  88.3591995  21.5120029  30.4161015  88.1714325
   1.7130706  51.3091621  19.4517555   1.0294787  51.8713913  19.8162155
   1.5535940  51.3192749  18.5079880  85.0041962  68.4599838  44.4599228
  85.0167465  68.3468704  45.4103317  84.1342392  68.1615601  44.1946754
  64.0607910  16.2856216  76.5685577  63.3862343  15.9805174  75.9618301
  64.7008362  16.7290554  76.0118332  67.9053421  23.4581795  29.5303288
  67.3427353  22.7230892  29.7739582  67.5155869  24.2139874  29.9697361
  33.2347870   4.6481891  20.9070072  33.2471542   5.2138262  21.6791058
  34.0616531   4.1677904  20.9487724  37.9742012  62.0470886  14.6586332
  38.8866005  62.3355064  14.6827068  37.5599480  62.5014381  15.3922482
  35.9445839  52.7567101  57.7066193  36.2136841  53.4176292  58.3445854
  35.0747604  52.4830093  57.9976997   4.4150748   3.5190604  40.3787003
   3.6210265   3.6840377  40.8871307   4.3705869   4.1444139  39.6553841
  13.0544338   3.4173551  16.5368366  12.8473883   4.2934728  16.2115955
  12.5646219   2.8272762  15.9640160   1.7469174  11.8656950  30.4343433
   2.6379147  11.7060719  30.1230946   1.8528475  12.4847546  31.1566849
  29.7646160  42.9183769  28.5485897  29.5640469  43.7803726  28.9132404
  30.4796753  43.0792389  27.9329205  22.0649891  28.5735760  86.3868713
  22.8483162  28.0512371  86.2142563  22.0580025  29.2316875  85.6918335
  42.2096558   3.8224778  24.1820335  42.4253845   4.0030212  25.0969639
  42.8800850   4.2875819  23.6816006  85.3637772  55.3902931   9.8591709
  85.5760040  55.8465233  10.6734467  85.4905853  56.0484505   9.1758108
  52.8050117  43.8078728  63.7809563  52.3010750  43.3822975  63.0872955
  52.9317245  43.1242294  64.4388351  68.5350876  33.5474129  21.1012325
  69.3860168  33.8309975  21.4354897  68.0293579  33.3326302  21.8850288
  63.1596909   3.1793866  73.6775894  62.2466087   2.9106138  73.7789383
  63.6240311   2.7183304  74.3761902  46.3475227  69.7996750   1.7345027
  45.7589493  70.3289566   2.2727184  46.8124619  70.4360046   1.1912205
  83.1874619  57.0430679  86.3066406  84.0656662  57.3122368  86.0373306
  82.8535156  56.5386734  85.5648193  27.4755726  37.1179276  84.1097031
  26.9519806  37.4314804  84.8471069  26.8678398  37.1110306  83.3702164
  50.0771484  44.6523170  22.8313198  50.0913544  44.2018585  21.9868584
  50.8854103  45.1649704  22.8429375  39.8755074  55.9303894  32.4233170
  39.2205811  56.5321503  32.0694962  40.4468307  55.7345657  31.6807060
  21.8874798   3.5214632  48.1800308  21.8717155   4.1555777  47.4631767
  22.5393181   3.8661304  48.7903976  17.3062534  38.7918358  69.4235229
  17.5229282  37.9350128  69.0559082  16.8985767  38.5945091  70.2667847
  10.7496634  31.5177765  37.1739426  10.7554274  30.8071938  36.5326385
   9.8519154  31.8493729  37.1559448  21.5255394   9.1525784  54.6124344
  22.1333618   9.3441286  53.8982277  22.0886497   8.9926720  55.3697777
  52.7181358  51.7380295  13.3772039  53.3655014  52.2979469  12.9486685
  52.0622177  51.5692520  12.7008057  30.9482670   6.4352956  32.3877602
  30.3272762   7.0243373  31.9592400  31.3651257   6.9745021  33.0598602
  46.8415489   3.5841610  75.7471008  47.7527771   3.4292486  75.4982986
  46.3358421   3.0048110  75.1771469   3.1022151  30.6358128   9.3762693
   2.4047928  30.4036865   9.9894180   3.6857347  29.8770447   9.3788280
  36.1056023  10.6921835   3.9599311  35.1773338  10.7814608   3.7441142
  36.3116417  11.4805756   4.4621449  41.3435364  16.3234138  26.9721241
  40.8430595  17.0032616  26.5209465  40.6796722  15.7258043  27.3161774
  66.8552780  55.0577583  43.2531815  66.3288116  54.3054237  43.5234795
  67.7259750  54.8812065  43.6094742  61.2923889  52.7114601  74.5181427
  62.1270676  52.2649422  74.6601486  61.4955330  53.4050331  73.8905106
  60.0843430  63.7412643  32.1943398  60.9973221  63.4970207  32.3461609
  59.6001816  62.9193497  32.2735176  22.4635468  52.8500519  38.2345314
  22.3540115  53.0851669  37.3131447  21.5703506  52.7548714  38.5652466
   1.6810827   8.5536547  82.5544662   2.2233427   7.8293886  82.8669205
   2.3040786   9.2557802  82.3670425  36.4901772  45.8343010  26.0949860
  35.6022911  45.5363579  26.2927723  36.3855934  46.4151993  25.3414268
  67.6165009  23.1845055  42.8357086  67.5340271  22.8046646  41.9609795
  66.8084564  22.9332275  43.2831001  53.6650963   0.4761411  47.2232704
  54.5741501   0.7566224  47.1175270  53.1478004   1.2453125  46.9844894
  54.7394905  45.9171562  30.3771591  55.4756813  46.4015388  30.7508202
  54.9375076  44.9993362  30.5632610   5.4304733  61.5744591  43.8422012
   5.1964393  62.1042252  43.0800934   6.3822613  61.4871941  43.7900848
  68.8930969  69.0656433  66.6930084  69.7801514  69.1694565  67.0373688
  69.0193558  68.7990570  65.7823868  54.0195312  15.9772472  15.9870405
  53.4747887  15.2146740  16.1818981  54.8709335  15.7678194  16.3710747
  24.0207653  48.6305885  84.4656219  24.2784348  49.4868889  84.1241684
  24.8404980  48.1399574  84.5252228  34.3453140   7.4738212  80.8387070
  35.1162300   7.8381100  81.2736969  34.4241829   7.7630534  79.9296646
  36.4128036   8.0543060  36.4383621  36.2642708   8.9781647  36.6399918
  37.1199646   7.7912855  37.0274086  37.1407585  23.7447147   1.1681538
  36.9408989  22.9834805   0.6233501  37.5575981  23.3782959   1.9480346
  85.4886246  35.4045715  41.6559067  85.3341980  36.0744743  40.9898682
  84.6218262  35.0397148  41.8341293  68.2747726  29.4160938  34.8916550
  68.6569977  29.3780327  35.7684021  68.2564545  30.3491154  34.6786575
   0.7364738   5.6473169  42.0953178   1.0339667   4.7431316  41.9944305
   1.1168218   5.9333429  42.9258347   7.1012287  23.9037743   8.5242071
   8.0258579  24.1318378   8.6205387   6.8186069  23.6708069   9.4085617
  15.0250092  32.2594681  83.2678757  15.3523655  31.5819893  82.6761856
  15.6976042  32.3313751  83.9451294  56.2957649  56.9857750  79.7878876
  56.2295380  56.4809952  78.9773102  55.8141022  56.4676781  80.4327240
  76.6908188  29.6323204  27.9877472  76.9167175  30.3857765  27.4423084
  77.4986877  29.4262409  28.4579792  13.8708687  37.9811172  52.4795189
  13.7607088  38.8322563  52.9033737  14.7965174  37.7704849  52.6021652
  33.1728592  29.8692722  74.1116486  33.7397385  30.5960598  73.8534698
  33.5353699  29.5668736  74.9443436  57.8873787  55.1370811  40.0816994
  57.2293854  54.4706459  40.2795372  57.5143318  55.6330795  39.3529663
  54.9974976   4.5783405  53.5711327  54.3520317   3.8716345  53.5841980
  54.7041931   5.1832333  54.2525368  74.8265457  46.4600372  46.9630585
  75.1647110  47.2541580  46.5492363  75.4284592  45.7698631  46.6845055
  67.2972107  48.3434296  20.8722076  66.5978088  47.7690010  21.1838188
  68.0511093  47.7642250  20.7608795  10.2990093  41.7574844  20.7153912
  10.3703461  42.5608788  21.2308540  10.1980848  41.0632553  21.3666115
  80.5499039   2.7186377   2.7560341  81.1684494   2.8284888   2.0338359
  80.8107529   1.8969008   3.1718957  25.1337509  22.6832676  83.9463425
  25.3726978  22.7503796  83.0218811  25.3769131  21.7907639  84.1923904
  35.1482239   6.9943423   0.5123796  35.5708275   7.6368093   1.0823562
  35.3580132   6.1484084   0.9081286  25.0769577  54.4028397  87.6877060
  25.2897625  54.3181229  88.6170959  24.9474735  53.5028267  87.3886337
  82.8839111  67.7805252   1.4430946  83.4751434  67.1413956   1.0453625
  83.4409485  68.5347900   1.6355076  55.4822502  61.0077515  27.9157372
  54.6852837  61.1795616  28.4172916  55.5228043  60.0536804  27.8499050
  48.3092613  30.5749760  86.3938904  47.7785835  30.4891567  87.1858826
  49.0825157  31.0638523  86.6755219  38.1685066  51.8903809  63.7041969
  38.3785553  51.6621895  62.7986336  38.4591064  52.7977562  63.7961235
  22.5925102  59.9108086  31.5885239  23.4107361  59.5157509  31.8896408
  22.8233700  60.3422127  30.7658291   2.5584135   0.8321565  17.0363331
   2.0584157   0.2809976  17.6383781   2.6686358   1.6596671  17.5046368
  37.2788620  65.9430923  45.8255577  36.5399323  65.8617554  46.4285469
  36.9271507  65.6716003  44.9777222  45.5225449  54.1083107  51.1432953
  45.5534210  53.1819077  51.3821487  45.6875763  54.1182022  50.2004814
   2.1088662  28.2334118  51.7746086   2.8684621  27.7652454  52.1211128
   1.4486685  28.1622105  52.4640274  46.4212875   3.1881070  82.7491760
  45.7323837   3.3505046  83.3935928  46.3240623   2.2632163  82.5225525
  77.8189163  40.9651070  74.3640289  78.7467422  40.7661362  74.2384186
  77.8121796  41.6950722  74.9831696  46.6371994   7.7903080  51.9503136
  46.4574699   8.5636492  51.4156418  47.1968155   7.2430091  51.3993797
  61.3815842  58.3449364  47.1606064  61.9652443  57.9932518  46.4883766
  61.9686279  58.7458229  47.8016205   8.1184597   1.2132727   8.2949276
   8.3862619   0.7724872   9.1012907   7.3583183   0.7168232   7.9916883
  18.8103809  56.7802849  81.0637512  19.0071106  57.5729294  80.5645065
  19.5178318  56.7197876  81.7056885  55.6992722   1.1696411  76.3900986
  55.2175865   1.6612970  77.0552902  55.0466576   0.9733778  75.7179337
   4.4103627  29.7999954  71.0870132   5.3206120  29.5326805  70.9596558
   3.9998920  29.0526619  71.5220337   1.8832457  22.6185932  80.8728790
   2.6818376  22.7848492  80.3720398   2.0443900  21.7824211  81.3100052
  42.5315170  29.6305332  11.6924772  42.5417252  29.5037727  10.7437630
  43.2063522  29.0363560  12.0207815  65.9403992  35.5498886   4.3919253
  66.6694641  35.2336617   4.9254971  65.8585129  34.9032745   3.6909139
  54.4140663  71.5310822  18.0449924  53.9088249  72.3280182  18.2058125
  53.7749290  70.8226929  18.1218624  21.6755047  23.9010906  81.7823181
  21.9278336  24.0149784  80.8660278  21.1402588  24.6694775  81.9806366
  49.0198555  69.1396408  68.0236435  49.0974083  68.9236298  67.0943680
  48.9895897  70.0961151  68.0455017   8.1597872  20.0641994  32.5009384
   8.2856264  19.1301289  32.3338737   7.6834269  20.3826084  31.7341728
   8.4376602  70.9475403  84.7334290   8.6578150  71.5602264  84.0317307
   8.9677458  70.1720657  84.5493546  81.2592773   6.9303474  79.9206924
  81.5116577   7.8536677  79.9247818  81.0214310   6.7510896  79.0110016
  84.5496292  69.8020325  22.6653557  84.2440720  69.6868286  23.5651283
  85.1560745  70.5411911  22.7111454  65.3557968   9.0256338  48.2201347
  64.4238968   8.9037733  48.4016380  65.4168396   9.0174713  47.2649193
   2.7493026  67.8254547  51.2203217   2.6891603  67.2044525  51.9462471
   2.7336352  68.6859360  51.6393166  14.0273724  67.1895447   6.8719749
  14.8522367  67.0960388   7.3485126  13.3679781  66.8212051   7.4599872
  41.5060654   2.9017582  19.4934959  41.0689468   2.9857509  18.6460857
  41.0975494   3.5721023  20.0412064  82.2384949  17.7544651   8.8164434
  83.1521759  17.5376186   8.6309824  81.7878952  17.6271324   7.9815907
  46.6841698  33.6723976  10.9797153  47.5747261  33.5648880  11.3137522
  46.2260399  34.1527290  11.6693735  63.5121727  21.1179981  19.7196388
  62.9207153  20.8005276  19.0372734  63.8680458  21.9338646  19.3675766
  35.4598770  15.7073336  15.4494028  35.0521202  16.4472980  14.9994907
  35.4274063  15.9433031  16.3764935  11.3573322   7.3714790  32.4666672
  11.1522112   8.3043480  32.5292244  11.7055140   7.2616134  31.5818348
  15.0523653  71.8947830  28.5991974  14.6007671  71.0600891  28.7239914
  15.8395729  71.6694260  28.1034660  81.2818222  22.0084190  86.1684799
  82.0440826  21.6893921  86.6515961  80.8576279  21.2157822  85.8398056
  54.6141167  65.4644547  48.0901222  55.1995850  66.2184372  48.1606560
  55.1913910  64.7324371  47.8730202  48.9225502  14.5917225   8.9210348
  48.1119080  14.7224560   9.4129639  49.6069832  14.9460430   9.4886971
  21.9485111  51.4692535  76.6824112  21.6850433  50.6814194  76.2068787
  22.3588848  52.0236282  76.0187149  79.3275146  41.1537399   4.4377627
  79.8323593  41.9026222   4.7548394  79.2553482  40.5749130   5.1967006
  33.2779236  65.5152283  38.3501549  32.6992569  64.9425888  37.8467064
  32.9123802  65.5072479  39.2347717  44.9643173  60.2701416  53.9888725
  45.3081551  59.5842056  53.4165993  45.7361031  60.6195221  54.4344177
  45.8681564  58.8344650  82.0241699  44.9794388  58.5478287  81.8138199
  46.4247971  58.1015816  81.7609863  18.7260189   4.5571260  27.8731480
  17.7912235   4.7073255  28.0139637  19.0177975   4.1046896  28.6646004
   8.6261845  65.4682770  61.7467384   8.9131250  65.5049133  60.8342934
   9.3768559  65.7884903  62.2469215  71.0295944   5.0721188  81.0747147
  70.9574814   4.1192255  81.0196991  71.8821869   5.2246675  81.4821930
  19.8565178  59.5255775  64.8674698  20.2138615  59.9739761  64.1009979
  19.9781456  58.5950470  64.6789093  52.2787323  55.9502983   6.2801857
  53.0870323  56.4052734   6.0438027  51.6988220  56.6420784   6.5985751
   9.8937416  44.2440224  79.7518005  10.7969828  44.4041901  80.0251770
   9.9401226  43.4436378  79.2288589  72.6042557  34.9912643  73.5194855
  72.8150558  35.2129250  72.6124802  73.2364807  34.3115959  73.7530899
  13.7582102   1.4226516  52.7170563  14.5524979   1.1656522  52.2487717
  13.4026308   2.1489458  52.2049103  51.4477615   2.4592860  61.8181381
  51.5128975   1.8737210  62.5725288  52.3553734   2.6161945  61.5576630
  84.6868286  68.9608002  33.7598953  84.8354111  69.4521561  34.5678101
  85.2034760  68.1621323  33.8668404  13.8093538  54.4951706  39.4524956
  14.6679573  54.8792381  39.2749443  13.3993855  54.4165421  38.5911179
  70.6966705  25.2868824  54.2756538  70.4486465  25.1632996  55.1918678
  69.9017639  25.6137714  53.8543396  15.7668638  51.6264458  16.7782116
  16.5192451  51.0348663  16.7644768  16.1318073  52.4832611  16.5570507
  18.0847950   1.5655080  33.0774765  17.6720638   1.8557349  32.2640572
  18.8400803   1.0511177  32.7925568  35.3058319  64.4602051  27.5803623
  35.6811028  65.3371201  27.5001869  36.0068321  63.9339333  27.9648914
  70.0089569  30.7634411  54.7800941  70.2439651  30.9365883  53.8684883
  69.1042862  30.4533710  54.7394753   2.2211406  39.8074532  30.7859440
   2.5823126  40.6607628  31.0260563   1.2725300  39.9317169  30.8164196
  56.6761055  47.6060524  71.3595734  56.6331253  48.2088699  70.6172791
  55.7636719  47.4832535  71.6215363  51.9301147   4.2656097  64.4207077
  51.9533463   4.4985318  63.4925652  52.7832870   3.8654609  64.5886459
  67.9825668   3.9785872  87.2270126  67.8004379   3.6580596  86.3436508
  67.9748077   3.1926405  87.7733231  58.8380890  59.1183395  12.2426443
  59.1827698  59.9816284  12.4710112  59.0576973  59.0098686  11.3173132
  72.3644638  67.0426941   3.7531667  73.0910645  66.4404602   3.5931869
  72.1519623  66.9211807   4.6785369  35.2209129  41.7298355  86.0981369
  34.9339333  41.9057007  86.9942093  35.6521912  40.8767471  86.1478348
  63.1138649  59.3096542  49.1576996  63.3997688  58.7007294  49.8386536
  63.6698799  60.0797424  49.2762032  18.5023575  10.3593931  87.3799515
  18.3987541   9.5118666  86.9472885  17.6087971  10.6341343  87.5856247
  11.9761353  10.0706835  35.6570778  11.1321764   9.8441553  35.2663727
  11.7509375  10.5873642  36.4307442  38.3806419   2.5051160  62.1239510
  38.9229622   2.4002781  61.3422012  38.7472763   1.8854321  62.7546654
  22.6801834  64.7185211  43.2726021  22.9150753  64.9060669  42.3638191
  23.4702911  64.3309631  43.6491127  25.0336246  44.1666527  55.9915009
  25.5372295  44.9805603  55.9785767  24.5919342  44.1717529  56.8406868
  64.1881409  38.4479408  50.1314087  64.8752670  39.0986938  49.9878120
  63.4565163  38.7492981  49.5927620  51.6008606  35.6759224  69.8164139
  51.3289680  36.3233109  69.1658783  52.4832191  35.4212303  69.5465927
  58.4961281  55.6289291  69.2892075  57.7612152  55.0205803  69.3669891
  58.1643791  56.4523315  69.6472321  24.5536976  52.9899979  63.6052818
  24.6647739  52.6531982  64.4943619  24.7499599  53.9241295  63.6767654
  24.4472847  62.9823990  12.8467541  24.3957748  63.6063004  13.5708580
  23.6858768  63.1835442  12.3026667  74.1059418  55.0939713  34.7396278
  74.7799377  54.9435387  34.0768127  74.0831451  54.2823410  35.2465439
  57.2010689  57.8979149  42.1058846  56.7237587  57.0795212  42.2424011
  56.6436882  58.5688820  42.5000458  29.9103489  32.4031906   9.2151413
  30.2535534  31.5979652   8.8277740  28.9711037  32.2432861   9.3072243
  84.3187943  63.9313240  48.6759033  85.2531586  63.8825264  48.8779182
  83.8872986  63.9025154  49.5298424  66.8777847  29.6433277  23.0804653
  67.4507065  30.2083054  22.5620117  66.4632874  30.2345314  23.7088795
  66.1013794  24.9434566  14.5428181  65.3304749  25.5060520  14.4691000
  66.1414261  24.4811344  13.7056293  15.9168348  28.9025936   5.4038863
  15.2579908  28.6288624   4.7657433  15.5310020  29.6656113   5.8342004
  76.3744888  63.4305115  85.8730927  75.9374619  62.8009186  85.2996368
  76.3342743  63.0310898  86.7420425  22.2683983  56.7606621  44.1309929
  22.2556171  56.5817719  45.0712395  22.9499226  56.1834641  43.7866096
  33.1046906  45.4066620  73.8936768  32.7303238  44.5347672  73.7676544
  32.7846680  45.9147530  73.1482468  11.9306440  32.2300606  47.9780235
  11.6661549  31.4505577  48.4665451  12.1277065  32.8800201  48.6525230
  29.2967663  12.8406811  85.0885086  29.6720772  13.2355585  85.8755569
  28.6290874  12.2388725  85.4175415  77.4762573  37.0512619  80.8367844
  77.9657974  36.8311386  81.6293335  76.6294098  37.3620605  81.1569214
  52.7058449  43.7760544  19.0076618  52.5558739  43.4152298  18.1338501
  52.6426926  43.0210419  19.5926380  39.0106468  61.9993210  32.3004875
  38.5761299  61.1820488  32.5444031  39.0796585  61.9584732  31.3466530
  82.6531601  25.4878178  67.3757401  82.2582169  25.6290989  66.5153427
  82.2736206  24.6638508  67.6811218  77.3293762  12.8396006  70.9708710
  78.1873093  13.2476873  70.8540573  77.2297440  12.7587843  71.9194336
  67.7332382   3.7979243  39.6604881  67.9369278   2.8635023  39.6205025
  67.2598267   3.9047742  40.4855347  47.0613403  30.5095501  16.5656433
  46.2221909  30.9313717  16.3809147  47.3271217  30.8660030  17.4133072
  59.5244522  19.3811302  28.8830719  58.9998283  18.7391033  29.3614025
  59.7125931  18.9597073  28.0444813  80.7829514  48.4488564  70.5581741
  81.5202789  47.9987755  70.9705048  80.9232864  49.3737755  70.7608185
  15.1308594  35.5195847  62.9501495  15.6766596  35.5821991  63.7339935
  15.0545588  34.5796776  62.7858772   4.8838944  40.7692604  13.8986120
   4.1290245  41.3558617  13.9465780   4.8034482  40.2116356  14.6724424
  45.8733864   2.4131367  16.9821320  46.7700119   2.1340899  16.7965717
  45.9734154   3.1949818  17.5252209  40.9187508  65.8822861   1.3909907
  40.8660202  65.6910324   0.4545748  40.0190773  65.7916260   1.7049949
   1.2535315  60.6398964   3.8407125   0.5474069  60.0158386   3.6728690
   1.9648923  60.1068611   4.1957788  66.2457733   8.0196638  63.7893028
  67.2026672   7.9995494  63.8027306  66.0028229   7.4003735  63.1010513
  85.1804581  46.2122498  11.5201988  85.7875824  46.3321762  12.2504406
  84.6841736  47.0299683  11.4845667  23.6052704   2.4575639  28.7906971
  23.1336727   2.8274586  29.5370255  24.5296097   2.5528266  29.0203781
  75.9469376  13.5046234  73.9588776  75.3541260  14.2006292  73.6753464
  76.3418655  13.8395491  74.7639160  71.2257462  68.0677032  86.5916748
  70.3466568  67.7182999  86.4455185  71.8090057  67.4257889  86.1867218
  51.0387917  27.1086578  52.9795876  51.5712547  26.8060436  53.7152061
  51.0911331  26.3998299  52.3384514  14.2972507  24.3472366   5.5635104
  13.4384184  24.4668865   5.1581445  14.1188107  24.3361778   6.5038662
  39.7240372  43.9500122  77.1699600  39.1557426  43.8247719  76.4099731
  39.5748062  44.8580132  77.4335861  34.0682259  51.8443184  65.4878387
  33.9591293  51.8228989  66.4385605  34.4592819  52.6998787  65.3108444
  64.6742935  37.2965698  45.7789536  63.8741264  36.8768539  46.0948639
  65.1551819  37.5247955  46.5744972  57.0862083  59.0175896  14.1402569
  56.3503685  58.8338203  13.5563030  57.8562698  58.7189102  13.6564970
  48.7633629  71.3788376   2.8235474  49.4773979  71.9626617   3.0795534
  48.9134941  70.5805130   3.3298712   7.1967697  30.8462715  77.4283142
   7.1787896  29.8893070  77.4170227   7.2655354  31.0954247  76.5066757
   6.3993955  61.9435005  59.9609985   6.2224069  62.7573853  59.4893036
   6.8801041  62.2187729  60.7416267  72.0315247  16.2475185  38.4441643
  71.6865540  15.9791212  39.2957420  71.3193970  16.7462025  38.0436363
  23.2301826  25.9847717  70.7692947  23.3801250  25.0462685  70.8831406
  24.0992031  26.3469276  70.5964355  33.7376175  10.2681637  11.9013081
  33.9201279  11.0162487  12.4698944  32.9498215  10.5201015  11.4194994
  80.8456345  25.7656612  44.4772911  81.5335541  26.3096542  44.0937920
  80.7336960  25.0470505  43.8549538   0.2595052  62.9617081  49.4731674
   0.8007472  63.6905212  49.1696548   0.6173165  62.7393608  50.3326836
  69.3163757  30.6682854  21.9694939  70.0624313  30.1285419  22.2308483
  69.5106812  31.5347157  22.3269501  68.8137436   1.8507259  23.6327324
  68.2553635   2.5079579  23.2174129  68.2612534   1.0715104  23.6944561
   9.2152100  29.7929935  58.2459450   9.9351492  30.4211693  58.3035164
   8.6533442  30.1356716  57.5508842  55.5799446  14.2999191  62.5860748
  55.6481094  13.4533043  62.1446800  55.6623344  14.0921021  63.5168037
   5.3969593  64.1857681  45.6745758   5.3336053  63.3426628  45.2258072
   4.5786486  64.6335068  45.4597969  71.8162460  41.5748596  52.5332527
  72.4492874  42.2041702  52.8788834  71.3102417  42.0723724  51.8908577
   5.5250411   1.6575975  73.1424789   4.8421597   1.6789607  72.4720764
   5.5323305   0.7505355  73.4481277  65.4230347  51.4459152  34.4249725
  65.5107880  52.0137024  33.6593666  65.7904053  50.6075935  34.1448135
  14.1038456  28.4188900  10.9984818  14.7447262  29.0754452  11.2713165
  13.2964191  28.9145489  10.8620443  40.0491409  40.5538788   7.8587246
  40.4200706  39.8047142   8.3249760  39.8437576  40.2157516   6.9871054
  23.5566959  16.6483250  16.0667057  22.6048985  16.6015244  16.1568413
  23.7134743  16.5498505  15.1275806  35.5613098  48.7620201  76.5171814
  36.0981445  48.9548683  75.7485123  34.8590164  48.2030144  76.1847153
  77.6328964  51.2786713  40.7038307  78.3002548  50.8785477  41.2612953
  76.8728561  50.7031097  40.7893257  14.7790861  45.5838432  20.6110935
  14.6396961  45.0418892  21.3876839  15.2460833  45.0127602  20.0011654
   7.2914567  25.7345753  64.5589828   8.0076485  25.0998268  64.5788956
   7.4418993  26.2895107  65.3242569  67.6355286  37.8477402  82.9407806
  67.9637680  37.2057762  83.5703659  67.8595505  37.4807167  82.0856018
  11.5637035  43.1370621  44.3872452  11.4908600  43.8704109  44.9980850
  10.6708965  42.9993858  44.0707474  85.2039490  19.6530781  52.0506096
  85.3113022  20.5394039  51.7054520  85.2204285  19.7626705  53.0013733
  80.1008987  58.5442276  80.0457535  80.4930344  59.1906319  79.4587021
  80.2040253  58.9207230  80.9197311  83.0107269  10.3816214  82.4531860
  83.9528656  10.5133972  82.3471451  82.8831787  10.3152952  83.3995285
  57.8108063  31.2850895  25.6828041  58.2600250  31.1036415  24.8572674
  56.9854317  30.8048248  25.6169453  76.3815308  70.9827347  40.0782013
  76.6953964  70.7535400  40.9529533  76.9660721  71.6838226  39.7900696
   7.2297106   3.7618234  71.8985214   6.9084826   2.9799783  72.3477020
   7.4824548   4.3567896  72.6044693  33.7854500  50.5290833  27.0508976
  34.1617355  51.2258224  26.5131321  33.7630920  49.7662125  26.4731770
  36.9300957  49.1413383  78.5605164  36.6838913  50.0067940  78.8870163
  36.3262100  48.9779587  77.8360443  27.6031189  19.5783978  12.9934654
  27.3187943  19.5440998  12.0801125  26.8257732  19.8598747  13.4758930
  12.6785822   4.5476294  22.1093884  12.5791159   4.2437925  23.0116196
  12.1412048   3.9464564  21.5935898  40.1739922  14.8950472   4.7809372
  40.6572876  15.1988430   4.0125871  40.6264877  14.0947943   5.0475321
   6.7728477  68.4999466   5.0715561   7.0215263  69.3546143   4.7195191
   7.1788969  67.8688202   4.4773884  32.9470482  23.9560108   2.0640681
  32.9452057  24.5811615   1.3392134  33.1400871  24.4863033   2.8372152
  80.6945572  27.0294361  12.9649124  80.3357391  26.1713066  12.7388697
  81.5505447  26.8377609  13.3480167  13.6330395  35.3223000  36.1689568
  13.0546122  34.5739822  36.3161697  14.3223305  35.2251167  36.8259697
  54.5781975  33.5429764  62.3239174  55.4990654  33.6958618  62.1121101
  54.5458794  33.5631523  63.2803574  18.5155010  10.2562981   2.0073147
  18.1312370  11.0264235   1.5884104  18.7596512  10.5566273   2.8827720
  56.4563408  48.2041512  16.4182549  55.6727753  48.1877861  16.9677887
  57.1612511  47.9147682  16.9975586  65.5779572  15.1390696  38.1142693
  65.0778961  14.4614010  38.5691643  64.9299698  15.8088255  37.8957062
  59.2526283  33.7184029  87.2713776  60.1284180  33.9701233  87.5643921
  59.3983231  32.9617729  86.7034760  42.0679016  62.6241150  55.9378586
  41.1348839  62.6772881  56.1449356  42.2164192  61.7000465  55.7371826
  11.3911057  23.0974369  77.7281265  12.0401869  22.5178738  77.3293381
  10.6467400  22.5271473  77.9202728  67.8928757  31.9513359  77.6374054
  68.3340759  32.3840637  78.3683777  68.5914688  31.7725906  77.0079193
  42.2093010  43.9153481  15.7758904  41.7174721  43.5484200  16.5105324
  41.5648460  44.4288788  15.2888613  69.3315048  32.4551277  86.3932648
  70.1559982  32.4221916  86.8784027  69.2879333  33.3496819  86.0554810
  86.6275406  27.8376751  70.4406967  85.8609085  27.8999348  71.0104599
  86.3844147  27.1868019  69.7823029  13.5260115  19.8317509  25.7217121
  14.0000105  20.0043201  24.9082146  13.7638788  20.5592861  26.2964649
  40.6153374   3.6806872  65.4068298  41.3297234   4.0095949  65.9524460
  40.0811234   4.4528174  65.2206421  35.9385223  37.8947334  82.1350403
  36.1109619  37.6627884  83.0475616  36.0713577  38.8420029  82.0994797
  39.1206779  54.8320122   3.5829635  39.2904625  55.6716270   3.1558170
  38.1871338  54.6754150   3.4408045  71.3274155  37.3955269   2.4047103
  70.4715958  37.3067932   1.9852732  71.6182022  36.4949722   2.5484924
   9.6817684  67.4037552  48.1449852  10.0750761  68.2210541  48.4508743
   8.8314285  67.3684998  48.5830612  52.1721458  30.9396477  84.7466965
  51.7883568  31.7450790  84.3999710  51.4313927  30.3398018  84.8344269
  85.9380646   0.5072577  15.7625380  85.2706604   0.1586863  15.1715202
  85.4441681   0.8400903  16.5118828  18.5231247  13.6031103  74.7195816
  19.1247082  12.9360771  74.3888321  19.0091610  14.0376415  75.4204254
  32.5475044  50.6810875  80.9466019  31.7461548  51.1938591  80.8411026
  32.4312096  49.9319992  80.3621597  27.2483444  66.2136917  13.9621716
  27.4298916  66.7919540  13.2213011  27.7865219  65.4391251  13.7989388
  59.7836838  14.1095886  68.7663651  60.6322784  13.8750582  68.3907166
  59.4442482  14.7900782  68.1850357   6.6535029  43.7846832   7.4283190
   7.2007980  43.6751595   8.2059460   6.9959688  43.1464119   6.8025723
  26.0013752  50.6365852  83.6729584  26.5290012  51.4227638  83.5323486
  25.7453480  50.3594627  82.7932510  54.5589333  48.4438248  18.6758728
  54.8505821  49.2083549  19.1725273  53.9821129  47.9731560  19.2775192
  39.1094742   8.7979059  50.2027245  39.2404633   9.2992897  49.3979340
  38.2172432   9.0117064  50.4755669  17.9169350  63.4010620  70.2880936
  17.9454021  63.3418922  69.3331451  17.0615444  63.7859802  70.4788208
  74.8895645  56.7389565  45.9721184  74.2342377  57.2841454  46.4074898
  74.9946899  57.1354485  45.1072617  21.0004292  67.0049057  42.0954094
  21.3901443  67.5528793  42.7766342  21.6311722  66.2962570  41.9680710
  23.5944347  50.4365845  14.9947147  23.2999840  49.5329018  15.1082239
  24.1115856  50.4206238  14.1893988   8.6690950  65.0844040  16.5108166
   9.1818047  65.3886337  17.2596855   9.1811924  64.3618622  16.1476021
  69.0956726  63.6359062  77.7020111  68.2763824  63.3606148  77.2906647
  69.7696152  63.1143837  77.2660751  40.2386513  65.5716095   8.2892275
  40.9379425  65.1080017   8.7499771  40.6433830  66.3895187   8.0003462
  80.9841690  65.0784073  15.9095583  81.4808273  64.2689133  15.7900600
  80.7941589  65.3763580  15.0199795  23.8721294  25.7328568  21.4191208
  24.6576042  25.8029022  20.8765755  23.8072567  26.5813904  21.8573151
   8.1004581  12.3586807  40.1699409   7.1884851  12.6479759  40.1990166
   8.1341419  11.7462444  39.4350815  11.7918396  41.2702408  82.2729721
  12.4997950  40.7105331  82.5919647  11.3101549  41.5200043  83.0615387
  33.1436272  57.1795502  13.6309366  32.4597092  57.8283501  13.4649601
  33.9631310  57.6571999  13.5025053   2.4336536  16.7080727  45.8331718
   1.7720035  16.9601803  45.1890526   3.2125607  16.5123310  45.3123856
  44.4394073  59.9376984  68.1938477  44.0615158  59.2666817  68.7623291
  44.3051949  59.6035767  67.3069534  32.1532974   5.3779039  18.2329292
  32.7586136   5.2336507  18.9602642  32.7063103   5.3508201  17.4521122
  66.0267715  60.7610779  43.3894310  65.7476273  60.9992409  44.2735062
  66.8132553  60.2316055  43.5210686  39.4328346  26.2104778  16.6362419
  39.4660721  25.4243050  16.0912113  38.5724525  26.1758900  17.0543060
  23.6971684  47.4030075  11.4756031  24.1922150  47.7744675  12.2057934
  23.8847904  46.4650650  11.5115776  82.5909882  27.0827255  21.1270924
  81.9034958  27.7370701  21.2512665  82.2072601  26.4430084  20.5273056
  74.9757614  45.6735001  32.3438492  75.8466721  45.3887024  32.0670280
  74.7933350  45.1573982  33.1290817  38.3774948  14.8195858  18.7904778
  38.4427185  13.9321499  18.4377232  38.3131371  15.3804588  18.0174885
  65.9633713  66.7522202  47.4130936  66.1011047  66.6271439  46.4741478
  66.7114563  67.2775650  47.6970177  68.7500076  31.2849426   3.4586887
  68.5158768  32.0981255   3.0113053  68.4897232  31.4286404   4.3685422
   9.8540888  15.8262491  18.1409969  10.5701256  16.2903156  18.5747757
   9.0757637  16.0606842  18.6464500  67.0088120  65.5680008  50.7985344
  66.0602722  65.4822083  50.8941574  67.1473389  66.4956436  50.6074142
  59.7343483   9.4705639   2.6883948  60.4923592   9.1009445   2.2355897
  60.0886154   9.8109856   3.5098808  73.5221024  47.5560913  49.4671097
  74.0099945  47.1540985  48.7483597  72.6331787  47.6564369  49.1265526
  20.2099323   2.1906006   3.5029943  20.6833992   2.6262770   4.2116871
  20.5172157   1.2845045   3.5312355  52.9464340  45.1481438  67.8478317
  53.8009148  45.0763969  68.2732086  53.0996857  45.7230186  67.0979843
  57.4723358  35.2464905  18.8765106  57.4454002  34.3407097  18.5681744
  56.5573578  35.4677620  19.0499630  22.6899414  66.6947403  82.5777893
  22.8298244  67.2005768  83.3782883  22.3476124  65.8543091  82.8822784
  17.4874821  62.8953056   1.3535980  16.9031601  62.8654938   0.5960294
  17.1703529  62.1985703   1.9282485  15.7988138  61.3307610  54.2266693
  15.5000439  60.5881882  54.7515984  15.9542532  62.0276299  54.8641968
  48.9768982  52.3390160  36.8798790  48.2842293  51.9762535  36.3277435
  49.4123268  51.5723648  37.2525482  77.7842331  52.8871803  73.4543457
  78.0602646  52.4298630  74.2486343  78.5876083  53.2794342  73.1123657
  76.8128433   4.8714304  19.0856285  76.2048645   5.3390856  18.5130062
  76.9204712   5.4476695  19.8423290  62.0484848  20.9504013  22.0279922
  62.3496971  21.0489788  21.1247826  62.3128510  20.0637169  22.2732105
  57.8409996  44.2986908  85.0229492  57.2339439  44.9608421  85.3535156
  57.4486885  44.0028992  84.2014694  72.1820450  20.4375229  45.4573593
  71.6695023  20.2147636  44.6802444  71.6175690  20.1996021  46.1928787
  10.6026459  47.4966278  43.6139641  10.6082277  47.4089813  44.5671272
   9.9883146  48.2104111  43.4426689   5.9345841  23.8831997  13.8363867
   5.9056959  22.9298248  13.7559195   6.8613095  24.0846405  13.9661274
  16.5039310  68.2207642  47.3383331  16.7077579  68.0915375  46.4120598
  15.5504971  68.3013458  47.3647995  81.5453033  54.5428162   7.1272488
  81.1057816  54.2088089   6.3452716  80.8359528  54.7094383   7.7479639
   9.0001097  61.1298523  65.6812897   9.6351757  60.5032692  66.0281601
   8.2050772  60.6145058  65.5450134  79.3174667  33.5292702  88.3368759
  78.9902344  32.8574638  88.9350586  79.3552780  34.3248444  88.8677826
  26.7932968  66.3419342  71.4408340  27.4354839  66.0871048  70.7783508
  26.6709385  67.2817688  71.3067703  11.9396257  45.3021812   4.3190417
  12.0131483  45.6480560   5.2085352  12.8403502  45.1012154   4.0649920
  49.9617310  38.8936615  71.1520157  50.5348129  38.2169418  71.5123749
  50.2285652  38.9706154  70.2359848  85.6293488  49.4424667  77.3341141
  85.9747086  50.3086128  77.5503311  86.1125183  49.1807709  76.5503464
  66.6210403  67.3247986   9.9381065  67.3263168  67.2306824   9.2978306
  67.0052795  67.8463974  10.6427546  34.3632698   4.7468653  39.9215622
  35.2780457   4.5517178  40.1248627  33.8747826   4.0063329  40.2810402
  41.1194344  30.5663433  13.8017464  40.6596527  29.8302364  14.2054548
  41.7891273  30.1584282  13.2527952  63.0009232  26.9252014   5.4033761
  63.3291359  26.5178585   4.6017647  62.5782509  27.7311764   5.1067562
  66.6094894  36.2004280  59.0975952  66.9541626  35.3628807  59.4073486
  66.1957932  35.9939423  58.2594757  60.2512283  29.9971218  86.3458786
  60.7003555  30.7650223  85.9925461  60.5631142  29.2689247  85.8085785
  78.7906036  28.8587914  17.2828102  78.7642899  28.2011681  16.5877762
  77.8708344  29.0477314  17.4687119   2.4970763   5.2309270  31.9274139
   2.6585300   4.3106003  32.1351700   2.4053607   5.2488956  30.9747868
  31.1078339  30.7106533  81.5766907  30.7373333  30.7479000  80.6948929
  31.6335716  31.5072327  81.6494370   3.5862565  30.1751671  37.3292427
   3.5161581  30.2198448  36.3756561   2.7600503  30.5389843  37.6474419
  79.1256180  41.6183586  43.7750244  78.9865036  42.5271034  44.0415916
  78.3477173  41.3971863  43.2629890  80.6289139  36.3536949  32.5996170
  80.4134598  35.5912170  33.1366882  80.8384476  35.9893951  31.7396107
  86.0200348  50.4205513  46.5960579  85.1827698  50.8000679  46.3292542
  86.1987381  50.8118401  47.4511528   1.1329781  62.7928391  19.8838158
   1.9847479  63.1934242  19.7098885   1.1647980  61.9535294  19.4247074
  21.2255917   1.1298038  47.1118889  21.4574852   1.8372523  47.7135315
  20.3328934   1.3347980  46.8338623  72.2822266  45.7425156  22.6862965
  72.2043686  46.5892067  22.2466526  73.1667328  45.4435463  22.4753551
  78.3081131  24.3762455  18.7665329  79.0200119  24.7759609  18.2668648
  78.0765305  25.0343609  19.4218826  11.3733406  62.7952652  42.8374367
  11.3723154  61.8976822  43.1699638  12.2928095  62.9779549  42.6439590
   9.4030352  29.1295338  30.8488865  10.1374521  29.7305775  30.9738235
   9.4195776  28.5669441  31.6231289  16.9955196  65.9646759  51.0878029
  17.8818150  65.8989258  51.4433174  16.4650211  65.4139938  51.6636047
  68.0731964  64.0709763  80.6892776  67.8198776  64.1669312  79.7712021
  68.7912369  63.4381752  80.6747360  58.5062828  19.6477928  13.5496063
  57.5507240  19.6341286  13.4953022  58.7158279  19.0208607  14.2419052
   8.9129381  27.1324463  32.9455986   9.4234428  26.8765793  33.7138100
   8.9886475  26.3878670  32.3488579  39.4912682  68.3546829  69.7649918
  39.5657654  68.9613190  69.0283279  40.0033455  68.7621613  70.4635468
  61.7665710  64.7002106  63.9650574  61.8229141  64.3542862  64.8557816
  62.2974930  64.1003418  63.4411201   4.4093204  58.6322746  25.9989452
   5.2379904  58.8301620  26.4352684   4.6459422  58.5100670  25.0795383
  16.0469475   5.8772035  87.7719421  16.5783215   5.2136245  87.3320160
  15.9379692   6.5684247  87.1188202  79.7205048  70.1149902  41.0867920
  79.9027023  70.6540985  40.3171158  79.7827835  69.2143784  40.7685890
  71.5395737  33.8807678  16.8573551  71.4791946  34.7464561  16.4534111
  70.6424255  33.5473061  16.8443718   9.9029970   6.3190622  20.2404575
  10.4177942   7.0779381  20.5149078   9.1638985   6.6920886  19.7600231
   7.2011471  64.5802841  71.3286209   7.1848798  63.6329727  71.4648590
   8.0873051  64.7620850  71.0157242  71.0062943  10.1192131  39.4008217
  71.8215027   9.7309847  39.7185440  70.4568024   9.3693361  39.1728363
  38.5977097  70.2603760  51.4233818  38.4762077  69.3494720  51.1555595
  39.2865105  70.5898972  50.8461456  86.6470795  23.1740627  14.6619864
  87.0911255  23.5595665  15.4172621  85.7564011  23.0042973  14.9687443
  86.4416351   7.4212074  47.6422501  86.7381287   8.1946936  48.1218758
  86.3657532   6.7397456  48.3101463  61.8315239  17.7610798  52.5639153
  61.3589516  17.1007309  53.0707130  62.7381477  17.4541245  52.5569878
   0.0443666  44.2278748  83.1302567  -0.6771936  43.6336670  83.3364105
   0.8202010  43.7953339  83.4869385  85.1947327   2.1463528  24.4548721
  84.6613464   2.1461856  25.2496853  85.4129181   1.2252660  24.3126526
  67.5271912  52.7535782   8.6363783  67.3862381  51.8071022   8.6598997
  66.6475449  53.1251640   8.5702496  52.6240540  69.4269638  22.6284695
  53.0218964  69.1376572  21.8073387  53.2483826  69.1614532  23.3037071
  56.4402275  52.8019066  84.6694107  57.1088829  52.9445839  83.9995041
  55.8284035  52.1839600  84.2693558   7.5193324   4.5692420  60.7512512
   7.0657248   5.2415576  60.2428589   8.4408588   4.8262091  60.7198067
  18.4201984  43.3448639  60.2085915  17.7971363  43.2015419  60.9209709
  17.9742718  43.0119553  59.4297752   0.2138697  59.5713310  46.2073975
  -0.3419735  59.4723816  45.4344292   1.0308955  59.9381218  45.8695145
   9.6037798  42.9125862  47.7702141   9.5605087  42.5665894  48.6616440
   9.0050526  43.6594086  47.7738380   5.2223630  34.7269249  71.3886337
   6.1128273  35.0611038  71.4964752   5.2728267  34.1531219  70.6241455
  23.7353821  57.1513023   5.7354913  24.0430450  57.5144997   4.9050322
  24.3027363  56.3963280   5.8915625  46.5777092   1.9039001  19.9976616
  47.1387978   2.6733112  19.9006195  45.9365883   1.9843954  19.2914600
  33.3718338  59.0357246  65.9455414  32.9057198  59.0861015  65.1110153
  33.6900826  59.9258041  66.0962372  80.7561264  48.0538635  35.4105568
  81.1716919  47.2831345  35.0238838  80.8077774  47.9054527  36.3547707
  69.1126099  13.5839653  28.1634083  69.9570236  13.1488400  28.0456676
  68.8607788  13.3785172  29.0637436  56.3108521  59.8608437  51.9648094
  55.9405289  58.9787941  51.9319992  55.5536346  60.4414864  51.8892365
  17.6936054  46.8971443  55.3947601  17.9199142  47.7333679  55.8018761
  18.4486370  46.3346558  55.5672836  71.9078064  66.8843079  22.7573719
  71.7953720  67.8198471  22.9257374  71.1889877  66.4673615  23.2324429
  75.8009872  36.9202423  45.0028114  74.9257736  37.3078461  45.0030899
  76.3682175  37.6098328  44.6579247  40.6995087  61.7456017  24.9085159
  40.4736061  61.5509224  25.8180752  39.8712463  61.6703682  24.4346447
  58.3532982  15.1968155  71.0564651  58.7735596  14.5641632  70.4739151
  58.1697807  14.7019768  71.8550186   1.5348139  23.6227093   6.8475032
   1.2921776  22.7443619   6.5544767   1.3328373  23.6273785   7.7831397
   8.3105259  30.1013546  69.4337311   7.8295355  29.5399609  70.0417786
   7.6362085  30.4680748  68.8618546  69.6170349  10.7408524   4.8866720
  69.2791595  11.6354733   4.8451586  70.5573502  10.8464298   5.0312433
   7.5453019  15.9664783  20.2841110   6.6815734  16.3769417  20.2425900
   8.0435362  16.5174274  20.8878078   5.8116140  66.3899460  34.7691765
   5.7209826  67.0447388  35.4614639   5.6908016  66.8818207  33.9569588
  73.2783890  32.5040474  44.7812309  73.9271393  33.2018089  44.8733559
  73.1910095  32.1403923  45.6623383  85.8899612   2.6882994  60.3150520
  86.4240723   3.4650931  60.4810143  85.5368042   2.4526949  61.1729622
  58.2727394  51.0733643  34.2017403  58.4041939  51.9931564  34.4318085
  58.8969460  50.9118614  33.4942703  80.8538742  16.1313782  53.1043472
  80.3574524  15.9096689  53.8921547  81.5749664  16.6755123  53.4208488
  59.6168671  54.4759903  76.0896530  60.2047691  54.0148582  75.4913559
  60.1177292  55.2396164  76.3764343  21.4817314  20.0810032  14.2343512
  21.7430916  19.8288021  15.1199675  20.7372551  20.6688328  14.3625860
  41.1965904  54.2932968  84.4445877  40.9548874  54.8231316  85.2042465
  41.9729843  53.8098755  84.7269897  84.3287582  43.9547348  12.9019852
  84.5931931  44.5713730  12.2192984  84.4553070  44.4347496  13.7203999
  69.3634872  29.5761471  41.9267273  69.2049332  29.3419895  41.0122566
  70.2660141  29.3028030  42.0909424   1.4706768  61.3164940  36.1812248
   1.8483431  60.7977715  35.4709282   2.0718122  62.0541382  36.2849236
  68.9538956  18.1568146  27.0800533  68.3025284  17.9723549  26.4033451
  69.3570709  18.9806385  26.8062019  78.9363861   9.5752859  21.1921864
  78.3366089  10.2007608  20.7856388  78.9355164   9.8109236  22.1199284
  62.1808014  17.5007668  80.5415192  62.0535889  16.6526318  80.1164169
  61.8992729  18.1409054  79.8879166  26.4021091  10.5121870   2.5709856
  25.9991379   9.8388357   2.0228577  25.6919518  11.1265583   2.7566094
  11.1699820  63.7982330   5.5261288  11.6258583  64.0223770   4.7148542
  11.8692360  63.6802788   6.1690617  58.1007996  13.1450443  55.8881721
  57.5985680  13.8492126  56.2982216  57.5473938  12.3697681  55.9826088
  83.1186676  57.8930893  81.2617798  83.7792435  58.5699692  81.1144409
  82.4010925  58.3501511  81.7004242   4.3453159  34.2806435  48.0849571
   3.5810463  33.7061844  48.0389023   4.0733471  35.0779953  47.6305428
  45.8348541  16.3906441  24.7395782  45.0177193  16.0358391  25.0897655
  46.4815445  15.7026901  24.8968792  32.1873856  63.6256371  80.9093323
  31.9729176  63.3452339  81.7990494  31.6415844  64.3983612  80.7636185
  53.4087563  50.5996819  38.6457672  53.0837746  50.2911415  37.7999420
  53.3194351  49.8442039  39.2267227  70.1900024  70.6129608  86.5871201
  70.7802887  69.9040070  86.8424301  70.3792114  71.3171844  87.2072067
  81.4612885  64.7431183  31.2793617  80.7629547  65.2401581  30.8533134
  82.2498627  64.9656372  30.7845173  55.4558372  61.4081688  38.0728836
  55.4480705  61.6514511  38.9986191  55.7974815  62.1819191  37.6247559
   1.9205331   2.6991272  62.6468735   2.2102880   1.8478159  62.9748077
   2.1233571   2.6772084  61.7116661  11.1041527  50.9093895  36.4791451
  10.3418427  51.2430878  36.9521790  11.2671795  50.0484962  36.8645210
  18.2238731   4.2809649   5.1268787  17.5412445   4.0000720   5.7362623
  18.8263359   3.5384223   5.0832658  68.0413208  41.8292656  58.9945183
  67.2903595  42.3573265  58.7235184  68.4407578  42.3286667  59.7067566
   4.5865374  53.6778755  62.2874031   3.6696017  53.4384651  62.4221001
   5.0204039  52.8523865  62.0716286  30.9983482  50.5929871  29.8365421
  30.8599243  50.7274475  30.7740879  30.1196175  50.4587402  29.4815216
  73.0121994  21.5242481  67.9723511  73.4658356  20.6852436  68.0531006
  72.8740845  21.6322556  67.0313416  18.6293716   6.7610016  25.5650482
  18.7535019   6.0418472  24.9456615  19.1713467   6.5249410  26.3178902
  73.3451996  60.7722893  10.2076969  73.6682663  60.0342331   9.6908484
  74.1069336  61.3421669  10.3136339   9.8412437  52.0292702  55.4925880
   9.6841021  51.6720505  54.6185570   9.5690908  52.9448013  55.4296417
  65.2260361  45.3074722  72.0289459  65.8152542  44.8773308  72.6486435
  65.5124054  46.2207947  72.0206528  28.0481606  68.2713699  37.6458435
  27.1669827  68.1228256  37.9889030  27.9350700  68.2909317  36.6955490
  86.7154465  57.9448738  41.4045639  86.9660263  57.0479736  41.1831932
  85.7861481  57.8861122  41.6263504  27.1317062   6.6213446  68.3750076
  27.0455418   5.6848960  68.5535278  28.0336380   6.7253728  68.0718079
  37.6845398  53.9218750  34.8064346  36.9334908  53.7627716  35.3781357
  38.2632637  53.1745987  34.9577255  52.7465172  27.9909477  86.1145248
  52.0723381  28.2923927  85.5055542  53.1662064  27.2582607  85.6636810
  24.9743176   4.3951378  71.5938416  24.6600838   5.2690296  71.8257980
  25.8522034   4.3479776  71.9724197  62.4644051  46.3787041  39.9331932
  63.0097427  47.1000061  39.6192474  61.5679817  46.7057571  39.8577385
  77.3555450  14.7774363   0.0229317  77.7570877  15.5391607   0.4409881
  78.0906525  14.3000679  -0.3617376  15.6876688  41.8178329  65.2690811
  15.7421141  41.4732552  64.3777161  16.4543304  41.4555435  65.7131653
  81.4308624   0.9186555  56.1014748  81.7050095   0.2979297  56.7765846
  81.3657913   1.7568953  56.5590248  83.7762680  68.0470505  20.5168571
  84.6841507  68.2803650  20.7106171  83.3480072  68.0203094  21.3724918
  51.5796585  51.2336884   5.2635512  52.4586182  51.4954529   5.5376740
  51.6909828  50.3492432   4.9148369  30.1074524  69.5892334  78.5593185
  29.4518108  70.0481262  79.0844727  30.9419575  69.9719162  78.8302231
  61.4369164   3.2759511  89.3887405  61.6894569   4.1992354  89.3871155
  61.7262115   2.9470158  88.5376587  20.1530647  37.2532158  82.6346130
  19.5084324  37.5706558  82.0022278  19.8019085  36.4146538  82.9341660
  18.7260990   7.3116488  41.3142662  18.4844570   7.6794019  42.1643257
  19.1886311   6.5010037  41.5267525  12.2548933  30.1510696  86.4465485
  11.4047241  30.3552876  86.0570068  12.8921909  30.5442257  85.8502960
   2.8711324  19.5315208  11.3164501   3.1167607  18.7227478  11.7656546
   3.6964931  20.0029869  11.2036228  49.6411972   6.3958173   1.1250457
  49.9613762   7.1248550   0.5938002  49.5723686   5.6644201   0.5114067
  48.2829971  62.9006348  74.1999435  48.1676445  63.8201065  74.4397354
  47.9700432  62.8475304  73.2969131  26.2833271   7.6696815   4.6208439
  27.0995140   7.8906493   4.1722426  25.6871147   8.3850708   4.3995285
   4.6317754   5.4456234  63.0686188   5.1020784   6.0395498  62.4835548
   4.9140544   4.5713634  62.7998810   6.7115998  18.5160923  60.0562401
   6.2206798  18.4336472  60.8738136   7.1518221  17.6721725  59.9550591
  74.8858261  25.5047073  72.4518280  75.5068893  26.1715794  72.7447281
  75.0513458  25.4191437  71.5129395  66.5555420  14.3158388  45.4184875
  66.2800217  13.4008112  45.3633003  66.2363892  14.6110554  46.2712593
   0.6885033  17.6300831  63.2637215   0.1833798  18.2570133  63.7814484
   0.1996583  16.8103561  63.3365860  76.6362076  47.8743629  79.0865707
  77.2910004  47.2441788  78.7859955  76.2802963  47.4869423  79.8862381
  79.6840439  45.0382538  17.0286808  80.4741974  44.7145805  16.5961037
  79.8191147  45.9833183  17.0982437  23.3988972  16.4361496  56.2690887
  23.3037682  17.3666782  56.4723129  22.7388477  16.2692394  55.5962563
  18.2801609  26.9084015  29.5230865  17.6771545  27.6477852  29.6000748
  18.6789513  27.0135078  28.6592865  14.6404152   5.5343199  24.7310905
  14.3930426   4.6111155  24.7833672  13.8087511   6.0007577  24.6474171
  48.4861069   1.8349086  60.5057602  48.1129608   1.9556750  59.6325989
  49.3817940   2.1641483  60.4310875  79.2042770   1.3745952  68.2488480
  79.8422165   1.1153797  67.5839615  78.6553192   0.5997219  68.3690414
  27.6597862  60.1982613  53.8175468  26.8386459  59.9389305  54.2355309
  27.5833359  61.1459579  53.7068520   8.1882792   5.2502785  39.0629349
   7.7913289   4.3792744  39.0667038   8.3372355   5.4496069  39.9872246
  68.7891922  67.9446945  64.3430252  69.1380768  67.3651428  63.6657982
  67.8699570  67.6907959  64.4252701   7.3496280   4.8392801  17.7044792
   6.5132165   5.2141376  17.4285641   7.7356625   5.5066233  18.2718086
  10.9000206  55.1305275  58.4996033  11.7080879  55.2450409  58.9997482
  10.8166656  54.1829567  58.3928413   3.6030240  21.9347000  84.1135864
   3.4695287  22.1769848  85.0299454   4.3019924  22.5148849  83.8118286
  15.8205643  57.9206848  13.1095552  15.2882614  57.1820183  13.4049530
  16.6748466  57.5365715  12.9123478  48.8675003  34.3036079  60.2321663
  48.7001343  33.4021149  60.5070038  49.3630257  34.6866074  60.9560432
  42.2852325  23.3148994  19.8179188  42.5894508  22.5880909  20.3614559
  41.6120300  22.9292793  19.2572708   7.5830398   5.8380427  56.3236656
   8.1222067   5.4976130  57.0375557   6.8897905   5.1869211  56.2156029
  52.8626060  55.5148392  36.2537727  53.0205193  54.5793495  36.3808746
  53.5064468  55.7793159  35.5966949  57.6312065   3.4063098  42.2684364
  58.4005852   3.2544808  41.7195854  57.2080002   4.1724615  41.8809547
  41.8568878   8.5293884  70.4411163  42.5078316   7.8416367  70.5807724
  42.3072052   9.1794319  69.9017792   6.7390838  47.4959679  82.1925201
   6.2688289  47.5630951  81.3615036   7.3965302  46.8168602  82.0415115
  51.9756889   7.4634748  63.3438072  52.5796242   7.2909250  64.0661087
  52.2687225   8.2994165  62.9810867  60.2991638  19.3814964   0.9201703
  60.6868744  20.0130367   0.3143085  60.6819420  18.5412769   0.6676976
  60.2599640  13.1118279  78.8109741  60.8132286  13.8559389  79.0485229
  59.7150841  13.4375610  78.0945663  20.9418335  31.9932518  17.7691689
  20.4525356  31.4699078  18.4039364  21.7830067  32.1604614  18.1942539
  79.4421310  23.1513214  81.4981232  79.8792343  23.6755352  82.1692200
  80.0719299  23.1101189  80.7784805  49.0282707  67.3138123  69.9620590
  49.0421600  67.8061523  69.1413040  48.2759018  66.7281570  69.8773422
  17.8031235  36.5948639  54.5236626  16.9070320  36.3032112  54.6915588
  17.7526913  37.5503998  54.5488625  44.7127266  16.1224384  13.7937555
  44.0655022  16.3972149  14.4432402  44.5121231  16.6472816  13.0188169
  60.4874878   6.5334330  39.4715576  60.7006836   5.6017709  39.5243416
  60.3979645   6.8106799  40.3833427  69.7665024   5.5310640  88.5222702
  69.1078644   5.1144195  87.9665375  69.6121597   6.4695301  88.4141464
  45.2532539  38.2679520  26.5399399  45.6037064  37.3806953  26.6186085
  46.0208817  38.8356361  26.6086102  18.2735748   8.5779514  61.3417587
  17.8771477   8.4832697  62.2078476  19.0228004   9.1566324  61.4832458
  10.9380083  45.8708687  24.9806118  10.6510143  46.0665550  24.0886631
  10.9936438  46.7258873  25.4073257   6.4679513  62.4981308  16.0024166
   5.7265601  61.9312515  15.7897682   6.0825019  63.3683052  16.1046753
  27.8847504  47.3529015  30.5657158  27.7882519  46.4136314  30.4085655
  28.4976616  47.4113922  31.2986221   8.3798637  25.8790245  46.4656258
   9.3265648  25.7603436  46.3887901   8.1478090  26.4392223  45.7249756
  20.3700733  51.7428131  85.0898743  20.2286110  50.9497719  85.6068878
  21.3168011  51.7731171  84.9519577  42.4657135  32.5318336  15.1103802
  41.7194939  32.9772301  15.5116434  42.1123314  31.6937447  14.8121214
  72.8870468  52.9162292   1.9416076  72.3868256  52.2187233   1.5179310
  73.5073242  53.2063370   1.2727828  25.0567493  36.0957451  79.2166214
  24.8505764  35.9041519  78.3017349  24.3462181  35.6889687  79.7125092
  63.6601562  65.3454742  58.0406990  63.7528648  64.3966904  57.9543686
  64.5442734  65.6859283  57.9040947  72.5570831   5.8484931  26.0478115
  72.8208389   5.4631953  26.8834019  73.1966858   5.5158229  25.4181538
  75.0316162  68.0948868  43.7470207  74.2916946  68.2360153  44.3376465
  74.6325455  67.7928772  42.9310799  69.3561401  29.6809425  51.2189026
  68.4248734  29.7972889  51.4071236  69.4233017  29.7837467  50.2696114
  14.5390282  12.6512079   8.8001432  14.0475159  12.9567966   9.5625496
  14.3125601  11.7242250   8.7249899  40.4698257   3.5143287  53.4896088
  39.9936485   3.0354717  54.1679764  40.1313744   4.4079866  53.5449066
  40.7031479  60.2788086  46.8343315  40.0913620  60.8324432  47.3195496
  40.6085281  59.4127121  47.2307625  45.6021423  68.2085648  38.0281448
  45.0783386  67.6280975  38.5803375  46.5016441  67.9027176  38.1447144
  25.0358925  57.9407234   3.1630831  24.4386539  58.6514854   2.9299390
  25.1965332  57.4825592   2.3381531  64.0750198   7.9660778   8.7984800
  64.7935333   8.1489630   9.4038954  63.3663559   8.5411491   9.0871267
  20.6268024  61.1528282  76.0563660  20.8624802  61.7890701  76.7315598
  20.6443634  61.6523170  75.2400131  71.3939590  49.2424583  64.1604538
  71.3314972  49.6094894  65.0422821  72.1943665  49.6229591  63.7988014
  38.0935936  37.6732292  27.7493916  38.1981773  37.0758553  27.0088253
  38.3010178  38.5365753  27.3918438  36.9037361  17.7478199  20.3011875
  36.9687386  17.6145630  21.2468338  37.6446571  18.3150120  20.0877457
  83.3122940  66.7871857  86.5570221  84.1757278  67.1516495  86.7516556
  82.7173157  67.2545624  87.1433563  38.4452896   8.6362667  47.0596771
  37.9852142   9.0157709  46.3109856  39.1102676   9.2862549  47.2867355
  67.8590012  35.1383400  44.2400742  68.4345856  34.8784485  43.5207787
  67.2170944  35.7212143  43.8345451  85.9723358  24.6386795   0.8054372
  86.5209732  25.1856270   1.3676524  85.2395401  25.2044830   0.5623091
  26.3998127  71.1112213  82.1531830  26.2137451  71.4114761  83.0428238
  26.2734203  70.1630783  82.1890488  51.8998299  39.6928902  87.6583481
  51.3206062  40.0030899  88.3544083  52.6815643  40.2398186  87.7357559
  69.8746185  38.6365852  34.4248581  69.8305893  38.7048569  35.3786049
  70.8112793  38.6071739  34.2298241  57.4251862  -0.0522880  73.5805664
  57.4317093   0.1154539  74.5229263  56.8735847   0.6407658  73.2177353
   3.8100736  66.0451508  31.4780235   3.4820254  66.6721039  30.8333969
   3.4498506  65.2035370  31.1984482   2.6007719  28.0368576  33.1170235
   2.9916399  27.2773743  33.5490417   2.9865804  28.7909012  33.5628967
  70.7251663  50.6949272  46.0695877  70.6343918  51.6298218  45.8852959
  71.0504608  50.6585999  46.9690857  73.6081696   0.7848285  48.4291573
  73.5895538   0.4433778  49.3231926  73.5210953   0.0093999  47.8747559
   9.7224922  58.7917747  39.1980362  10.0284233  59.6536751  38.9156036
  10.5182228  58.3297997  39.4618950   8.3866625  46.8944092  33.1917381
   9.2956362  46.7982483  33.4759026   8.4237766  46.8131027  32.2387199
  36.1562576  70.6194992  28.2702827  35.7425537  71.2191162  28.8911972
  36.9311180  70.2959518  28.7297821  45.2263641  21.9347515  79.4381638
  46.1538010  21.8962193  79.6718597  44.7750320  22.0723457  80.2709885
   1.8976024  12.8224983  25.2991352   1.2542802  13.1072607  24.6500759
   2.3390989  13.6280584  25.5681839  57.1099815  71.2181320  61.5236740
  58.0272980  71.3502045  61.7630959  57.0859032  70.3404007  61.1425743
  62.6161957   8.1288528  30.9340324  62.9513817   9.0022612  31.1366158
  63.0289040   7.9012170  30.1009159  81.5222855  47.4397163  19.6952934
  81.9547501  47.8097572  20.4648838  81.7356567  46.5071030  19.7259235
  28.1006927   0.5568730  65.7768021  28.4710369  -0.2851766  65.5121689
  28.8343639   1.0275044  66.1723557   2.5002372  42.4823494  13.8759604
   1.6560487  42.3623428  14.3109035   3.0983329  42.7348061  14.5793667
   9.7156610  40.3540611  34.8810616   9.5604143  40.1772079  33.9532394
  10.1430197  39.5622368  35.2075768  24.5881882   9.2082920  33.0186234
  24.9499722   9.1206608  32.1367722  24.1350212  10.0513687  33.0089111
  44.3509903  16.9832726  52.1778908  44.3196411  16.0659447  52.4494743
  43.9509201  16.9894238  51.3083267  82.9311981  28.1045837  63.7564316
  83.1735077  27.1820526  63.8367538  82.2022476  28.2147846  64.3669357
  30.5936317   2.5710664  51.2889786  30.0482674   2.7374249  50.5201263
  31.0917797   3.3796039  51.4087639  58.6394424  70.7796326   2.6144335
  59.5705566  70.5962143   2.4894962  58.5331154  70.8432999   3.5635772
  30.1850433  28.9869251  25.1930981  29.3690186  29.0065327  24.6931458
  29.9858627  28.4434395  25.9554501  48.9034195  13.6796999  75.6580658
  49.5837593  13.7144918  74.9856415  48.8278313  12.7503481  75.8744507
  70.1297302  67.6550980  10.1116400  70.0976105  68.2312546  10.8753424
  71.0129242  67.2863541  10.1267805   3.2416306  16.4091682  62.4434204
   3.8461883  17.1282768  62.2600517   2.4208496  16.8408432  62.6805000
  70.9482040  64.2367935  43.2683678  70.0797195  64.4263077  43.6234169
  70.7840805  63.6346169  42.5426369  80.6003647  40.5036621  46.0467339
  80.1940536  40.9275818  45.2907982  81.2760773  41.1187935  46.3317833
  45.5249863  53.0679398  64.0422287  45.9183350  52.2701111  64.3957596
  45.9818802  53.7793808  64.4909286  20.7254028  31.2904949  72.2033081
  19.8362141  31.2339401  72.5531311  20.9091778  30.4111252  71.8729095
   2.0326557   2.9331896  53.2644005   1.3053703   3.1140890  52.6689491
   1.6190788   2.5511374  54.0384941  24.3558693  44.9921608  30.2867603
  25.1012268  44.3994827  30.3837490  24.6700191  45.6775551  29.6970329
  27.6055965  68.4983521  15.6410208  27.6056499  69.2509003  15.0494957
  27.3332272  67.7626419  15.0925884  52.9946327   3.1239011   5.1582870
  52.4864578   3.8494527   5.5210032  53.6902695   2.9749818   5.7987151
   0.3575328  31.7896233  42.2911873  -0.5823114  31.7762985  42.1102257
   0.4802179  32.5456963  42.8652382  82.9922638  44.0666428  79.0291901
  83.6246567  44.3940773  79.6688004  82.8206024  44.8148804  78.4574356
   8.0449047  56.4679070  49.9757271   7.4780579  55.7457199  50.2465782
   7.5011868  56.9913139  49.3869591  31.5172386  24.4073868  15.6776495
  31.7061901  23.5756817  15.2431440  32.2273636  24.9876614  15.4033651
  74.7154541  62.1189880  78.8545609  74.0344543  61.6782913  78.3463745
  74.3543930  62.9864426  79.0372925  59.6879311  16.3387089   0.8597778
  59.8688431  15.5355568   0.3714637  58.8504753  16.1724243   1.2925018
  51.5623207  24.8288116   4.8079176  50.8480225  24.9744759   4.1876049
  51.1334839  24.7930946   5.6629343   4.1450119  62.8249283  25.5683823
   3.2211430  63.0336189  25.4300156   4.1832061  62.4892502  26.4639797
  67.3454971  61.0772209  55.2410583  66.6440506  61.7272034  55.1994553
  67.1139374  60.5222778  55.9858093  62.3181419  44.3455162   6.9146199
  61.9995918  45.1898804   6.5955491  63.1491890  44.5495911   7.3435078
  53.6391411  36.6103096   5.3857002  53.6617966  37.5407181   5.1619487
  53.0421638  36.2242928   4.7447338  46.7138901   7.8727713  28.0950317
  46.6011505   7.7539601  29.0381145  45.8614655   7.6485195  27.7217827
  79.0193634  28.5938797  74.8914795  79.7173615  29.1014805  75.3054504
  78.5968170  29.2106991  74.2938004  20.0215626  53.7055969  15.3269072
  19.2345638  53.2015724  15.5338545  20.7414188  53.1792984  15.6748295
  78.6872177  28.1866379  81.3133316  79.1432571  28.8269596  81.8594589
  78.7643051  28.5321884  80.4240189  15.8219967  62.3039627  75.0775452
  16.5221348  61.8515930  75.5480804  15.6711588  61.7676697  74.2991714
  84.2848358  36.7453079  11.8538885  84.6984406  36.3400192  12.6160612
  84.6739426  37.6185570  11.8062935   5.7068481  47.1322899  33.8922119
   5.4268613  47.3972740  33.0160713   6.6618357  47.0965233  33.8378830
  47.8516197   5.3795905  41.6700211  48.7229118   5.5575099  41.3158646
  47.2739792   5.9788356  41.1972961  62.0210953  67.3797760  26.7792625
  61.1729965  66.9408951  26.7133045  62.2004700  67.6889725  25.8913155
  49.0473289  26.0608273   9.5902233  49.2556381  25.1296482   9.6660089
  48.5778008  26.1343746   8.7593431  58.6176567  25.0155220  21.4321785
  58.7949295  24.1202183  21.1436710  58.3299866  25.4698162  20.6402836
  41.6117706  54.4514503  58.7278481  42.1779823  54.3381233  57.9644432
  41.9890137  53.8761215  59.3933678  13.1699591  54.6083221  75.4891586
  12.3784542  54.2023888  75.1356430  13.0025978  55.5490532  75.4321671
  69.9119720  49.5403252  33.5636520  70.0520782  50.4835091  33.4799576
  70.6571655  49.2323303  34.0794716  34.2848663  63.9827156  15.0836592
  34.6568680  63.3198586  14.5018787  33.8620300  63.4801369  15.7799749
  65.7862625  26.8437061  36.8724289  65.0494232  26.2335911  36.9047928
  66.4785538  26.4098434  37.3711624  74.2315369  25.0093288  40.8130035
  74.9110565  25.3107986  40.2100143  74.4848557  24.1121559  41.0301323
  86.6605072  34.6616249  60.6084213  86.9178848  34.1594696  61.3816109
  86.7398071  34.0420418  59.8831177  30.4312401  33.2774696  84.5287781
  31.3108158  33.3664398  84.8957443  30.1220131  34.1776047  84.4269638
  14.6246004  32.3061714  86.9533081  13.9801207  33.0137444  86.9679642
  15.1018801  32.4338608  86.1334763  46.1759453  13.3358583  27.4881954
  46.7190361  12.5491209  27.4399300  45.2778625  13.0113811  27.4219036
  55.1422882  55.4967613  61.9178009  55.7758141  56.2068176  61.8143616
  55.6680679  54.7442856  62.1890450  82.4580917  70.1062546  19.2566242
  82.8001938  69.2603912  19.5459766  82.2067184  70.5522842  20.0653839
  82.8816757  23.0084572  23.7947712  83.1559525  23.2561531  24.6777477
  82.4220123  23.7791748  23.4617062  54.9144516  50.5108833  83.0104675
  54.6298294  49.6937943  82.6010971  54.2995033  51.1684952  82.6854858
  32.0458717   8.1403522  34.5139771  32.1204529   7.4626160  35.1857948
  32.7882996   8.7220802  34.6771545  59.3771210  50.6745949  75.6021805
  60.0359001  50.1377335  76.0426636  59.8822708  51.3494263  75.1486893
  70.9967422  29.4924393  88.1364670  70.3012009  28.9221573  88.4639282
  71.3496857  29.0281525  87.3774567  62.5056610  40.4276085  36.0394783
  61.8951111  40.7732658  35.3883400  62.5056458  39.4821968  35.8897095
  72.6132050   1.0136125  13.1915045  72.0886536   0.2149801  13.2485695
  72.8512573   1.0782398  12.2666311  26.8698082  58.6706657  64.3127136
  27.5684948  58.7223892  64.9649353  26.0709076  58.5519981  64.8264313
  21.0271873   9.3038607  13.4035616  20.2938232   9.7049665  13.8699560
  21.7570419   9.9079266  13.5401249  45.4095345  39.8738861  50.9352951
  44.9834824  39.4668159  50.1809692  45.3430862  39.2189484  51.6301880
   1.3121871  18.9757156  41.7944679   0.4856521  19.4558506  41.7440567
   1.9858876  19.6459122  41.6795959  56.7728920  40.6573029  43.8538094
  56.6953545  39.9731331  44.5187378  56.4937897  40.2346535  43.0415916
  12.9312334   5.8918386  15.7937546  12.7752190   6.2137780  14.9059229
  12.5091906   6.5376735  16.3603306  11.4232121  18.2476883  10.2974405
  11.4157724  18.4967155   9.3732309  12.1502171  17.6296539  10.3731213
  77.7640228   3.6678224  43.4881592  77.6374359   3.5405481  44.4283752
  78.6999283   3.8453541  43.3943634  68.9639740  69.9586029  21.9594383
  69.3393402  70.7500916  21.5735950  69.6794434  69.5779190  22.4687634
  47.5919075  20.6634712  72.7183380  47.5029716  21.5129795  72.2863007
  48.1847382  20.8285332  73.4515076  23.8079185  29.5963078  71.9555664
  24.5240650  29.0249634  71.6781998  23.0187702  29.0692730  71.8302155
  32.0510483  54.2596855  17.8084335  32.4704552  54.8123589  17.1489792
  31.5005989  54.8610649  18.3100090  32.4458427  61.1618423   3.8660133
  31.9523640  61.9107704   4.2004099  32.1316566  60.4187241   4.3810787
  16.4408531  65.4576263  62.6070633  16.4598923  64.8622437  61.8578033
  15.5392714  65.7778854  62.6356468   4.2890534  37.1235275  18.4638920
   4.7134438  36.3619690  18.8590584   4.8418598  37.8632812  18.7156830
  42.8613701  15.9245558  70.8001480  43.4478302  15.4026327  71.3477707
  42.2917938  15.2812185  70.3783264  61.8999519  67.7198639  53.2333946
  62.2938194  68.5876465  53.1436119  62.6459999  67.1223297  53.2843857
  64.3248215   3.1350186  41.2958412  65.0817490   2.5525527  41.2324295
  63.9143944   3.0892780  40.4323082  14.1866140   0.6412138  77.4827194
  14.9381075   0.3238241  76.9819641  13.4806299   0.0317599  77.2673492
  10.1599197  20.8765125  41.1861687  11.0429211  20.7453136  40.8407288
  10.1723385  20.4506664  42.0433311  68.2194138  50.6880264  43.4132996
  69.1022415  51.0406876  43.3016396  68.1974030  49.9146080  42.8497581
   2.2942731  60.7375298  42.5668068   2.4611254  59.7951050  42.5516968
   1.6215631  60.8723946  41.8993492  16.8004665  29.4184818  32.5618782
  15.9288950  29.1197491  32.3023491  16.6594315  30.3021164  32.9017754
  65.2958145  36.9910469   7.0500617  64.7597885  36.9127846   6.2608938
  66.1723557  37.1963196   6.7248430  48.9095497  21.5174751  87.9919662
  48.2744331  22.1271267  88.3677139  49.1240845  21.8915920  87.1374207
  60.7533836   7.5897770  60.2811699  60.2886848   6.8072848  59.9845390
  60.7329636   8.1803522  59.5281525  75.5347061   8.4383211  62.8967781
  74.8447266   9.0651178  63.1142197  75.6339417   8.5110989  61.9475212
  53.8032074  58.4431534  16.5134697  53.9367981  58.2540932  17.4422550
  53.2134438  59.1970367  16.5049171  59.5617752   5.3509059  56.0525093
  58.6253204   5.1616683  55.9935799  59.8261642   5.5347409  55.1511002
  45.7995415   4.3098941  88.3375320  46.4384499   4.6482463  87.7101974
  46.3128815   4.1180844  89.1223373  37.9147644  53.1015816  66.6900635
  38.2055397  52.2274475  66.4301300  38.1882896  53.1831551  67.6037140
  18.4827080  54.8875618  50.3966599  19.1951065  55.0937843  51.0018005
  17.7874603  54.5394173  50.9549217  75.0194931  67.0395508  79.0060272
  74.9123917  67.6775360  78.3005219  74.9090195  67.5492477  79.8086700
  68.7212677  61.6303978  86.0489197  67.7944260  61.8695450  86.0520935
  69.1784592  62.4406548  86.2740707   2.5151870  39.9996185  16.1266193
   2.0147512  39.3801727  15.5955057   1.8791509  40.6703148  16.3753357
  86.9431534  33.7297363  86.2117767  86.1013947  34.0957031  85.9402008
  86.8646774  33.6265526  87.1601562  55.5968399   4.5553150  45.9833107
  54.7420807   4.2644892  45.6654510  55.8252220   5.2919965  45.4164124
   8.6903324  17.5294380  10.6899567   9.5678415  17.8166828  10.4375706
   8.1375484  18.2985668  10.5517492  20.5785542  17.2336693  78.1706543
  20.1973896  17.9552155  77.6703339  21.4694519  17.5230904  78.3675461
  77.0290298  43.4939880  16.4566822  77.8493881  43.8440399  16.8041039
  76.3722610  43.7269058  17.1129189   6.5440350   5.1763396  46.6255798
   6.8132167   5.2029719  47.5437660   7.1696935   5.7443662  46.1759911
  80.9395905  25.0884132   5.3829446  80.5740814  24.2186718   5.2211237
  81.1473007  25.4267673   4.5119667  57.1123772  55.5145988  77.2282257
  57.9886551  55.2098846  76.9926071  56.6610069  55.6168518  76.3903427
  36.9664154  66.7529678  18.7613201  36.2850304  66.1012497  18.9262791
  37.7867126  66.2906876  18.9334774  78.9178238   3.1150944  61.1146278
  79.4553070   3.8921697  61.2679176  79.2350693   2.7648339  60.2822227
  75.9538651  64.6857681  68.1826401  76.6203232  64.6562347  68.8690796
  75.7652817  63.7668533  67.9922104  27.6217937  68.1023636  75.2917557
  27.8445168  67.2483139  74.9213104  26.7948246  67.9559402  75.7510071
  14.2610788  15.4796438  19.1648998  14.0908585  14.6624098  18.6965141
  13.5280399  15.5633507  19.7747173  60.4077988  61.7020988  68.4399109
  61.2188148  61.3170280  68.7718811  59.9644966  62.0361176  69.2197418
   6.7254143  33.8995094  25.4897747   6.9308219  32.9954720  25.2515430
   6.5784044  33.8705711  26.4351768  42.1618614  57.9885941  35.2366562
  41.4373093  57.8741875  35.8516083  42.9222183  58.1613464  35.7918510
  45.9156761  49.7563286  36.4242210  45.9449501  50.4480553  37.0851974
  46.7973595  49.3837090  36.4282761  30.7010021  63.1959000  21.9650917
  30.0330391  63.5269661  21.3647137  30.7568951  62.2606583  21.7690468
  76.8284607  19.7290783   7.4554787  76.0709763  19.9700508   6.9222035
  77.5135651  20.3422966   7.1893396  62.2704201  50.4446487  68.8161469
  61.8638268  49.6110916  68.5792999  61.5887032  51.0974503  68.6569595
  83.4366760  22.9948235  32.4282684  82.9893188  23.6689377  32.9398041
  84.1607132  23.4563065  32.0051346  82.7637558  37.1229782  59.4756584
  82.1666260  36.7694359  60.1349525  82.8578491  36.4179649  58.8350868
  75.7300949  51.2023125  86.7890320  75.4784775  50.4574509  87.3350143
  76.6232376  51.0027542  86.5084915  77.1693420  62.5649223  13.5637465
  77.5860672  61.7204437  13.3922071  76.2506485  62.4303093  13.3311262
  40.3886795  54.4115448  39.3264275  40.6836319  53.6645279  38.8056602
  39.5252838  54.6244545  38.9722404  85.6940536  25.8669605  35.1423302
  84.9549255  25.5975418  35.6876068  86.4582596  25.7719822  35.7108459
  51.2989197  69.2163620  55.9604111  50.5315666  68.7152023  55.6843033
  52.0351944  68.7858582  55.5259056  85.5611877  58.9104233  43.9552574
  86.2576752  58.6134567  43.3696365  85.1093826  59.5952225  43.4621468
  72.7699661  25.9508572  44.5960236  73.6224136  26.3857918  44.6159210
  72.6046448  25.7061043  45.5065193  62.8666039  29.4472446  59.7679520
  62.9327507  28.9182301  58.9729652  62.0456581  29.9290810  59.6673927
  56.3709259   1.9635042   4.0188613  56.4218788   2.8052871   4.4716716
  56.9668465   2.0550048   3.2753971  28.8045330  60.3050308  74.8444290
  29.5974541  60.8230095  74.7058411  29.1163807  59.4906464  75.2390900
  68.3457489   4.4107862  66.8399277  67.9346161   3.7240562  66.3149414
  67.6164856   4.9571257  67.1330643   3.0448141   5.0479617  57.1281052
   3.3140552   4.3647871  57.7421188   2.1133120   4.8840923  56.9808540
  68.5007095  69.2038574  59.9146156  68.8281250  69.6593781  60.6902008
  69.1326370  69.4159927  59.2276611  17.1877251  22.9477844  87.3029251
  17.6071167  22.2403431  87.7926865  17.8988514  23.3458385  86.8008423
  55.7166862  48.8383102   4.1673193  55.4648438  47.9748268   4.4947319
  54.9706650  49.1208000   3.6382780  55.5687447  51.6156349  39.7793579
  54.9443321  51.3646507  39.0986633  56.4272156  51.4892502  39.3752708
  28.0293941  44.2484436  25.0991001  27.3282185  44.7921677  25.4581985
  28.3168659  44.7155952  24.3146515  12.5009308  64.5709839  17.4535961
  11.5910301  64.6470413  17.1663151  12.4570179  64.0433655  18.2510395
   5.5636520  34.9747314  43.5608864   5.3228221  34.1364365  43.9552193
   5.2549796  34.9117126  42.6570168  14.0564785  26.4272614  82.5981140
  14.3106222  27.0123158  81.8844223  14.0282068  26.9908504  83.3712845
  71.6976700  41.2791328  29.3422985  70.8531876  40.9545898  29.0296383
  72.2903976  41.1578293  28.6005459  36.5185089  60.2468071  27.1645622
  36.4055290  59.3443832  26.8660679  35.6842537  60.6714172  26.9646778
  83.3559723  35.8519402  26.6034813  83.3388062  36.1813736  25.7049198
  84.2804794  35.6732254  26.7754421  24.5590019  18.7410183  86.8159790
  24.5412502  17.9370804  86.2967529  24.6555634  18.4404354  87.7196198
  79.5989838  10.0930119  70.6641159  78.7368240   9.8402605  70.9943085
  79.4158173  10.5594368  69.8485641   6.4193563  30.5777645  67.2699051
   6.7512212  31.1806564  66.6046066   5.5346189  30.3604393  66.9762344
  72.6078186  52.3923836  55.5166245  72.4237137  51.5870094  56.0000648
  71.7813034  52.6061096  55.0836983  49.1904755  52.9661369  62.8666496
  48.5578117  53.6662521  62.7060127  48.6533241  52.1932259  63.0407600
  18.6045742  20.1525116   6.1048889  19.3915367  20.5358410   5.7176142
  18.0314827  20.9005833   6.2727723  72.0961456  20.9323311  74.0052338
  71.2220917  20.5445614  74.0488129  72.5034256  20.5199146  73.2434769
  19.7055836  68.0667191  47.3454514  19.2893085  68.8903275  47.5996475
  18.9977970  67.5490952  46.9616127  63.9132309  67.5548096   9.2379103
  64.8635635  67.6582336   9.2869139  63.6956940  66.9867630   9.9769812
   3.9912708  64.6951523  49.9838486   4.7656183  64.1636505  49.7991257
   4.2626376  65.2743530  50.6959724  79.0418777   7.8552756  34.5460930
  78.6577759   8.2472115  33.7618179  78.3575745   7.9304938  35.2111473
  20.1906319  53.3882484  43.9847488  19.8180771  54.2259560  43.7096558
  20.4433250  52.9586029  43.1675720  20.8837013  32.7529106  81.1771774
  20.9545574  31.9914074  80.6015625  19.9492416  32.8182182  81.3740387
  84.0574265  24.2489777  60.8938065  83.1324158  24.0047436  60.9242783
  84.0524826  25.2061634  60.8919029  17.1824036  39.2775650  17.8078537
  17.6774063  40.0413895  17.5115757  16.8834610  38.8581886  17.0010166
  78.9577255  46.1383171  56.8286438  79.2352371  45.6416550  57.5984116
  79.6522217  46.7837105  56.6968498  70.8073959  12.1195412  69.1653061
  70.0613708  12.6504297  69.4442978  70.5519943  11.2203999  69.3715668
  75.4876556  67.7125473  55.3988609  76.3081436  67.9828415  55.8111229
  75.2472916  66.9039688  55.8512611   4.9940109  27.2870827  66.3093719
   5.0172606  26.3949795  66.6555557   5.8974981  27.5951538  66.3803329
  60.3728638  62.9993858  84.4094391  61.0225868  63.6958427  84.3143692
  60.8615456  62.1922951  84.2481232   8.7640209  16.7300968  80.5791855
   8.0531683  16.7166615  81.2200699   9.5575800  16.8359413  81.1038666
  81.9028778  23.6885719  -0.3001119  80.9945145  23.9003983  -0.0850618
  82.1858215  23.1049480   0.4038438  19.7315598  20.4537048  26.9134216
  20.4852734  20.8863392  27.3146400  20.0850983  19.6389942  26.5563698
  85.7335434   2.6773028  56.9156914  85.7079163   2.3380802  57.8103981
  86.2386169   2.0271335  56.4274101  43.1606331   1.8629878  33.5851746
  43.4702797   2.0784690  34.4649048  42.2543106   1.5825293  33.7122726
  44.5028648  70.8206177  40.3417511  44.8100471  71.0691376  39.4699059
  45.2909698  70.8295288  40.8849297  43.3738785  24.4975109  74.0705414
  42.4872551  24.4395466  74.4265823  43.7891045  23.6739311  74.3265457
  74.8225327  17.0368767  78.7553558  74.7540359  17.0723362  79.7094421
  74.9343643  17.9494953  78.4891739  35.9254837  60.7468071  51.3797531
  35.4399109  59.9256210  51.3016129  35.3940277  61.2843666  51.9669647
  21.2167835   5.2422528  27.3140869  21.5371475   4.5108047  26.7862778
  20.4577351   4.8886261  27.7777939  15.2994299  37.5761070  79.2364731
  14.6841793  38.2920265  79.3950958  14.7750750  36.9005089  78.8065338
  14.0780191   6.1008682  82.6605530  14.6152678   5.5044546  82.1391220
  13.7596159   6.7483501  82.0315704  56.4104195   9.7079287  19.1779785
  55.9302483  10.3403845  18.6435013  55.8666954   9.5909948  19.9570312
  83.9014740  45.2885590  58.0376892  84.7091141  45.4894409  58.5105553
  83.5267639  44.5444412  58.5089722  10.7537222  45.6335335  75.4875565
  11.3184042  45.4281273  76.2326584  10.3013029  44.8119812  75.2962570
  69.8534470  33.3417397   5.0025229  69.7038803  34.0593719   4.3870025
  70.5014877  33.6849823   5.6177115  71.5390015  27.1110935  72.3825226
  71.9026794  26.5695572  71.6820145  72.0103912  27.9412460  72.3127747
  65.2651596  48.1449127  71.1334534  64.4557419  47.9543571  70.6593475
  64.9806366  48.3296051  72.0285339   1.6238732   8.9849024  30.9991951
   1.1703553   9.7766848  30.7099991   1.7567492   8.4787264  30.1977196
  51.7675819   6.0087523   5.2028308  52.3411560   5.9128113   4.4425411
  50.8954048   6.1376791   4.8301206  26.1747704  10.2661581  74.7210770
  25.9786682  10.5856199  73.8403244  26.0485630   9.3189201  74.6658936
  11.5321932  10.5196123  51.8478966  11.1181488  10.5964689  52.7074852
  12.1365690   9.7828550  51.9381752  23.3841476  20.0372143  75.6120377
  22.5165291  20.4061146  75.4465637  23.3663216  19.1815434  75.1833878
  69.3660049   1.1979120  45.0613594  69.2646484   0.3154970  44.7045631
  69.2575989   1.0881962  46.0060501  75.9114075  47.8987579  53.1375656
  75.3777695  48.6906052  53.2042122  76.3449249  47.8297920  53.9881744
  60.6493950  49.2271843   3.8617587  60.2850151  50.0950050   4.0359693
  60.2397575  48.6598892   4.5149045  50.0641594  37.8616753  60.2593613
  49.1872063  37.8446617  59.8760872  50.5550766  38.4702950  59.7072601
  56.1335869  60.3260841  85.8095322  55.9186325  59.8848343  84.9877472
  55.3771057  60.1642990  86.3732605   0.9110984  20.7260780  25.1324196
   0.7404371  20.8678036  24.2012806   0.1788242  20.1866226  25.4307404
  79.3282318  38.6666145  84.1221924  78.5052872  38.1912498  84.0080948
  79.8789673  38.0729637  84.6325760  29.7680092   0.5615515  42.8885994
  29.6097927  -0.1409468  43.5192299  30.5098248   0.2534807  42.3679886
  36.4065056  38.1846428  16.3806038  35.6399536  37.6601715  16.1491814
  37.1503143  37.6795845  16.0521259  68.6394043  37.0254593   1.1959670
  68.7868347  37.8128662   0.6720520  67.8650360  37.2284431   1.7207261
  57.0161667  19.6916580  58.9502144  57.8606110  19.7251568  58.5007439
  57.2300835  19.8317375  59.8726311   9.0602722  65.2380753  85.1816711
   9.8637018  65.2710190  84.6623917   9.3540564  65.3550186  86.0851364
  61.5067291   1.4489045  46.8624496  61.0888481   1.0199654  46.1157112
  62.4119339   1.5869941  46.5835800  30.9982662   6.6893029  70.5252991
  31.0515995   6.4089122  71.4389572  31.3962936   5.9726000  70.0311890
   7.0937715  52.1730232   2.9867485   7.0059710  52.9536095   3.5337451
   6.3804955  51.6008224   3.2696877  22.5416241  39.6982994  62.8565598
  23.4070835  39.3860970  62.5924759  22.3991299  40.4840431  62.3287964
  28.9274921  62.5496101  59.0088692  28.9189262  63.2952499  59.6090202
  29.4876537  62.8308487  58.2854385  61.3170433  69.9541092  16.1014194
  60.5299187  70.1743240  16.5995960  61.3687515  70.6290054  15.4246025
  18.0762539   3.4843225  86.0881042  17.6759796   3.8821771  85.3149719
  18.5305500   2.7117898  85.7518845  71.3278885   4.5807366  49.6366959
  71.4750290   5.3072190  49.0310516  70.4839249   4.7757015  50.0440636
  60.5732727  50.3381882  46.9513626  60.8666611  50.8773499  46.2168808
  59.8684769  50.8453178  47.3542442  36.8607864  71.2117462  72.4671249
  36.7985573  70.4665833  71.8695526  37.4456139  70.9123383  73.1632309
  70.1797104  15.7682791  51.0704613  69.2852783  15.4647989  50.9151573
  70.0989456  16.3928719  51.7912903  19.6918621  66.6489639  72.2538071
  20.0338345  66.1523514  71.5103989  20.2111645  67.4529877  72.2639694
  63.3560486  37.4353409  58.8996353  62.5393295  37.8863754  59.1135826
  63.5260773  36.8755569  59.6572418   8.6014824  25.2490711  11.8803644
   8.0234709  24.4889488  11.9462929   8.0386705  25.9962578  12.0833139
  13.6123600  53.5556068  34.7874489  14.3683634  54.0500946  34.4709511
  13.2675686  54.0811653  35.5093498  36.6087761  18.4582596  25.9612789
  37.0860291  19.2771931  26.0947304  36.5756073  18.0561905  26.8293056
  81.4721375  29.3664722  23.2982979  80.7683334  29.4477253  23.9419498
  81.0223236  29.3379250  22.4538574  21.0057468  58.0181313  51.2797890
  20.3909912  58.2379417  51.9797821  20.8080902  58.6432571  50.5823784
  74.4797668   0.3471506  51.1408386  74.5729523  -0.5434303  51.4790916
  75.3782806   0.6653275  51.0532570  34.7793159  67.3936386  27.7785511
  34.6126785  67.6839523  28.6753139  33.9154968  67.3813400  27.3663635
  60.6374512  45.5458679  30.9904709  61.3916016  45.0563202  30.6620922
  60.5929260  45.3220367  31.9200649  16.8294239  24.1410255  81.2416306
  16.6479416  24.5846863  82.0701599  16.1534271  23.4663181  81.1781464
  43.8211479  38.0438004  70.1707840  44.3911591  38.0193214  69.4021988
  43.3805542  38.8917580  70.1153030  67.6486359  58.6156006  44.5014572
  68.4548035  58.1028137  44.4432793  66.9569397  58.0038528  44.2493706
  16.2144585   2.4050431  65.2453232  15.8999720   3.2048478  65.6668015
  15.4538784   2.0693226  64.7709351  51.4632683  53.6998215  18.1829910
  51.4257240  53.3695221  17.2853680  51.6487160  54.6339569  18.0869102
  67.5806961  44.8366013  35.2350845  66.9177704  44.3438568  34.7513771
  68.2816544  44.9824715  34.5997810  45.9272537  65.7347031  39.4222908
  45.5588150  65.3115845  40.1978264  45.4567223  65.3402863  38.6879463
  61.5812912   5.2505088   3.0760388  61.6525879   5.8453894   2.3295362
  62.4605370   5.2340994   3.4540496  57.9457474  52.1612663  24.5441246
  58.4565773  51.6770782  25.1928539  57.8539200  51.5540924  23.8098621
  48.1676636  23.1385098  77.2940369  47.6422462  23.9005871  77.0503006
  48.9940796  23.2577610  76.8260117  15.8656425  46.7845840  28.6001854
  16.3813152  46.9958153  29.3784504  16.3182774  46.0376778  28.2084122
  68.2253418   1.4625787   3.9520333  69.1490021   1.4070290   3.7070785
  68.0830765   2.3900561   4.1411815  37.0138664  49.3487968  74.0947571
  37.7745895  48.9087219  73.7154541  37.3833389  50.0730782  74.5998611
   2.7354548  56.5188866  25.2174740   3.3420422  57.2454758  25.3601284
   3.0031068  56.1447144  24.3780766   0.6208628  52.3515053  44.4988976
   0.1004989  52.8698845  43.8851089   0.0780922  51.5855026  44.6856346
  66.6068497  53.3255997  60.9042969  66.0960083  52.7308006  60.3552132
  67.0860596  53.8733940  60.2825966  27.6798382  49.1041832   9.9522591
  27.3889656  50.0159874   9.9678230  27.0634708  48.6661415   9.3653679
  12.0858507  53.6653442  21.7367821  11.8677521  54.5936203  21.6532917
  13.0040789  53.6584167  22.0070419  16.9865398  70.3219681  30.3111973
  16.6565151  69.6414948  29.7244473  16.3856506  70.3079529  31.0561562
  55.2085228  13.0484076  80.6297302  56.0498962  12.7957449  81.0098419
  54.6334267  12.3034239  80.8043594   5.1234164  17.5080280  66.8470001
   4.6983147  17.9798584  66.1308289   5.2537227  18.1700649  67.5259399
  31.7052727  56.0613937  76.9260483  32.5853920  55.7493782  76.7156448
  31.1864891  55.2635574  77.0287476   7.0462914  46.8078156  27.7875423
   7.0878725  47.0857315  28.7025642   7.8845911  46.3731232  27.6309223
   6.2112894  49.9342537  73.5756302   7.1316166  49.6766319  73.6291275
   5.8130836  49.2819252  72.9993210  45.2443886  35.3380318  75.0109253
  44.6277313  35.6751442  74.3610687  45.1080894  35.8913002  75.7800522
  54.2861519  26.6367397  55.2655869  55.2223854  26.4874725  55.1336174
  54.2435379  27.2789841  55.9740639  39.6046524  22.0028477  15.3037834
  40.0476227  22.7155037  15.7643585  38.8694229  22.4252052  14.8596144
  67.4823761  68.5016403  34.0484123  66.9860916  69.0613480  33.4512024
  68.1510849  69.0786438  34.4173660  57.9023972  59.7957840  82.9435196
  57.9141083  60.7424583  82.8024368  57.4311066  59.4467010  82.1870422
  82.0906601  21.1211052  28.4671268  81.6793365  21.4129868  27.6535835
  81.4199677  21.2563267  29.1365433  27.7687302  47.7857780  78.1079483
  28.1024323  47.4299622  77.2843781  26.9190464  47.3609962  78.2255630
  76.7508621  70.1452103  42.9528427  75.9111633  69.7986069  43.2545128
  77.3725967  69.4337234  43.1060066   1.6559418  21.0244312  88.6679153
   1.5913024  20.1069260  88.4028854   0.7770097  21.2477379  88.9742508
  35.3994522  68.1842270  65.9480133  35.6837997  68.8443146  65.3158264
  34.6525497  67.7570190  65.5286484  86.5583267  28.1731224  12.9174528
  87.3457642  28.6317692  13.2103996  85.8908157  28.4074593  13.5622349
  65.0409241  10.5589209  67.4261780  64.1170349  10.4820890  67.6644058
  65.3767395  11.2551603  67.9907227   0.6857380   9.6510677  77.6600418
  -0.2318534   9.4076405  77.5375671   0.6563673  10.4113579  78.2408447
  75.1494293  57.5670433  27.3656254  75.6195831  57.9757919  26.6389141
  74.2364731  57.8230438  27.2344418  58.4969597  60.4068794  50.0798912
  58.5767097  59.5612755  49.6384964  57.7461891  60.3021088  50.6643562
  22.0665588   1.4712610  42.0239830  22.1900101   0.5898337  42.3762283
  21.1528168   1.4896716  41.7394371   3.3169618  60.5577850   1.3037351
   3.9590559  59.9896393   1.7293613   2.9364004  61.0672073   2.0192027
  50.8644600  50.3570900  44.5881348  51.0736008  51.2885666  44.6577072
  51.4598541  50.0275612  43.9149704   1.8355659  37.2974434  81.0449677
   0.9995655  37.7014580  80.8123550   1.8941783  37.3982658  81.9950333
  67.8947220  64.3434448  39.6802444  67.6452713  64.1637726  40.5867386
  67.1962891  64.9066696  39.3467751  53.2230072  33.0064812   3.3783906
  54.1106186  33.1044044   3.7230453  52.8352013  33.8773575   3.4645004
  65.9814987  55.2747002  28.0722866  65.3084335  54.6663170  27.7671890
  66.4828491  55.4911308  27.2861328  58.3102760  42.0982933   0.1038994
  58.5745392  42.7204170   0.7816605  57.8946495  42.6384964  -0.5681632
  65.7865067  70.7504425  15.7653580  66.4577866  70.5901413  16.4286251
  65.0029068  70.3214417  16.1090946  73.5526657   1.0815731  10.7782478
  73.7240829   0.4942144  10.0421371  73.4273911   1.9406310  10.3750629
  30.8561039  16.3338337  41.6141205  30.6803379  17.0543690  42.2192345
  30.0739880  15.7841291  41.6626244  64.2118912  53.6788254   8.1658926
  64.4496307  52.8555260   7.7394085  63.3675461  53.4992256   8.5794888
  19.6903419  54.3212929  59.8336258  19.0595474  54.0442734  60.4981499
  19.1710796  54.4156952  59.0350723  48.8011169   9.9382267   6.5600228
  48.0904503   9.4304619   6.1684146  49.1223984  10.4900436   5.8469238
  63.3750153  55.6378899  47.6616783  63.8044052  56.3314743  47.1608810
  63.6387634  55.7982750  48.5677376  60.7222290  33.5762444  31.9414520
  60.5331383  33.1149178  32.7585526  61.4761887  33.1144791  31.5746441
  46.5780373  14.7897291  10.5265970  46.6931343  15.6203508  10.9881716
  45.9591942  14.2989712  11.0673561  62.0886497  67.3271255  21.3498478
  62.0600929  66.4555359  21.7444859  61.1695251  67.5658035  21.2295361
  75.7215500  20.8982964  63.8159447  74.8515854  20.9423733  63.4191437
  75.6446228  21.4126911  64.6195068  66.1547623  29.0467548  78.3582153
  66.7796936  28.6104183  78.9372635  66.5015793  28.9008846  77.4780579
  50.4485130  14.1410027   5.2843494  50.0665245  14.9835920   5.5300341
  50.3723373  13.6043386   6.0732861  23.3597946  25.4119873  76.9174805
  24.2453346  25.3018169  77.2637711  22.7940903  25.0015163  77.5714874
  73.2985916  29.4005642  74.6696014  73.5304489  29.6087627  73.7645493
  72.3504257  29.2708378  74.6501770  20.1457310  55.8376808   4.4187598
  20.7192268  55.2621155   3.9127383  20.0419903  56.6150780   3.8700140
  22.5247707  24.8278046  74.4707031  22.9572926  25.4072495  73.8434906
  23.0658379  24.8810310  75.2585144  72.8898926  23.1480846  17.2291737
  72.2227020  23.7673149  16.9331303  72.3924637  22.4020214  17.5641136
  78.0230637  22.8032665  72.7754974  78.2413254  23.6225395  72.3312149
  77.1310120  22.9351845  73.0965576  81.7437820   5.8427148  14.3346844
  82.0439529   5.9442921  15.2379065  81.1303635   6.5657034  14.2034121
  44.6808167  43.0161591  14.8940668  44.6494141  42.7874260  15.8230047
  43.7792854  43.2514610  14.6747322  18.3789806   1.6953406  46.8075333
  18.0357609   1.3806876  45.9712143  17.7405548   2.3463790  47.0987244
  61.2559700  45.4538498  12.3047485  61.1665039  45.6306877  13.2412081
  61.6869850  46.2332001  11.9539385  32.9955482  36.9619408  12.6877203
  33.3717842  36.1362610  12.3828754  32.4341164  36.7127419  13.4218340
  63.7593918   2.4029944  45.7764282  64.4694366   1.7630215  45.8264694
  63.8610878   2.8066626  44.9144897  37.8126640  56.9251366  12.8990746
  38.4702682  56.5655479  12.3036880  37.0223885  57.0024948  12.3645554
  61.0482826  29.9969654  29.5336628  61.5525551  29.2683907  29.1715603
  61.6483536  30.4226418  30.1459904  79.4261551  55.6179924  40.0777702
  78.9919968  56.3450546  40.5239944  80.1942444  56.0139732  39.6661034
  74.8385468  61.9266968  64.8010406  74.5059204  61.3081856  64.1506271
  74.9965744  62.7314377  64.3074341  36.6858368  23.9893837  25.6877804
  37.4865112  24.4712181  25.4804478  36.0818558  24.2124538  24.9794884
   2.8698647  13.5375071  14.8770170   3.4174938  14.1350374  14.3678112
   2.0391629  14.0020227  14.9789534   3.6012125  23.1493797  49.1614723
   4.4647899  23.3555241  48.8037453   3.0739801  22.9186306  48.3966103
  45.2694092  67.5124817  43.9540253  45.3256721  67.4513092  44.9076118
  44.4464989  67.9736938  43.7917404  81.9973755   2.7953386  78.8459396
  81.5326462   3.4590285  79.3556137  81.6687622   1.9615693  79.1821976
  62.7124786  60.6961746  56.6558075  62.5558624  60.0376740  55.9789925
  61.8830223  60.7542152  57.1300087  48.7425880  54.7235641  81.7533112
  48.6862984  54.7020264  82.7086182  49.3179436  55.4647331  81.5639420
  57.6107330  61.3603859  87.7855530  58.3167458  61.9412384  87.5020142
  57.1384010  61.1469841  86.9808197   0.6057193  68.0812454  15.9670115
   0.5196495  68.5924988  15.1623764  -0.2957391  67.9099121  16.2395000
  74.5737610  44.4179344  39.0652390  74.1595612  45.2728004  39.1830101
  75.4552994  44.5277672  39.4216843  39.3561020  31.9194756  81.8983078
  38.8609123  32.5453529  81.3698196  40.2727509  32.1469383  81.7426071
  37.6627922  71.2279434  38.5513191  37.2599754  71.6539688  37.7947006
  37.8683777  70.3439560  38.2471352  43.3912277  55.5311699  27.9745884
  42.8934250  55.7219124  27.1795788  43.4611664  54.5766563  27.9901600
   2.9222631  34.3929443   0.8926441   2.1448586  34.8216858   0.5347959
   3.4249146  35.1029472   1.2919844  63.4246101  57.0209846  81.6571960
  64.3010101  57.0231018  82.0420914  63.2922554  57.9205284  81.3579712
  67.5159836   0.5259379  27.6918736  67.5419846   0.6259561  26.7402687
  66.6036377   0.3103471  27.8852062  19.7680817  41.8617973  64.3105774
  20.0793724  40.9572601  64.3443909  19.9914761  42.1591644  63.4285927
  81.5587234  58.3350792  71.6175385  81.6339874  58.5119438  70.6798325
  80.8418350  58.8975945  71.9105835  31.9346619   2.8545740   2.7179854
  31.1957436   2.5513582   3.2455204  32.3378334   3.5446460   3.2447553
  54.8497467  24.5628605  80.6835403  53.9569740  24.2471924  80.5437393
  55.3224487  24.3023376  79.8930283  22.8523617  53.0442619  73.6439056
  22.8002090  53.5387917  72.8260117  23.6447773  53.3700905  74.0706940
  53.7569466  62.9212914  70.7980423  54.6886559  63.0771523  70.9525146
  53.3117981  63.5637894  71.3505554  72.3050156  33.0559425  49.1344223
  71.4300766  33.3541260  48.8858032  72.2517242  32.9194107  50.0803337
  20.9739647  62.8965187  41.9209824  21.8625755  62.6938019  41.6285667
  21.0896778  63.2817802  42.7895546  78.0276947  15.7661486  74.7197495
  77.6319733  15.6584129  73.8548584  77.9869766  16.7078934  74.8861465
  85.9412384  32.0724945  64.8044434  85.1513443  31.5403214  64.8997421
  86.5806656  31.6579227  65.3836670  57.6899643  14.9639091   8.2162867
  57.7861938  14.0289984   8.0348635  56.9157295  15.2260876   7.7182355
   9.0947475  18.7958317  35.7858429   9.8815536  19.3409424  35.7904167
   9.3389854  18.0270500  35.2705193   9.4140100  65.8296585  19.0613194
   8.6227226  65.6529999  19.5701294  10.0949488  65.9714127  19.7189369
  75.5539780  58.4974861  21.0110111  75.7651596  57.6042061  21.2824593
  75.1027222  58.3929138  20.1733589  12.3370790  64.1652832  74.8052521
  11.4385271  64.4847412  74.8876343  12.6440735  64.0783997  75.7077179
  57.9432106  66.5748444  12.1202927  57.9860649  67.2218475  12.8244047
  57.6530685  67.0719986  11.3555136   6.7470760  55.3220215  70.3150711
   7.0325270  56.0866241  69.8149414   7.2845702  54.6035118  69.9817886
  36.0505066  39.8305397  11.9074316  36.3227005  40.6782417  11.5559454
  35.2972908  39.5801277  11.3724642  47.3862572  37.7522774  17.0752373
  48.2624550  37.8128738  16.6946621  47.3272247  38.5063820  17.6618118
  31.9067974  15.3490715  85.1547165  31.3492851  16.1018143  84.9577637
  32.1292801  15.4513988  86.0800552  61.4144249  26.1476707  32.6023636
  60.4683418  26.0048637  32.6299400  61.5322571  26.8486500  31.9612923
  48.8399048  45.6350555  52.6733131  48.5674515  45.6562195  51.7559509
  49.7542877  45.3533859  52.6451607  17.1205235  10.1844578  73.2999878
  16.6838684   9.4318991  72.9009628  16.6248569  10.9418077  72.9885941
  64.4501190  22.1225185   2.9582188  63.6747208  21.5622158   2.9906092
  64.2301254  22.8684063   3.5163264   3.7821801  29.1672764  88.4265366
   3.4995999  28.4908466  87.8110580   4.7268152  29.2370815  88.2886124
  81.5325165  12.1098804  32.7550278  80.8383179  11.7174702  33.2845001
  82.3442688  11.8130999  33.1663742  12.6419601  34.3692513  31.5450706
  13.5465546  34.0853271  31.6767006  12.2484713  34.3271179  32.4166336
  55.2683449   3.4000034   7.0425220  55.8203430   2.9152319   7.6561399
  55.8481903   4.0663161   6.6736865  20.4562092  25.6710663  83.6608658
  20.0453892  24.9527206  84.1419525  19.8433056  26.4008141  83.7505722
  66.9203949  65.4508362  66.3518524  67.2600784  66.0121918  67.0487976
  66.2464371  65.9799576  65.9251938  22.9992771  66.3692780  67.3341217
  22.4567356  66.6224518  66.5872726  23.3733330  65.5247192  67.0830688
  85.4323273  31.7476635  57.8595543  85.0034409  31.6698627  57.0073586
  86.0748825  32.4472198  57.7413368  43.8444176  22.3097706  77.2467957
  44.5777702  22.1570892  76.6508789  44.2399940  22.3093452  78.1184311
  17.8216305  69.9105759   9.5818014  18.3361568  70.4609756   8.9914217
  17.5383263  70.5045090  10.2769384  77.0175400   2.2104855  69.7289047
  76.6593246   1.3240325  69.7748795  77.8813477   2.0994456  69.3317490
  50.5250130  62.9763451  27.0473461  50.1660347  63.8157654  27.3349895
  50.6401825  63.0762901  26.1023712  62.4648743  18.1024437  48.7737274
  63.2251778  17.5267506  48.6915703  62.5877190  18.5429096  49.6146355
  13.6964064  55.2279396  24.4405785  13.3819065  55.9642487  24.9651508
  13.3654499  55.4028473  23.5596104   2.4317513  50.2605209   6.0746436
   2.2024972  51.1858063   5.9879432   1.6701547  49.7920380   5.7329907
  66.5725174  22.5347672  21.0284405  66.5188522  23.2343483  21.6795464
  65.6644287  22.3788452  20.7690182  38.4452515  47.1512260   2.4470944
  38.5512161  48.0072289   2.8621464  38.2821503  46.5508652   3.1745520
  23.8288879  26.0820675   9.5258570  23.2450695  25.9521351   8.7785244
  23.6306038  25.3535252  10.1141939  37.9556160  58.8563156  62.0818062
  37.5877266  58.4240150  61.3110847  38.7930908  59.2093964  61.7814713
   2.9185538  41.9104118  69.0080566   2.9643917  40.9568672  69.0778961
   3.3308613  42.2294579  69.8108292  46.4395943  33.1233139  72.1863251
  46.8561249  33.8407326  72.6638641  46.5666542  33.3441429  71.2636566
  56.3012428  66.2642365  40.7421646  55.6600075  66.7569809  41.2542725
  56.0903740  65.3464203  40.9135590  46.8048401  24.1236954   7.9739380
  47.2148590  24.4412975   7.1694226  46.3408012  23.3295574   7.7089033
  73.7908249  17.1930943  81.6750870  73.0862350  17.0722046  81.0385513
  73.6343994  18.0627003  82.0432587  81.9113312   3.6834245  47.9448586
  81.6088562   3.2696176  47.1364632  81.1085129   3.9543912  48.3901482
  67.8121414  41.9043312  24.4753532  67.5770874  42.7678871  24.1358604
  68.2750320  41.4806747  23.7525291  51.7566376  20.4853706  54.9256325
  51.7687798  21.2147446  54.3058739  52.5183372  20.6343842  55.4858475
  81.9664993  23.9610138  15.2623558  82.5256042  24.5414143  14.7458649
  82.5322952  23.6497078  15.9688940  45.8120079  66.7932281  12.8870897
  44.9103279  67.1144180  12.8934145  46.2278786  67.2323074  13.6290417
  60.4230461  64.5449524  56.7991753  60.5689125  64.4693604  55.8561821
  60.2586975  63.6475449  57.0888100   2.0399642  65.4383926   6.2873034
   2.9392393  65.6326523   6.5514975   2.1038268  64.6107178   5.8107400
  59.9332008  22.4831905  22.1825333  60.7524338  21.9887333  22.2070084
  59.9967461  23.0886974  22.9211502  82.0661469  22.7373619  83.4399414
  81.9578247  22.3767776  84.3199844  81.6907196  22.0736942  82.8612900
  29.0191326  54.4163055  21.6552963  28.8646946  53.9509926  20.8331871
  28.7618752  55.3197136  21.4711628  34.4272499  52.0891342  74.2164993
  34.9592819  51.5848274  74.8320160  33.5705032  52.1547089  74.6383057
  64.5082779  66.9055786  50.6485558  64.4759293  67.8172684  50.9383926
  64.4714127  66.9564514  49.6934204  84.6924973  62.4831123  62.4338570
  84.2874374  61.7757187  61.9321022  84.1861572  62.5216103  63.2452583
  85.4267578   1.3549405  80.9500809  84.9595337   1.5434072  81.7639618
  85.3444443   0.4076017  80.8405075  86.5336227   4.5812316  20.4993267
  86.1056290   5.4361939  20.5450954  86.2089462   4.1094875  21.2663174
  45.0436249  17.7068291  54.6041298  45.0736008  16.9749432  55.2203102
  44.7513275  17.3151798  53.7810822  31.2355251  50.0126381   2.0025470
  31.1096687  50.6927643   1.3408673  31.6741447  49.3018417   1.5349872
  22.9175224  66.1920624  23.4512482  23.4165516  66.7029877  22.8139439
  23.2823029  66.4449158  24.2993259  31.3764839   8.5536165  78.8008194
  32.2901726   8.7789087  78.6257401  30.9565735   8.5706596  77.9408112
  79.0920486  24.9114933  22.5596352  80.0064621  25.1797581  22.4695129
  78.7979431  25.3310127  23.3681755  21.5353451  36.3195877  66.4813156
  21.6846237  36.2065773  65.5426025  20.8623295  35.6737709  66.6962662
  80.9012146   5.3223362  62.0881271  81.8048553   5.0606976  62.2647896
  80.6933212   5.9487071  62.7814331  83.2940445  56.2326012   5.9124770
  83.0226288  55.9502792   5.0390592  82.8451920  55.6328201   6.5083179
   3.1445291   2.7712498  45.5704231   3.9366069   3.1264744  45.1671104
   2.8575213   2.0836251  44.9695663  67.1478500  37.4055786  40.2256165
  67.8582382  36.7727432  40.1202545  67.3609085  37.8724976  41.0335922
   6.9842238  66.7073059  39.1406860   7.1299672  65.8286514  38.7900429
   7.4321103  66.7049332  39.9866333  33.2262993  68.5363998  13.7171535
  32.2873459  68.4223862  13.5701942  33.4693718  67.8083115  14.2890196
  29.3876686  66.3628540   5.1996660  30.1863003  66.3609085   5.7273178
  29.6863060  66.5690460   4.3139277  59.0987663   6.0128403  21.6123390
  59.3832588   6.6583343  20.9653206  58.4225845   6.4631095  22.1185665
  58.9146690  24.8696976  69.0906677  58.5347443  25.3706512  69.8124313
  58.2422752  24.8834457  68.4095459   9.8615446  28.5907059  27.2962608
  10.3114128  29.4318161  27.3761845  10.4214106  27.9738903  27.7677670
  29.6569176  29.7868347  11.6077805  29.8515720  30.6187973  12.0392666
  30.4987011  29.4964333  11.2566366  41.0353203  58.3518105  50.5742569
  40.4035034  58.0757103  51.2381897  41.6517639  58.9103317  51.0478401
  33.6481743  33.0020523  73.2313690  33.4596901  32.3151436  72.5919418
  34.0780144  33.6903839  72.7237625  48.5243301  67.5447006  25.3420620
  49.1601944  67.5695190  24.6270123  48.8481026  66.8595200  25.9268150
   4.8901119  56.5401764  56.2658234   3.9494841  56.5186310  56.4418564
   5.2514243  57.0896301  56.9613724  61.6104507  52.2792702  13.4932098
  61.8411674  53.0805359  13.0231342  60.7000809  52.1121368  13.2492189
  49.0117531   3.3408031  52.2070961  49.7105980   3.0256598  51.6339188
  48.5231705   2.5527208  52.4446754  47.7803383  67.4765091   2.6116171
  47.0725670  68.0837173   2.3957894  48.3773994  67.9887161   3.1569531
   1.4751831  28.6820107   1.8416708   2.3273640  28.3957825   1.5128959
   1.0397589  27.8741493   2.1136925   4.8619914  51.9357834  57.3122406
   5.4114661  52.6544189  57.6250839   4.1315536  52.3679504  56.8696060
  49.1962204  16.0447559  72.2641907  49.6189270  16.7822914  71.8242035
  49.8774719  15.3743486  72.3159790  58.0508881   8.6094017  48.2994385
  57.2941246   8.3163557  48.8070450  57.8135910   9.4873381  48.0008583
  12.4476862  70.1403732   4.0164995  13.1624975  69.5158691   3.8929589
  12.8363152  70.8515396   4.5258546  10.0605841  22.9140301  59.4228630
   9.7629614  22.2269325  60.0191422   9.7743826  23.7292328  59.8348846
  63.3097572   1.5285702  86.0781937  63.5269508   1.7550225  86.9824982
  63.9318352   2.0288270  85.5499878  29.3032932  34.5843544  69.0608215
  29.2519970  33.7092781  69.4453278  30.2104168  34.8552589  69.2021332
  34.9644890  58.8767548  17.4504414  35.1794586  58.0445557  17.0291729
  34.6239586  59.4229279  16.7419453  26.2296448   3.9791820  10.3954964
  25.6126289   3.3190584  10.7113428  27.0907879   3.6350222  10.6326056
  76.0813675  11.9800491  24.4286423  76.2629395  12.1879253  25.3451862
  75.3251953  12.5227442  24.2052212  63.8747253  10.1638136  44.3284798
  64.6940308   9.7580881  44.6119576  63.7983322  10.9511700  44.8674278
  31.7220802  56.2518730  85.8812180  31.0736961  56.2404861  86.5852737
  32.3308640  55.5478821  86.1048431  64.2788239  33.3348961  47.4978600
  64.5508499  33.5115089  48.3984375  65.0626144  33.5007362  46.9740219
  74.0950089  53.3545227  78.7866211  73.6218948  53.3775787  77.9548340
  74.9922485  53.1241760  78.5455246  85.2545700  65.7704620  64.3224030
  85.5151062  66.3941803  63.6446609  85.9735641  65.7888794  64.9540176
  33.8206863  23.5357380  19.0460300  33.6316643  22.6315556  19.2969437
  34.3677177  23.4580288  18.2643967  73.5302582  67.4607849  41.6658592
  72.5917511  67.5227280  41.4881020  73.9399948  67.9783096  40.9726677
  24.9463501  31.5220566  16.3905735  24.5730534  31.5809193  17.2700157
  24.2766762  31.8997021  15.8203526  60.8631401  14.0050135  63.6432991
  61.5132370  14.4854774  63.1307030  60.4132576  14.6794701  64.1521683
  71.7682877  70.8440628  70.6190186  70.8400803  71.0682449  70.6853714
  72.1787720  71.3042984  71.3510818   6.3209195  47.5118523  79.4390564
   5.8074288  48.1731796  78.9751511   6.0522799  46.6812172  79.0464859
  29.7929821  62.1634903  12.8947973  28.8707676  61.9468613  13.0319939
  30.1763592  61.3628883  12.5366259  45.4722404   9.8225698  16.3556290
  46.3961754  10.0713654  16.3815994  45.2051964   9.7968740  17.2744637
  64.8990402  71.4660492  36.8026924  64.2395096  71.4929886  37.4958916
  65.5666504  70.8635330  37.1305656  51.6060371  45.1558342  70.3683090
  52.1960258  45.0743790  69.6189728  51.6126442  46.0897713  70.5779495
  20.7660694  17.4126606  23.5179157  20.5895634  17.7828979  24.3827858
  20.4162140  16.5227985  23.5623703  41.4040184   0.7952845  26.4376450
  40.8410263   0.4103361  27.1092777  42.1412354   1.1629919  26.9250164
  38.9681587  53.5893517  13.3785791  39.3192520  54.0831070  12.6375198
  39.7171402  53.4684067  13.9622135   1.6777183  22.9455051  21.4386997
   0.8670273  22.4365940  21.4433804   1.7240286  23.3302784  22.3139343
  73.6456223  38.7380600   2.4744303  74.2165451  38.0762405   2.0842125
  72.7638245  38.3766365   2.3847673  50.4720612  59.8122940  39.6910362
  50.3559036  59.4719200  40.5781021  51.1642151  59.2687073  39.3146439
  79.4705276  38.5626602  39.2787285  79.4675140  38.1008301  38.4403152
  78.7480850  39.1869278  39.2108994  44.9352913  22.0113869  82.2312164
  45.3078156  21.2898140  82.7379532  45.1186104  22.7914467  82.7547913
   0.4811656  34.7260170  32.3417435   0.8920164  33.9300499  32.6791878
   0.9479531  35.4394569  32.7768784   9.3279171  54.1601334  87.4517822
   9.0421667  53.5533409  86.7688599   8.9830923  53.7872200  88.2631149
  86.9079666  12.5419245  46.7260780  87.1683807  13.1115084  47.4499512
  85.9715347  12.7070913  46.6162872  62.9220772   4.3813567  66.9021759
  62.7988205   3.5859632  66.3841095  63.2277107   5.0331378  66.2713013
  80.0038300   3.3878345  18.7243385  79.6225739   2.7585869  19.3366489
  79.3504715   4.0843034  18.6588421  83.2393341  18.1860390  43.1476402
  83.5318985  17.5919800  42.4564590  82.7026978  18.8358135  42.6937103
  24.2798042  17.5567837   0.2063267  24.2567196  18.5108376   0.2803326
  25.0272694  17.2929459   0.7429062  63.3845634  48.6245956  27.1053276
  63.7040825  47.9679489  27.7241573  62.4342995  48.5096130  27.1034908
  74.4590530  31.9251385  18.5677700  75.2867966  31.6147671  18.2007046
  73.7937622  31.6176987  17.9520569  24.5598717  49.0658073  58.8048401
  23.6475658  49.1207542  59.0892868  25.0382557  49.6133461  59.4274025
  11.6104450   3.3459294  27.2945881  10.8447886   2.7770619  27.3745346
  12.1357527   3.1509807  28.0706539   0.0516248  13.2988853  27.8361816
   0.6061057  13.3891325  27.0611725   0.5165325  12.6732502  28.3917637
  26.7970428   6.9499516   7.4108419  26.5603657   7.1207004   6.4992166
  27.7392750   6.7831154   7.3864560  65.0244751  40.8387184  84.6167297
  65.5244064  40.1038857  84.9721451  65.3809586  41.6080551  85.0608826
  75.1551132  40.1908264  88.0927429  75.8026199  39.6982727  88.5970764
  75.5424423  41.0600853  87.9898148   8.7712650  36.9447517  30.4059620
   8.5842590  36.5142555  31.2401867   9.5745831  37.4398079  30.5666904
  33.5587349  67.2374725  19.1673203  32.8815918  66.9751663  18.5436993
  33.1811981  67.9853668  19.6303005  68.4777374  68.2213364  40.7491837
  67.6019745  68.0354156  41.0878677  68.4151917  68.0405350  39.8112946
  18.8835983  60.8950348  10.3579512  19.7415714  60.7409477   9.9625120
  18.5264816  61.6390190   9.8729897  55.0475349  48.1026306  47.0462875
  55.9298172  47.8877029  47.3489609  54.5629082  47.2802620  47.1175346
  64.4920883  53.9567184  77.9590454  63.8592529  54.1929512  78.6372375
  65.1808624  53.4855003  78.4278412  12.6425047  52.1913414  83.9801636
  13.5027027  52.5856323  84.1244736  12.5204353  52.2234802  83.0313187
   3.2131619   1.0333705  21.6246204   3.3493805   1.2624439  22.5439682
   4.0577416   1.2037996  21.2076416  27.6645851   2.3853612   6.9558072
  27.2642727   2.9863341   6.3274655  26.9306850   2.0602074   7.4772453
   8.4220085  43.8426933  27.0711708   9.3473845  43.8877907  26.8305931
   8.3654413  43.0952263  27.6664238  68.3562164   8.8374205   2.9053349
  69.2820053   8.8184137   2.6628773  68.3258209   9.3816385   3.6921859
  79.3694382  44.5297241  24.6389580  78.5794983  44.3154488  25.1352596
  80.0549545  44.6088791  25.3023014  22.8014050  47.8726730  16.1375027
  22.9394360  47.3037720  15.3801870  23.0413666  47.3320541  16.8900852
  52.8755684  20.5119839  30.3926601  53.2153397  21.2334576  29.8632622
  52.4620361  20.9393387  31.1427193  60.7896194   3.3706689  32.7696304
  60.1337166   2.6911135  32.6139679  61.5856705   3.0338998  32.3583870
   4.6945157   3.4786274  13.7957020   5.1168470   4.3359056  13.7414589
   5.4029269   2.8766322  14.0237074  83.1177292  49.4934807  78.2157364
  84.0216293  49.4478493  77.9040985  82.6125946  49.7592659  77.4473419
  71.3856049  50.9066734  25.0291843  71.9815750  50.6679840  25.7391701
  71.9224167  50.8551369  24.2383499  43.3469620  42.1543922  64.3605042
  43.1877632  41.3357544  64.8303146  44.2160873  42.0441322  63.9748955
   4.9420128  19.7258492  31.7164211   5.6266375  20.3666248  31.9085808
   5.2871184  18.8986149  32.0523071  85.4636459   9.3592958  41.9694290
  85.5162964   9.8955135  41.1782722  86.3393860   9.4107924  42.3523865
   2.1632621   4.2439494  73.7259064   2.7954631   4.5196290  73.0621643
   2.6864767   3.7715592  74.3734665  58.6307259  38.4007759  75.0700912
  58.2872658  39.2833939  74.9313431  58.1933975  38.0958138  75.8650589
   6.9317346  44.6164856  31.3684540   7.2430434  43.7591934  31.6589203
   7.7114244  45.0491066  31.0203800  49.2805786  63.5258751   1.7506919
  49.0652733  64.3385010   1.2929614  49.2986298  63.7697983   2.6761141
  58.3059082  22.2558365  26.3142948  58.0631218  23.0940628  25.9210224
  58.4170761  21.6650524  25.5694122  48.5651703  64.4623032  41.4294701
  48.7418442  63.6010704  41.8080254  48.3448410  64.2816315  40.5156593
  78.5080566  62.4971237  60.4968414  78.9607239  62.1005745  59.7524834
  78.8792267  63.3770370  60.5617981  69.3656464  37.6685600  21.5984230
  68.5776596  37.1901627  21.8561993  69.9130707  37.0131187  21.1660385
  51.9152870  59.7777252  51.2411346  51.0562859  60.1946945  51.3081245
  51.7286377  58.8392525  51.2668228  80.3172531  19.1724625   1.0906727
  80.5279388  20.0951462   0.9475120  80.7086258  18.7187996   0.3441812
   4.7819052  43.6726494  23.1848030   3.9286869  44.0995407  23.2623444
   5.3545694  44.3466606  22.8187504  51.7418060  32.3046074  75.0753555
  52.2367363  32.2411728  75.8922119  51.3884239  33.1941833  75.0778885
  15.5379381  65.2042084  25.4602375  15.4910736  66.1602020  25.4706059
  16.3706093  65.0098801  25.0299740  29.4235039  55.4215775  10.8705702
  29.5053005  55.8983574  10.0446033  29.3558807  56.1058807  11.5364456
  73.9559174  54.9400406  30.4173317  74.2480392  54.0849533  30.7331257
  74.3068619  54.9998970  29.5287991  29.6782036  60.2354774  10.8890572
  30.4019508  60.1557388  10.2677174  28.9968166  60.7015076  10.4045353
  69.5524063  51.2936096  30.6579456  69.9069061  50.4109650  30.7651634
  69.5923309  51.4548759  29.7152729  14.7714567  30.8038120   7.5753522
  14.7508755  30.8821583   8.5291185  15.4656010  31.4029636   7.3007398
  47.5470238  43.3210449  87.6261444  46.8161354  42.8170471  87.9839478
  48.0645943  43.5691757  88.3921661  61.1929092  64.6147842  53.9607582
  61.8335266  65.0991592  53.4399719  61.3179626  63.7009392  53.7048492
  43.2366486  41.9186516   7.8334651  42.5036621  42.3032799   7.3528175
  43.2602768  41.0064354   7.5444374  70.1276779   1.9248515  35.6222572
  69.1757202   1.9120277  35.7215004  70.4597778   1.5872781  36.4541130
  23.9143867  60.2672577  12.9633312  24.1747284  61.1832581  12.8663788
  24.7133751  59.8192902  13.2411308  64.6996536  51.8726006  59.3471222
  63.7481308  51.7825470  59.2948761  65.0222092  51.4812317  58.5353203
   8.2016754  42.0454025  53.0912399   7.8712416  42.7090263  53.6967545
   8.6644020  41.4207458  53.6497345  44.2791061  68.8706665  35.4624672
  44.6864510  68.5681534  36.2741203  44.7005997  69.7108307  35.2816086
  72.5443649  25.3617935  74.2849579  72.0306625  26.0347729  73.8383713
  73.4397659  25.4995136  73.9758835  51.9827347  71.5447311  49.4427872
  51.5950508  70.7622147  49.0508690  52.6010246  71.8612518  48.7841797
  65.3223877  40.6030922  48.8103447  64.5074844  40.8627434  48.3805199
  65.9918060  41.1576042  48.4095535  52.9639091  70.6047440  38.5760269
  53.3300323  70.9195938  37.7495537  53.4903221  69.8354568  38.7935600
  37.7467003  58.5758438  56.1838570  37.1958542  57.8677368  56.5175972
  37.4220619  58.7343712  55.2974510   3.4099936  57.5328865   8.5620270
   2.8544183  56.8046532   8.8399553   3.9954810  57.1513824   7.9078932
  67.1051025  53.5421066  47.9676552  67.0354309  54.2734833  47.3540916
  66.4264603  53.7120514  48.6209526  57.2092056  41.7421227  48.9173431
  57.4872208  42.0472145  48.0537109  56.3346710  42.1137924  49.0325737
  17.9369869  62.0692940   7.3077655  17.7472172  62.2755814   6.3925261
  17.1195602  62.2554550   7.7697072  21.6571274  55.4553223  61.6509247
  20.8284569  55.4747467  61.1722221  21.7056675  56.3093491  62.0804749
  59.6294327  55.9975548  86.9923630  59.4179077  56.7727661  86.4722290
  59.0317154  55.3227539  86.6704788  72.7533340   4.1541615  37.9096260
  72.8211288   3.5976808  38.6854935  73.5170593   4.7290072  37.9597092
  66.4489746  18.0829659  70.5503693  65.4941635  18.0235920  70.5825653
  66.7530899  17.2534313  70.9186325   8.5773344  50.5294914  21.5726509
   9.0815077  50.1527672  20.8514576   9.0413389  51.3371887  21.7930107
   2.2974079  39.2496033  12.9954624   2.0619230  40.1108437  12.6504374
   2.8525245  38.8637199  12.3178387  45.8469315  69.6277771  82.0190125
  46.7998238  69.5490570  82.0640869  45.6947746  70.3479080  81.4070587
  31.1846924  68.6971588  70.5903015  32.1248245  68.8588333  70.6693039
  30.9088020  68.4518509  71.4734421  65.1160889  57.4519577  43.8215332
  65.6227493  56.6480598  43.7063026  64.6019211  57.5282974  43.0177765
  83.5450363  68.2904358  74.1489182  84.1590042  67.5972366  74.3913116
  83.9832611  68.7614594  73.4401703  52.0817680  30.2153645  73.4085693
  51.7640533  30.9779606  73.8920288  52.6209526  29.7390785  74.0399704
  84.3747559  51.4172630  18.3514252  84.1898270  51.9052887  17.5490150
  84.2581711  50.4994850  18.1058140  60.0993958  21.3258247  68.8306351
  59.9077492  22.0704231  69.4007874  59.6316109  21.5195465  68.0183029
  64.1239014   9.2074032  17.4554634  63.6613503   9.4241447  18.2649708
  64.6374054   9.9902124  17.2560730  12.1014366  14.0044355  17.4919758
  11.9739294  13.7386246  16.5813065  11.4653664  14.7067165  17.6278000
  52.9423065  64.0797501  56.6718178  52.1731071  63.6155586  57.0021095
  52.6767006  64.4005127  55.8099594  64.4398880  31.1823292  78.4976959
  64.9767532  30.3902416  78.5222549  63.5572281  30.8674679  78.3027573
  83.9958420  29.1806202  48.2470627  84.1748505  29.5686550  49.1035767
  84.7948456  29.3342018  47.7428322  86.3194809  18.0263863  58.3385315
  86.5771103  18.3705502  57.4833031  87.1421509  17.9423561  58.8206024
   7.2710333  11.3463726  26.1942444   7.3877549  11.5138950  25.2590733
   7.8684096  11.9587288  26.6236534   6.2365341  20.8967342  34.0807190
   6.9242377  20.7888222  33.4237175   6.0520835  20.0073357  34.3826828
  86.9102478  11.3908482   4.0584240  86.9644547  12.3411112   3.9569623
  86.4431152  11.2644119   4.8842793  84.0102844  71.6193848  68.0567551
  84.5652390  71.3815384  68.7995148  84.6195908  71.7218628  67.3256683
   3.9887922   4.9986715  25.4539013   3.3827863   5.3044333  24.7789955
   3.8771923   5.6185894  26.1746502   1.6549203  67.6355133   1.6542073
   1.8308859  67.3017883   2.5339227   1.8820260  66.9097748   1.0728644
   8.6713820  53.0569534  16.5833664   9.1064749  53.6106949  15.9350643
   9.3020191  52.9864197  17.2999916   2.5433068  29.6935520  84.4399796
   2.4159956  30.2239475  85.2265549   3.4934292  29.6117992  84.3574219
  56.8583603  67.5393143  48.0420380  57.2549400  67.0276337  47.3369560
  57.5127525  68.2056885  48.2516670   4.0731959  45.3908272  66.0194321
   4.7496133  44.8077469  66.3639755   3.4144111  45.4294815  66.7127838
  14.3480349  44.1716270  66.6214828  15.2094612  44.0036469  66.2394333
  14.3704615  43.7257347  67.4681854  28.9441338  71.3201904  59.1144257
  28.4368076  71.5603790  59.8897705  28.2946415  70.9796677  58.4992485
  16.6827641  43.2431183  62.0886726  17.3059635  43.5446358  62.7496872
  15.8546782  43.1583176  62.5612335  13.5427675  39.2362442  82.5031509
  13.5698786  39.0719986  81.5605316  14.4121370  39.5781441  82.7117996
  66.1719284  34.3279495  53.1052322  65.9567642  33.4782333  52.7206268
  65.6187592  34.9510727  52.6341171  51.6526451  54.3707352   0.8034842
  50.9640770  54.8935356   0.3926437  52.2884789  54.2200012   0.1040400
  84.5099792   6.9575868  82.9285431  84.6537170   7.2719812  82.0359497
  84.6065216   6.0073094  82.8662262   5.5366707  24.9177551  80.6201248
   6.2093539  24.5622139  80.0393372   5.3099165  25.7638798  80.2342682
  72.1988525  32.9469910   6.2254505  73.0311890  33.3165283   5.9306860
  72.4124298  32.4979439   7.0433583  84.8452377   3.2755575  11.1237402
  84.4884644   3.3473506  12.0090570  84.2210083   3.7500639  10.5747375
   6.3672009  45.7950401  43.0966988   7.3201041  45.8355179  43.0156517
   6.0694299  46.6743736  42.8635979   3.4885533  42.9446983   6.3684859
   3.5486901  43.7198982   5.8102021   4.3371816  42.9004097   6.8090544
  22.8725128  57.6225548  82.4805222  23.4518661  58.1066589  81.8921127
  23.1364155  57.8995934  83.3579254  20.1054020   9.5599976  45.1648712
  20.9292240   9.4313669  44.6947594  19.8664646  10.4692831  44.9850349
  81.9419861  61.0636482  49.6647835  81.3502579  61.6416245  49.1830826
  81.5688019  60.1896362  49.5504570  30.3220367  61.2692299  80.5910797
  30.8630905  60.4942436  80.7423706  30.8195782  61.9883919  80.9803009
  82.2932587  49.1520691  45.7794037  81.4717102  48.6666183  45.7043800
  82.1298218  49.7941551  46.4702339  29.6032200  52.6335564  55.9584122
  29.1001873  52.5351448  56.7668114  30.4084320  53.0744171  56.2295341
  62.3355026  31.1403866   8.7222929  63.2690353  31.3229694   8.8291435
  62.2444458  30.8880177   7.8034616  24.1977291  67.8842392   4.2274747
  23.3391171  67.7880249   4.6394963  24.5023899  68.7473755   4.5074883
  17.3260632  51.8994522  54.6742325  16.5068493  51.5449982  54.3285675
  17.3274536  51.6435471  55.5965919  37.8915062  68.3324509  38.4090843
  36.9414864  68.2248230  38.3632088  38.2046204  67.5249710  38.8167191
  70.8824081  45.8182030  77.7543259  70.7212830  46.5211220  77.1248932
  71.5761185  45.2933807  77.3548813  68.7942123  19.9488468  76.5063324
  68.0174408  20.3757057  76.8677902  69.2617645  20.6486664  76.0503922
  15.8106003  46.6134071  24.3107967  15.3691063  45.9954338  23.7281990
  15.1005268  47.0370598  24.7930317  44.6139793  43.9232101  66.9852829
  45.0955963  44.1265984  67.7870941  45.1780968  43.3081741  66.5165176
  57.3076439  47.5361443  51.4501114  58.0932961  46.9897652  51.4714088
  56.8559265  47.2749252  50.6476479  50.4128571  60.2366104  87.1595688
  50.0253868  59.7855492  86.4094772  50.4011230  59.5866127  87.8621368
  81.2560043  55.9860306  33.1636009  81.5374832  55.5190086  33.9503021
  81.5132370  56.8947258  33.3195915  66.9833832  11.9867630  36.8324699
  67.4083328  11.1412544  36.6883812  67.1455765  12.1821585  37.7553673
   8.1036673  55.2860260  59.7597427   8.4244099  54.4514580  60.1015816
   7.8367438  55.0902672  58.8615990  25.4886951  59.3352318   8.1870975
  24.8265362  58.8347778   8.6638842  26.3057556  58.8620033   8.3442669
  54.3264694   1.9168737  54.0228539  53.7720528   1.3953980  53.4424095
  55.1944656   1.5210881  53.9443283  58.5495796  35.5785980  76.7359848
  58.1835365  36.3654442  77.1398621  57.8569412  35.2629166  76.1556091
  73.3592148  29.5667267  23.7474403  72.8897858  28.7375851  23.6558342
  74.2782211  29.3383579  23.6077595   6.1725802  51.3684769  61.8288574
   6.9413948  51.4730453  62.3894119   6.4873376  50.8568382  61.0836143
   7.0960135  19.4159660  65.1007080   7.7711844  18.8447189  64.7345734
   7.1925101  19.3238373  66.0485611  65.1873398  44.6937294  69.1850739
  64.9882050  45.3965569  69.8036270  66.0623245  44.3961601  69.4342346
  65.0293503  54.1113548  50.3177338  64.7067642  53.2120209  50.2596779
  64.2793579  54.6148605  50.6343079  59.2219505  41.8122597  59.6147499
  60.0955162  41.8235893  59.2236137  59.3098297  42.3342285  60.4122810
  70.7177582  20.0771828  34.6402550  69.8860397  19.6404991  34.8240662
  70.7590561  20.1214275  33.6849709  24.5622578  62.8658867  53.8616409
  25.4918060  62.6428108  53.8125496  24.3875237  62.9594040  54.7980995
  44.4122543   2.7411084  58.0221291  44.3742371   2.9833980  57.0968819
  45.2345085   2.2590039  58.1098824  38.8109436  58.8548508   9.1255627
  39.1847496  57.9776306   9.0419865  38.2145615  58.7909927   9.8715410
  20.8949547  28.4133205  77.9285202  20.6224136  27.7221222  77.3250275
  21.8499069  28.4248104  77.8639832  82.7591553  64.1880493   7.8309627
  83.1434402  64.7767868   8.4805384  83.4153366  64.1371765   7.1359367
   2.3627152  21.5589256  40.6893387   2.0872035  22.1855183  41.3584480
   3.1831703  21.9163933  40.3497772  62.6263809  28.8805676  15.8309755
  62.1654472  29.6998119  16.0115604  63.5289001  29.0487919  16.1018944
  20.0378513  51.9914742  47.2992516  19.7395916  51.3335915  46.6711922
  20.9097881  51.6952858  47.5604630  83.1484680  12.8094530   7.0717721
  82.8128281  13.2438517   7.8559136  83.2333755  13.5115938   6.4267755
   3.8537123  11.0708694  76.6007996   4.0345263  11.8521528  77.1234207
   3.3750546  10.4915857  77.1937103  35.0508957  67.6960602  72.7650375
  35.1209106  66.7462311  72.6693649  35.8610725  68.0354614  72.3847046
  29.0215759  53.5818443  78.8941269  28.8554115  54.1154022  79.6712570
  28.3626289  53.8681717  78.2616425  53.7571182   0.8292216  88.4162445
  53.4189835   0.3689918  89.1844101  54.7071533   0.7285498  88.4756699
  48.5261459  69.8013382  12.4035521  48.3220367  69.5774689  11.4955578
  47.6817894  70.0375519  12.7876053  23.8028831  71.3367920  26.3412476
  24.1331005  70.4505310  26.4886799  23.9932728  71.5131454  25.4198990
  76.5673141  50.4797516  30.1974106  76.8197861  51.1762390  29.5912781
  77.3726273  50.2704697  30.6705990   9.1110983   0.6484727  33.4230499
   9.3056583  -0.2603777  33.1942101   8.7020178   1.0110081  32.6372681
  37.5584335   4.1033664  84.1890335  37.3804359   5.0127382  84.4290161
  37.9351921   3.7164409  84.9793320   7.9160805  70.8270569  22.5535965
   8.0691500  71.7156754  22.8747730   6.9717913  70.6990585  22.6439629
  54.2608223  62.4207230  64.4134369  55.0560074  62.9188385  64.6026306
  54.0738449  61.9503784  65.2258682  11.7874279  48.5505600  48.8487816
  12.6702833  48.1870918  48.9172440  11.3699789  48.3238716  49.6797943
  36.3914948  51.4122658  69.0332031  36.4587746  50.4729462  68.8617706
  35.5245056  51.6537285  68.7072296  25.9500923   5.1721325  15.8543911
  26.8148518   5.1504979  15.4445686  26.0618801   5.7357593  16.6199360
  18.1906013  54.2018204  57.4859543  17.2826252  54.4963417  57.4147453
  18.1970119  53.3416443  57.0660858  11.7398853  43.8676872  26.4006538
  12.0705013  43.2763901  25.7244186  11.4930849  44.6610222  25.9253254
   5.7037873  45.2938309  77.7985229   6.6493912  45.1979141  77.9119415
   5.3509464  44.4233017  77.9826813  74.3977890  12.4357357  30.5046883
  74.3803635  11.5199003  30.7824898  73.6036072  12.8152647  30.8808098
  56.1557808  69.0151901  85.3894958  57.0658035  68.7255402  85.3247375
  56.1797523  69.9383316  85.1375656  84.6123886  25.5371094   8.2123909
  84.3063736  24.7168713   7.8253527  83.9520721  26.1822929   7.9595017
  25.9552269  58.8784599  61.8335114  26.3450775  58.8539696  62.7073822
  25.8486481  57.9581451  61.5929108  64.4305344  26.7641373  78.1746597
  64.9622269  27.4432087  78.5898666  64.7586823  26.7186871  77.2766190
  69.8419189  20.5201569  54.0763397  69.8597031  20.3226891  53.1399002
  68.9247971  20.7226543  54.2610397  48.2575150  53.6081505  75.5226059
  47.9166183  53.9149704  76.3627777  47.8477974  52.7523842  75.3960037
  79.8579941   0.1868062  15.0517826  80.0810547   1.0183076  15.4702101
  79.1303329   0.4002283  14.4676723   7.6438866  66.6456299  83.3005524
   8.3009825  66.4481888  82.6331177   7.8634386  66.0675583  84.0312119
  72.2341995  10.2910614  60.7234154  72.9583664  10.7572699  61.1410980
  72.3541336   9.3782663  60.9854279  61.9032936  51.0748711  77.3195572
  62.1832848  50.1595612  77.3262329  62.3948860  51.4704704  76.5997849
  42.3123970  50.0695152  67.6448212  43.2327347  50.2477264  67.8383408
  42.2056427  50.3283615  66.7294846  18.2879219  23.4937210   5.9527960
  18.8020267  22.9273090   5.3773770  17.5854168  23.8276081   5.3949094
  39.8820724  50.0739021  69.2751846  40.5584297  50.0436249  68.5985260
  39.0577354  50.0100327  68.7928772  15.6039410   8.3724413  79.3194427
  15.2224855   7.5643706  78.9763031  14.9900093   9.0578938  79.0558624
  22.6976757  45.1273041  83.9570084  22.4747963  45.5811195  83.1442337
  21.8522549  44.8972740  84.3424759  12.3755789  22.4578171  37.0956612
  12.3584805  22.2889137  38.0376854  12.5415716  23.3977737  37.0238342
  77.2302704  51.6691208  13.7181158  77.6841965  50.9757385  13.2391558
  76.3281021  51.6282921  13.4008694   1.9056926  37.5899353  32.2263222
   2.1764600  38.3564262  31.7209454   2.4061661  37.6505318  33.0400085
  48.7398262  60.2893982  63.6842537  49.6936264  60.2088165  63.6820564
  48.4559517  59.7541695  64.4253235  74.2540588  47.3072853   8.9573593
  74.8423233  47.1331291   9.6921005  74.5495834  48.1480255   8.6080027
  32.0664749   6.7753024  43.3366776  32.6940918   6.5241451  44.0143547
  32.4063301   7.5999365  42.9892464  41.4124870  23.7696705  16.5076618
  41.8058434  24.5857983  16.1987286  40.6800613  24.0495968  17.0566864
  70.2378845  37.1828156  81.7813110  69.8004990  37.0255585  80.9445343
  70.5507050  36.3202133  82.0538864  81.7491150  70.0177383  27.3222427
  82.0201950  69.8533554  28.2254181  81.7221375  69.1502228  26.9186096
   4.5155687  55.8358879  67.5930862   4.7946715  56.1907921  66.7490616
   4.6592546  56.5509949  68.2129288  64.5267792  65.8485641   1.4844830
  64.9636154  65.0282593   1.7136294  63.5997429  65.6820145   1.6550305
  46.2387695  58.7898407  23.5702419  46.0557251  59.5128326  24.1702499
  47.1900024  58.6877785  23.6013184  19.8089390  48.8258972  66.9251785
  19.0944996  48.9801331  66.3070984  20.5472546  48.5610123  66.3765793
  44.5944138  58.2412033  65.8927078  44.3042870  57.4285011  65.4784927
  45.4717255  58.0431328  66.2203064  73.5288773  26.3442249  59.6485138
  73.8338089  27.0044270  60.2709122  73.7004776  26.7282848  58.7887001
  61.8443375  44.7869186  84.7977219  61.2176323  45.3725433  84.3728561
  61.3055992  44.2172737  85.3468170  60.6441040  56.0231400  79.2758255
  59.9898796  56.1842957  78.5959396  60.4121513  56.6288261  79.9797974
  82.5735474  34.7927208  77.7165985  83.1228638  34.0173759  77.8320007
  83.1928329  35.5216560  77.6795883  60.5570450  35.2004280  74.6464920
  60.4980316  36.0078278  74.1357574  60.0897522  35.3960686  75.4586487
  68.9939194  43.3886452  75.6682205  69.2201996  42.5402527  76.0493469
  69.4173813  44.0287666  76.2401962  68.9575195  21.5770130  82.8918610
  69.7590408  22.0807304  83.0335464  69.0679169  20.7943573  83.4317703
  25.5087509  54.4813271  22.4345627  26.2703762  55.0608711  22.4514771
  25.8720245  53.6134796  22.2581825  77.8675690  23.1604443  50.0246658
  78.0744476  23.8026733  50.7036209  77.5107727  22.4122887  50.5034065
  30.0760422  63.8279457  76.4411392  30.6319122  64.4027786  76.9672623
  30.1557655  62.9701576  76.8583603  38.1158371  36.1770859  85.0193939
  38.1495361  35.3100739  84.6151886  37.7551575  36.0206146  85.8921280
  16.7177887  25.7396049  66.0229263  15.9724092  25.1393871  66.0424423
  16.3489666  26.5697784  65.7212448  59.4970741  44.4930000   5.7936311
  60.3089104  44.4900436   6.3007245  59.2456207  43.5710526   5.7387133
  41.8591881   1.9171772  57.7992668  41.8479195   2.4252760  56.9881325
  42.7848969   1.8668532  58.0375252  76.5943375  25.2502937  64.7131958
  76.4679565  24.3042507  64.6406403  77.0553131  25.3673401  65.5438766
  56.5718803  14.5546780  88.2032089  56.2493210  13.8856144  87.5994415
  57.5143967  14.5902157  88.0400085  41.7335243  14.8959684  85.5622940
  42.5507011  14.3975935  85.5533752  41.9698181  15.7364016  85.9548111
   2.6907635  26.5429592  24.9220333   3.2453263  27.3004360  25.1089039
   2.3230145  26.2999191  25.7716942   3.7589643  32.3702545  12.9411659
   3.9550564  31.4465179  13.0976515   3.8529284  32.7837639  13.7993107
  80.3242493  68.9361572  45.5039482  79.7062988  69.1473236  46.2037926
  80.2071075  69.6361771  44.8617058  70.1046524  21.2025204  61.0167122
  70.0302963  20.6387310  61.7866745  69.2211761  21.5468369  60.8857613
   7.9549356  44.4268341   2.1360719   8.8872490  44.2899551   1.9678822
   7.9279194  45.1548996   2.7568932  13.3084335   7.3666606  10.5260973
  12.9750843   7.2306919   9.6391802  13.3140526   8.3174305  10.6367197
  72.7044373  70.6000748  37.0560150  73.0377502  69.9421463  37.6661453
  72.5522079  70.1177750  36.2433357  54.9621162  48.7437706  44.3162575
  55.2859001  48.0093384  43.7947235  55.0261536  48.4409561  45.2220345
  71.1150970  37.9236259  68.2192688  71.0578156  38.6075745  67.5520630
  70.4013290  38.1204491  68.8259201  64.3202744  69.0169830  32.8637123
  64.6542969  68.7295837  33.7134552  63.7436867  68.3073425  32.5805473
  77.8875046  71.3035355  45.3694801  78.3737640  70.9954453  44.6047211
  77.2510681  71.9241943  45.0145569   6.6043911  27.6698284   2.5151682
   5.7668185  28.0105839   2.8291585   7.0721326  28.4413376   2.1954467
  37.1940422  45.0893822  16.4134598  36.8967171  45.6766129  17.1084347
  37.2009277  45.6340103  15.6263323  77.2035904  22.4152927  75.6039886
  76.6411057  21.9699249  76.2376175  76.6848068  22.4414291  74.7999878
  60.7052078  52.4758759  26.1250896  61.6570892  52.4989433  26.0270214
  60.4498863  51.6190910  25.7830868  15.6468401  30.8100643  16.9874878
  15.1907978  30.1336746  17.4882412  15.2779589  31.6337738  17.3063335
  86.3245239  40.3268700  65.9432144  87.1795731  40.6227074  65.6307983
  85.7633667  40.3554535  65.1682816  65.4043045  43.3771362   5.6344867
  65.6111374  44.1352844   6.1809931  66.1184540  42.7613602   5.7989492
  53.9952850  34.4982376  80.6923370  53.4255829  34.7489586  81.4195328
  53.7340431  35.0741959  79.9738312  39.4134293   4.8648610   9.3489113
  38.9633179   5.4056582   9.9978857  39.5394402   5.4459677   8.5987988
  63.4273148  22.3985577   5.8139620  63.1434135  21.4844284   5.8124967
  64.3230972  22.3706131   6.1501474  66.6438065  24.5887012  22.8221378
  66.2035522  25.2983837  23.2898560  67.3267136  25.0250225  22.3127346
  14.3822975  49.0702324  45.6620445  13.9601250  49.5103951  44.9243050
  13.8128004  48.3252716  45.8542328   5.2570605  30.6762390  83.8449936
   5.2394691  30.0144558  84.5363464   5.0657825  31.4986916  84.2957916
  66.8795776  26.8003025  51.0758514  66.5413437  27.6125107  50.6988335
  67.3638992  26.3877506  50.3606834  86.6281204   8.4468842  22.6240597
  86.1012955   9.2410889  22.5350227  86.2952271   7.8611674  21.9440956
  26.9972191  45.7460632   9.6298027  26.4916096  45.1529541   9.0740938
  26.5579872  45.7108727  10.4795485  19.9165306   9.5910797  17.4656734
  19.4375782   9.3890095  16.6619301  20.6963367  10.0598516  17.1683712
  66.3863373  64.8936234  30.9788246  67.1612244  64.8777313  30.4171047
  65.8090668  64.2253265  30.6095333  36.7540321   2.8070815  77.1578369
  36.9111786   3.7449372  77.2672119  37.4175339   2.3875740  77.7055664
   1.6725569  27.1691895  59.1470490   2.0557075  27.4816189  58.3274040
   2.3592055  27.3057785  59.7998047  41.2149162  25.8080826   0.4880852
  41.0203781  24.9686604   0.0712410  42.0521317  26.0754814   0.1088822
  59.0108566  59.0855255  29.6129932  58.4610176  58.7332535  28.9131260
  59.9047127  58.9998436  29.2814579  78.2726669  44.1615868  47.9185257
  78.2919159  44.5657425  48.7860031  77.3668442  44.2640800  47.6265984
  86.3358994   2.4307320  78.8140259  86.2216263   1.9045095  79.6053925
  85.6011200   3.0440722  78.8260651  10.7653589  69.1580658  20.2100258
  10.3579073  68.2932739  20.2584038  10.6283417  69.5363159  21.0785789
  34.0142021  42.4123650  88.6185303  33.3046303  41.9069672  89.0151596
  34.0117798  43.2428703  89.0944366  55.2968979  69.8483276  58.9048309
  56.0108299  69.5947266  59.4898300  55.6838608  69.8229980  58.0297012
  56.6964645  60.3288040  22.6979237  56.7591400  61.2767792  22.5810738
  57.1165924  59.9632263  21.9194126  47.3431244  47.4692154  82.4977722
  47.8065834  47.5960808  81.6699142  47.5203590  48.2669678  82.9961777
  11.6598759   6.3221998  84.1580353  11.4743118   5.6623855  84.8262024
  12.6012983   6.2470279  84.0021362  65.3048782  27.3224812  59.7934227
  64.8235626  27.8064003  59.1223106  64.8320999  26.4943905  59.8769875
   8.3631554  39.6624527  84.3772507   9.2378101  39.2812920  84.4542542
   7.8791132  39.0428925  83.8312836  32.2030830  25.0499363  81.8074875
  31.9539604  25.9395313  81.5569077  33.0899658  24.9436703  81.4634247
  51.8325615   9.9338322  30.7191105  51.0907784   9.6548195  30.1823215
  52.4330444  10.3495026  30.1003475  14.2952747  27.6391125   3.8411031
  14.7369289  27.7368793   2.9975302  13.4452467  28.0612812   3.7167711
  13.7382183  31.2397308  24.9953518  13.0567207  30.6159058  24.7450809
  13.3190327  31.8048038  25.6443558  23.9745693  17.4850883  74.3299255
  23.7821121  17.6957893  73.4162598  24.7550278  16.9324207  74.2890015
  27.9042759  37.8099937  15.6835089  28.2489319  37.1373596  16.2708817
  27.2966785  37.3404579  15.1120243  18.7926331  62.2462730  19.8055954
  18.5027847  62.2080956  20.7170563  19.6857548  61.9024162  19.8236771
  77.3568420  67.6489105  45.1003914  76.6172485  67.8236008  44.5184021
  77.2010345  66.7624588  45.4262314  81.7024307  46.9743347  88.2575989
  80.8107986  46.7796173  87.9689636  82.2621536  46.5000229  87.6428070
  68.9036331  45.9299622  39.1718674  68.7571716  46.0666466  40.1078682
  68.0244522  45.8708038  38.7980042  86.5226212   6.0199909  54.3809013
  87.0582047   5.9536576  53.5903473  85.6356888   6.1768184  54.0568619
  59.5977325  40.7681770  47.9134598  59.4508171  41.5163689  47.3347893
  58.7456131  40.6081390  48.3190651  53.1893806  19.6231785  74.0258789
  52.5419540  19.1265850  73.5254135  52.9611015  20.5395908  73.8699646
  79.4551926  18.7284374  48.7049484  78.9663467  18.1520882  48.1175079
  79.6933060  18.1699791  49.4449844  43.5917587  62.6362534  52.3427887
  44.0866089  62.1361694  52.9918404  44.1529388  62.6436157  51.5673828
  69.4802704  56.8727264  23.3654079  69.3040543  57.7873268  23.5860519
  69.5259781  56.8615036  22.4093666  28.4233570  30.4869270  88.4211197
  27.6476040  30.9564991  88.7276154  28.2740307  29.5792465  88.6857910
  63.8028564  65.7285461  37.2751770  62.9294090  66.1194611  37.2525787
  64.3532181  66.3437881  36.7905998  16.9031067  25.3881798   8.5091801
  17.1573009  25.1076298   7.6300273  16.1669693  25.9833031   8.3671989
  16.4913864  68.5512390  37.2255974  16.4886684  69.4734726  37.4819489
  16.9458752  68.1053162  37.9403152  53.7279663  10.8154793  25.3416348
  52.9224205  11.3324804  25.3476753  54.3005676  11.2568798  25.9689522
  57.9194412  68.8891830   7.3659887  58.8222389  68.9336548   7.0510049
  57.5870667  69.7813644   7.2671618  82.0587311  58.5086632   1.2501403
  81.3608627  58.2309723   1.8435214  82.3776016  57.6956291   0.8583140
  37.6067924   2.1323969  32.1407890  37.3699379   1.2049972  32.1329041
  38.0285301   2.2646768  32.9898338  41.1872177  59.4316597  65.5944519
  41.1391487  60.3036079  65.2024994  41.0618896  59.5829353  66.5312729
  71.4567719   9.6887236  47.9993591  72.0775146   9.8161516  48.7167625
  71.7467041  10.2982512  47.3206520  83.3743820  40.3316574  48.1438522
  83.2101364  41.0120277  47.4908981  82.5178070  39.9315109  48.2934837
  85.3835144  61.2738075  21.4888897  84.8101349  61.9049911  21.9237061
  85.2674179  61.4484940  20.5549526  62.0569954  63.8640938  66.5864944
  62.4763908  63.0887833  66.9596329  62.4086037  64.5947800  67.0951157
  78.8114243  40.7003555  61.8702698  78.1893234  41.2388000  62.3594551
  79.4023666  40.3511925  62.5374336  70.0534210  34.1843300  68.5203094
  70.9570007  34.5000801  68.5114594  70.1105652  33.2856140  68.1958542
  12.1733036  56.9461823  25.8330860  12.0559435  57.1887817  26.7515659
  12.4133749  57.7643204  25.3980598  41.6811867  67.5469971  57.9955673
  41.1922073  67.9384689  58.7193642  41.4611320  66.6162109  58.0335808
  56.7956581  41.8210869  81.2582779  57.2976341  41.2380371  81.8277512
  56.8803864  42.6837769  81.6642609  77.1746140  17.2199192   6.2387829
  76.8592377  17.9076805   6.8250899  77.8203964  17.6563625   5.6831603
  63.9623756  41.3052330  38.3815994  63.5700912  41.3179474  37.5085678
  64.1283112  40.3788261  38.5561485   5.5762281  38.0119019  77.8107224
   4.8601418  37.3767395  77.8152924   6.0595288  37.8337822  78.6175156
  78.2252884  38.8522873  44.3601074  78.3926163  38.5522385  45.2535286
  78.5892792  39.7371445  44.3324966  43.4692078  68.1417542  22.5894184
  43.3227234  67.2310104  22.8450012  42.6269073  68.4303513  22.2380333
  47.1086655  27.5250435  84.1456985  46.2079544  27.7519875  83.9145126
  47.3130531  26.7675056  83.5974350  41.4175186  71.5418777  80.0673523
  40.7065392  71.0966492  80.5283508  41.9375572  70.8334808  79.6879196
  76.8679886  56.0773430  20.9764729  77.0602188  55.4174004  21.6426220
  77.0747757  55.6473541  20.1466637  69.3453293  59.6578178  23.5119743
  69.8359756  60.1779060  22.8755760  68.4635849  60.0299950  23.4965687
  82.2270355  22.6148853  53.2204742  81.9152908  21.7315044  53.0237961
  82.3852158  22.6084118  54.1644897  64.4941711  22.3325386  72.8451233
  64.5877228  23.2596912  72.6263275  65.0352402  21.8782616  72.1992874
  84.3321915  61.1827927  47.0515862  84.0942535  61.8104248  47.7340050
  85.1712265  60.8228874  47.3391876  11.9639473  39.2153816  14.2392445
  11.0207071  39.3550720  14.3230124  12.0471706  38.3036385  13.9599152
   0.7221705  21.0645809  75.8311234   1.2456871  21.7314720  75.3868027
   1.3576871  20.5604973  76.3393021  58.7583199  25.5537682  30.2946815
  59.7136803  25.5221767  30.3448448  58.5646591  25.4715385  29.3608913
  58.1643486  35.8104591  21.6243019  58.1199112  35.5840340  20.6953297
  57.5555534  36.5426483  21.7217484  67.6195068  11.6594152  44.5874405
  67.8492508  11.0543690  45.2926865  68.3005753  12.3313532  44.6169662
  69.2094116   4.2634554  32.0491409  69.9712067   3.8267450  32.4301643
  68.6090317   4.3831253  32.7849731  50.4544525  55.5196152  61.9840851
  49.5962715  55.1343651  61.8070564  51.0537872  55.0438995  61.4089966
  78.8200455   0.1770639  85.6881104  78.7894592   1.1332779  85.7189484
  79.5345917  -0.0203084  85.0825577  81.1714020  57.8680153  59.1887283
  81.3587723  57.2216263  59.8693924  80.2523193  58.0987167  59.3239899
  62.0237427  32.1048813   4.6006718  61.1154785  32.4056778   4.5722475
  62.5066452  32.8370628   4.9840088  31.0873795  66.1825256  69.1197586
  31.9390831  66.0062866  68.7200394  31.2409706  66.9375763  69.6876755
  78.4092560  29.4134598  10.5510740  78.5457077  29.5530128  11.4881639
  79.2854004  29.4722195  10.1700935  27.8478508  30.0595608  22.8899479
  27.2332535  30.7445774  23.1531067  27.6961956  29.3492908  23.5134468
   9.0703449  64.7574081  65.3684692   9.6597843  65.4679260  65.1155701
   9.4660702  63.9719772  64.9906616  68.3911285  38.1338196  42.6948204
  68.8169174  38.8675156  42.2513924  69.0299683  37.4225159  42.6483421
  24.4507351  50.2453613  32.6384544  24.2831478  51.1502762  32.3752518
  24.6071339  49.7816963  31.8157864  74.0249863  31.7946224   8.1624908
  74.9804916  31.7928829   8.1055756  73.8408432  31.8999004   9.0958920
  77.2189331  37.7844620   7.7978520  76.2719193  37.6753159   7.8843699
  77.5057907  37.0110855   7.3122234   3.6325288   3.3896563  76.6895828
   4.5085931   3.2790096  77.0590363   3.0587347   3.4645522  77.4520645
  82.0050735  54.0720940  86.6130066  82.2625504  54.2946739  85.7183609
  81.0833282  54.3245392  86.6668015  53.2177048  66.0889511  79.7402573
  54.0057144  65.5557785  79.8451309  52.6425972  65.8090286  80.4523849
   3.7639797  26.8422203  55.8269577   4.0923810  25.9540882  55.6869431
   4.0594592  27.0706768  56.7082825  71.1742783  33.5675354  81.5525970
  70.2294769  33.4397583  81.4674759  71.4851151  33.6631737  80.6523361
  36.5412331   8.4490604  23.3792496  37.0530319   7.7188296  23.0313187
  35.7566032   8.0394526  23.7436829  45.0879250  28.1745224   2.1146779
  45.7158432  28.1526604   1.3925464  45.5790634  28.5450058   2.8479989
  58.3563232  18.3788548  54.3910408  58.3076668  19.0788918  53.7400322
  58.5501442  17.5916195  53.8821945  34.5560608  57.2825890  59.5411530
  33.7908974  57.3201714  58.9672661  34.2142334  56.9608192  60.3753281
  36.4053650  54.8255920   3.3588448  35.9475212  55.6240730   3.0960896
  36.0610046  54.6276016   4.2297344   7.8987880  26.3252964  43.9005966
   7.8073702  25.6700172  43.2088737   7.1154842  26.8695145  43.8200073
  38.6295662  50.6189346  27.6062069  37.7147293  50.3380890  27.6270046
  38.8176193  50.7539101  26.6774178  15.3620453  49.9686012  79.3800507
  15.7248993  49.1244545  79.6483459  15.4444332  50.5223694  80.1564407
   9.5824928  46.1200523   9.2759638   9.9350519  45.2324219   9.3395338
   9.1047239  46.1291733   8.4465752  70.6372375  24.2707958   9.0750370
  70.9926453  23.4521065   9.4209690  69.8474960  24.0081997   8.6021967
  74.6284332  37.9714508  63.4223709  74.2197495  38.8162842  63.2340279
  74.0516968  37.3289566  63.0090714  49.3677597  23.4670067  10.0872612
  48.8101425  23.4508686   9.3094215  49.9218750  22.6912994  10.0008612
  73.7662048  20.5698299  81.5512466  73.4219818  21.4559422  81.4392242
  74.2945633  20.6170788  82.3480072  85.5520096   8.4563589   5.6005116
  85.5565567   9.3977652   5.7736177  85.5363235   8.0532866   6.4685659
  11.5203190  10.2926464  31.8982277  11.5510578  11.1373167  31.4489841
  10.9364605  10.4383783  32.6426086  32.0051231  50.6293182  64.1255951
  31.3968811  50.3634262  64.8152161  32.5114746  51.3423805  64.5146790
   2.6153924  18.3880081  78.7387314   3.5131769  18.3130798  79.0621567
   2.0810025  17.9765282  79.4179535  15.9755344  58.6435814  31.2420559
  15.8071823  58.4690552  30.3160801  16.5568676  59.4040298  31.2406235
  82.5574646   8.8888674  87.7372971  82.1771927   8.2239952  87.1632156
  82.7693710   8.4170437  88.5427246  12.9644756  15.9804459  84.0558853
  13.3514051  16.0946903  84.9239044  12.6970978  15.0616617  84.0318756
  28.4491615  61.3388329  20.7447815  28.6856022  62.0010262  20.0952988
  29.1498318  60.6889687  20.6902637  60.9431915  55.2581444  20.3443012
  60.6516342  54.5251236  19.8021679  61.3476639  54.8455925  21.1074753
  87.0172043  33.6263428  68.1851120  86.5013428  32.8330841  68.3295441
  86.3726959  34.3340340  68.1826477  21.8124752  52.7087669  62.4501190
  21.6028900  53.6069832  62.1941757  22.6007843  52.7904205  62.9869003
  74.3575439  70.7828979  66.8981628  74.0792236  71.3775024  67.5947342
  73.5465927  70.5430603  66.4497452  70.5207138  61.6461067  88.7373581
  71.3631287  62.0241280  88.4850388  70.4655304  60.8303642  88.2396164
  14.2221327   6.5861192  63.6992111  14.5106726   6.1534920  64.5028305
  13.6444025   7.2878962  63.9991608   7.1061344  24.2414036  42.1206398
   6.2490082  24.1140594  41.7140083   7.7081633  23.7371349  41.5733681
  66.1689758  28.5003834  45.0439301  65.8083572  27.7131176  45.4518509
  66.9533920  28.1958599  44.5876541  74.5848923  52.2039146  41.4754066
  73.9817963  52.6565399  42.0650101  75.3890686  52.7218170  41.5115700
  59.0379105  21.9684658  87.9045105  59.9175606  21.5977039  87.9751129
  58.5584221  21.5894966  88.6411972  77.8017502  17.5452328  46.8415642
  77.8646164  17.7968273  45.9201622  78.4238510  16.8238945  46.9358635
  58.5395813   9.9005041   9.4429951  58.3025093  10.3575687  10.2499151
  58.0756607   9.0649137   9.4958811  22.0500374   2.5414400  30.9372368
  22.0064850   2.7749476  31.8644962  22.5225735   1.7091523  30.9217777
  20.4643517  60.8094368   0.3843176  21.1062641  60.3609772  -0.1661978
  20.9350052  61.5666084   0.7327540  64.1998901   1.7867807  60.5804977
  64.6345444   1.1991892  61.1985970  63.3681755   1.3554621  60.3844223
   6.9483814  42.0799561  22.0474453   6.2940297  42.5358391  22.5768089
   7.7557025  42.1432381  22.5577984  26.9103298  25.9002113  22.8428574
  26.4658356  26.0901718  22.0166779  26.7939472  26.6937008  23.3654099
  16.7826061  48.7801514  13.1651525  17.2935047  48.8331184  13.9728708
  17.2496510  48.1402969  12.6278572  14.9747114  71.3302841  73.3344727
  14.5261431  70.4950485  73.4664001  14.2781286  71.9854660  73.3761749
  74.3858643  59.9151573  14.7626495  74.3283310  60.8090706  15.1000576
  73.4856339  59.5909119  14.7887173  44.3404274  60.7683411  80.1372070
  44.2326622  61.6148872  79.7036514  45.2526093  60.5293961  79.9727173
  77.4761276   7.9897919  88.0815277  77.9048386   8.3646755  87.3121719
  78.1911087   7.8184977  88.6944656  63.4613953  40.9455986  87.6459808
  62.5607681  40.6247635  87.6925735  63.8597832  40.4390526  86.9382172
  17.6456490  63.3944778  30.6828938  18.5898247  63.5341301  30.7554226
  17.5269737  62.4618225  30.8626099  50.1725426  35.0035286   8.3243570
  50.0732040  35.2619400   9.2406483  50.8619423  35.5757942   7.9875026
  13.1689272  22.7820168  72.2086639  12.6867027  22.3613472  72.9205170
  12.5526266  23.4175644  71.8446884   6.9206271  44.9797821  18.9785290
   7.2525821  44.2533836  19.5061493   7.3517666  45.7544899  19.3393307
  73.8708572   8.3363771  44.6305733  73.2472305   8.7428560  44.0288239
  73.3641510   7.6597319  45.0796127  34.3349113  52.1395760  42.2194366
  34.7246971  52.7480659  41.5917091  33.6729507  52.6583595  42.6765022
  85.2245941  62.5062599  70.2255249  85.6309662  63.3729019  70.2200851
  85.0219803  62.3309555  69.3065872  32.4482651  17.8072376   1.1632205
  32.3330460  16.9106274   1.4779377  33.3427086  18.0365353   1.4154704
  84.7435226  43.6493225  26.7675362  85.5387726  43.2142525  26.4600925
  84.9448547  44.5834656  26.7120934  63.9151535  60.4755096  74.3654709
  64.0010681  60.9304771  75.2032394  64.7810440  60.0994415  74.2072525
  71.2506485  50.7306747   1.2100306  70.6344376  51.2181129   0.6632938
  70.7941437  50.6184845   2.0438464  11.5761814   0.3937974  65.4833679
  11.4514313   1.0935367  64.8422470  12.0638399   0.8063009  66.1962891
  18.5323696  35.7326508   7.9014359  18.4554176  35.3443527   7.0299230
  18.8213005  35.0113068   8.4603758  78.7706757  40.9669914  54.7399254
  77.9096756  41.2631836  54.4446564  79.2552185  41.7741165  54.9131165
  17.2805634  22.4957695  83.9356461  17.0903511  23.3802166  84.2483826
  17.2773609  21.9562874  84.7263336   1.0872211  30.4153709   4.0304303
   1.5702318  30.2656193   3.2177143   1.7381556  30.7748985   4.6331372
  73.6717834  49.2493591  16.9313526  73.8986206  49.5292435  17.8181686
  73.6007004  48.2967110  16.9916744  13.5653210  52.4711494   1.2121804
  13.0088568  53.1534920   0.8366983  12.9634876  51.7539711   1.4113833
  52.8570404  71.1829681  77.5282669  53.7298241  70.8602600  77.7526398
  52.6464424  70.7489853  76.7015076  55.2087631  19.1300240  82.8227692
  54.4407005  19.3577538  82.2988892  55.5920830  18.3779411  82.3714676
   0.9522433   5.2671423  50.2075882   0.4143648   5.9696755  50.5727844
   1.4687885   5.6921878  49.5229378  12.6514435  28.7034168  77.9165115
  12.5025215  27.9559345  77.3374405  11.8100357  29.1591454  77.9405441
   6.6796551   5.0625296  50.1312866   5.8973742   5.5909286  49.9729767
   7.3015089   5.6695342  50.5326271  22.3662682   0.9281968  67.7183914
  22.6425762   0.0353109  67.5118942  21.4140720   0.8718308  67.7982407
  69.1589432   8.3517113  87.9259872  69.4233704   8.6964626  87.0730743
  68.6276932   9.0483189  88.3116608  70.0401764   6.6129775  56.3236122
  69.6534958   7.4564972  56.0886993  70.3758850   6.2650170  55.4975052
  59.5182343  30.0445690  89.0914993  59.8420830  30.1199646  88.1939087
  58.7929230  29.4226952  89.0329895  48.6442451  18.3696651  80.9216843
  49.5734634  18.2475414  81.1162872  48.4600639  17.7378922  80.2265778
  79.8086548  14.1438265  70.7218857  80.1010361  15.0444250  70.8621140
  79.6569595  14.0853891  69.7785873  46.7202301  26.6561852  11.3579311
  46.9827843  26.3700657  12.2328205  47.3658600  26.2601929  10.7726259
  79.5696411  42.2930183  27.0682678  80.4568329  41.9444733  27.1557121
  79.5816574  43.1074829  27.5709972  47.2664070  55.9536781  53.0349083
  46.7122688  55.3414917  52.5507698  46.8999672  56.8157196  52.8378296
  42.3137207   3.8861737  70.0604630  42.9406624   4.3803406  70.5886459
  41.4740601   4.0164471  70.5011826  72.4026108  15.9606018  34.2418365
  72.8540955  15.9456539  35.0857391  72.7938995  16.6982765  33.7739029
  25.6094952  64.5683365  61.9212265  25.5573826  63.7344093  62.3882217
  24.7835884  64.6258316  61.4408035  75.7342682  44.5830803  48.9178658
  74.9297256  44.8778763  48.4912071  75.9192047  45.2569275  49.5720520
  52.5932655  55.0839615  57.4216995  52.6348915  54.1441269  57.2450218
  51.8262596  55.3854523  56.9348373  32.5456734  58.6188354  10.8403997
  32.3628616  59.1459579  10.0626125  32.4425163  59.2275047  11.5719137
  78.9003372  18.9257832  29.8709736  79.4773788  18.5710354  29.1946564
  78.4587860  19.6617622  29.4471798  77.3201752  27.0003929  84.5464172
  77.3589706  27.1137123  85.4960938  77.1268768  27.8748760  84.2085571
  76.9546432  32.7312660  82.2749329  76.5253906  32.3954620  83.0618286
  77.8090363  33.0365677  82.5799408  50.8751831  58.3611450  21.3579922
  50.6864204  58.3359718  22.2960567  50.1522484  57.8801384  20.9552135
  34.4195061  44.8197517  83.8586426  35.2968254  45.0332985  84.1763611
  34.5059662  43.9410973  83.4888916  82.0746384  52.1306114  20.1390095
  82.4067535  51.3136864  20.5112495  82.6992722  52.3502159  19.4477501
  55.7425957  27.2730217   2.5282784  55.8871002  26.8697109   1.6723057
  56.1176987  26.6515770   3.1522479  53.2966042  47.3703537   7.2191229
  53.9619026  46.8243446   7.6380329  53.2189903  47.0160446   6.3333044
  48.9339027  47.9964256   5.0688286  49.8092461  48.1550140   4.7154818
  48.4177551  47.7159081   4.3130970  51.3992996  23.8523331  13.1561871
  52.1778221  24.0860500  13.6616669  51.1297989  23.0046005  13.5096731
  84.1081924  17.3069954  19.6619797  84.2955780  16.9349289  18.8001881
  83.6736069  18.1389542  19.4743290  82.7465134  69.7864456  16.4422016
  82.8066711  70.1711502  17.3166218  82.8868027  70.5224762  15.8465424
  63.5157089  60.6126366  88.4443054  64.3294983  60.3388443  88.8674011
  63.4126282  60.0079994  87.7094421  84.0095215  20.9795055  66.6738281
  83.4150848  21.5239792  67.1899948  84.7074127  21.5763779  66.4037781
   0.7914034  54.5117455  76.0329819   0.5143080  54.7318916  76.9223557
   0.8670194  53.5575409  76.0349503  45.9146996  62.5392876  45.4499359
  45.7163849  63.3666267  45.8885803  46.7995605  62.6574135  45.1045380
  28.0084476  31.0089607   2.2430842  28.1151390  31.9591370   2.1981962
  28.7776299  30.6600342   1.7927051  29.3412876   7.1703758  57.7360344
  30.1618824   7.4984050  58.1038017  29.4331493   7.2999473  56.7921066
  10.2861662  57.8261452  22.7566109   9.8899221  58.3909760  23.4200802
  10.3806629  58.3890991  21.9882431  71.8229370  15.2674646  23.3447723
  71.1328278  14.6156054  23.4675159  71.8556519  15.4063053  22.3982601
  24.8168850  70.4612732  36.5043983  24.3355522  71.2884369  36.4858704
  25.6772633  70.6767044  36.1444397  59.3384056  19.4509754  56.8653297
  59.2946548  18.9409046  56.0565376  60.0442047  19.0436516  57.3674927
  51.6319084  26.0397835  22.2665920  51.7698631  26.4425335  23.1239090
  52.3522301  25.4159069  22.1763515  17.9790936  42.3104515  27.4070530
  18.1884918  42.2057953  28.3351860  18.8304977  42.3900795  26.9769306
   5.7172894  16.9197369   4.6345606   5.7759671  17.5536213   3.9197319
   4.9723787  17.2165146   5.1573062  11.6299200  14.8535938  79.8863754
  12.4560757  15.1239433  79.4856186  11.3041677  15.6427288  80.3192596
  27.5498390  38.3545494   3.4618361  27.5772209  39.3112144   3.4784892
  28.1402512  38.0857544   4.1656785  32.0117378  12.3474369  80.0039902
  31.0778427  12.1465473  80.0649719  32.0433807  13.2281513  79.6304016
   1.6276513  64.2780609  46.9896393   2.5143728  64.6385574  46.9913330
   1.3884755  64.2347565  46.0638123  50.0748634  15.8996096  76.7880096
  49.7161942  16.2063274  75.9552383  49.4585266  15.2286940  77.0816574
  65.1510315   7.3779054  15.9041815  64.7659149   7.9156780  16.5960751
  65.6089706   8.0028057  15.3420210  64.5023727   4.2606249  12.8761749
  64.0803223   4.5074935  12.0532761  63.7861137   4.2196522  13.5098391
  64.0479507  32.4438972  21.9847507  64.4761658  32.4063454  22.8400021
  63.6924400  33.3311577  21.9336452  58.1773033  47.5739326  25.1602249
  57.3511620  48.0439682  25.0471630  58.8314323  48.2633591  25.2744160
   3.0353079  51.4940605  42.7404327   2.2053058  51.2682953  42.3204803
   3.0483558  52.4511528  42.7460403  80.8284454  51.3923759  63.9664001
  79.8867645  51.3008270  64.1116333  80.9510040  52.3206558  63.7676353
  27.8554325  40.1331291  13.6780586  27.1527023  40.7830544  13.6792059
  27.7719517  39.6886253  14.5216703  64.5859375  38.3143806  34.2023125
  64.8687363  38.3260117  35.1167107  64.4212418  37.3903961  34.0142784
   5.3624520  43.5806847   1.9676864   5.1022930  44.0762863   1.1912003
   6.2356467  43.9099960   2.1805649   6.1640239  50.2373810  45.5400124
   5.3690858  49.8277054  45.1987305   6.0949340  50.1399002  46.4897232
  43.1412468  56.1507988   4.0690694  44.0122032  56.0078125   4.4395022
  42.8104782  56.9239502   4.5263019  67.6887970  20.5927315  50.4991264
  67.9151154  20.9690838  49.6486168  68.5159683  20.5738201  50.9804306
  17.0770473  44.2698746  71.6287613  17.8692741  43.7341042  71.5892715
  17.0369892  44.7014618  70.7753220   1.2589524  48.9911499  82.1891174
   2.2014875  48.9634056  82.3537064   0.9315961  48.1589928  82.5305557
  57.6187325  40.4293785   4.2791195  58.2780037  40.7940826   4.8695312
  57.4407387  41.1329346   3.6549735  57.1043434  70.3277512  69.5613632
  57.7599144  70.3565521  70.2582397  56.2697754  70.2369690  70.0212402
  29.5288467  17.9531956   0.4849195  30.3713913  18.2072716   0.8614776
  29.7566185  17.4916573  -0.3221331   1.1364745  28.3376675  82.3939743
   1.5278370  27.4645863  82.3657227   1.6238170  28.7965679  83.0781784
  54.9320717  63.5262260  58.5666351  54.5075798  63.8492393  57.7718391
  54.5386925  62.6664276  58.7157555  65.1476746  60.5402489  33.0878143
  64.4306107  61.0555038  33.4573555  64.8013687  60.2070656  32.2599945
  24.3447285  57.8521500  15.6467953  23.5680866  57.3941765  15.3253593
  24.5152683  57.4618835  16.5040245  39.2409554  14.2309732  25.1550331
  38.8804321  13.5056133  24.6450272  38.4762192  14.6483765  25.5514965
  35.1637917  39.7030258  18.2642612  35.5997353  39.1758575  17.5947247
  35.0194092  40.5512314  17.8448238  80.0493698  54.4368019  18.4671707
  79.6510773  54.1555176  19.2908669  80.9146194  54.7605019  18.7177639
  72.4448929  45.9970512  84.6684113  72.6653671  46.9044800  84.8786316
  71.5419083  46.0367928  84.3533249  34.1307030  56.7308502  78.4963837
  34.2118530  57.4743385  77.8990021  34.4643822  57.0574608  79.3319778
  84.4329529  14.8140135  45.1792450  84.7380371  14.2328682  44.4825211
  84.5423813  15.6950216  44.8213577  52.6053391  70.1930923  13.8848410
  52.6017952  69.2905655  14.2036886  51.7343025  70.3173752  13.5079088
  26.1027794  45.7023659  68.6717834  26.4424725  44.8076859  68.6520233
  25.8296947  45.8748322  67.7707214  60.3284874  59.1640739  22.5522213
  60.2119751  60.1079445  22.6606770  59.8953743  58.9630394  21.7226238
  35.9755440  61.8646545  34.9518814  35.8380928  61.9295921  34.0068283
  36.7700996  62.3732643  35.1138535   6.4359531  66.3569107  74.8383865
   7.3636885  66.5920944  74.8534164   6.4048634  65.4802628  75.2214737
   3.4965684   3.2029357  59.2805939   3.3041339   2.3013754  59.5382538
   4.4458904   3.2199123  59.1592216  17.0114384  19.6199760  85.9512253
  17.8689613  19.9900379  86.1608429  16.7620239  19.1333828  86.7368774
  21.9017315  58.3255310  69.0687561  21.4539375  59.0308647  68.6016159
  22.2162666  57.7425575  68.3777847  62.7383499  37.5706635  77.1270370
  62.8134689  36.7370491  76.6626205  62.0405731  37.4266891  77.7662582
  37.9561462  34.6900749  81.1034851  38.1269684  35.3716469  81.7534943
  38.2432861  35.0725136  80.2743149  28.8597126   8.6879730  74.5130615
  28.1494904   8.1447716  74.1713791  28.4370995   9.5134544  74.7501526
  78.4321442  29.2085972  70.7139359  79.1568680  29.0621700  70.1060104
  77.6506882  29.2013645  70.1612091  21.4314308  32.6577454   0.7457899
  22.1319275  32.1307297   1.1302254  20.6797619  32.5128517   1.3204465
  20.8451672  56.9510803  63.9998894  20.1763363  56.2821388  64.1462097
  21.4709988  56.8240395  64.7129288  15.3062916  62.7124557  58.9307976
  14.9648876  61.9278603  59.3598442  14.7606897  63.4245949  59.2645836
  55.7885437  31.9550495   8.7816420  56.6054802  32.3985405   9.0100307
  56.0652390  31.1063499   8.4361267  49.0314903   1.8714027  81.7656174
  49.3434944   1.7269046  82.6589355  48.5743637   1.0618861  81.5376968
   4.0041542  11.0864401  29.0195274   3.3159819  11.0760717  28.3542900
   4.6578279  10.4656982  28.6976242  68.5635376  30.2390633  84.4806900
  69.2538300  29.8027668  83.9813156  69.0269318  30.6894379  85.1868515
  16.2297783  27.2577915  78.2971878  16.2075462  28.1152782  77.8723907
  16.8585720  26.7517948  77.7825851   2.0664263  33.6805992  44.9801559
   1.7583477  33.9695816  44.1211967   2.7087948  32.9977684  44.7869377
  23.3449020  21.2437840  10.7304230  23.3761330  21.6108761  11.6138821
  23.9408360  21.7933941  10.2214813  24.4616680  51.9218597   7.7742505
  23.8150959  51.6900291   7.1075926  24.4015274  52.8745308   7.8451843
  84.8246689  54.7978172  44.8473244  85.4741898  55.3024330  45.3369446
  85.1500854  54.7980766  43.9471359  15.6803932  51.0971222  47.2258835
  15.3762980  50.3094940  46.7748833  16.2840424  50.7725296  47.8940735
   6.9054170  20.2964363  58.0363579   6.8243217  19.4708080  58.5138435
   6.5496464  20.9544525  58.6335793  12.6979084  -0.2706061  54.7925568
  12.6118345   0.2133335  55.6139107  13.1043129   0.3516782  54.1893730
  53.8980675   0.7746629  14.0748186  53.3640366   1.2666452  13.4511232
  53.5051498  -0.0980357  14.0904341  67.9970779  53.0760422  34.6537323
  67.6968079  53.4095955  35.4991989  67.4259644  52.3291092  34.4744148
   3.1688273  69.4428558  65.6530762   3.7165120  69.9589767  65.0615616
   2.5020607  69.0559235  65.0856857  21.2465057  69.1234131  71.8019867
  20.9538460  68.8892288  70.9212265  21.5379448  70.0318146  71.7239151
  16.7997379  35.7067108  24.6199703  17.3714771  36.0142403  25.3233700
  17.0710163  36.2111053  23.8530121  85.5247040  20.9817028   8.9178934
  85.1236649  21.6583557   8.3724184  85.6638641  21.4073486   9.7638779
  46.6194992  50.8756065  65.0883713  47.2591476  50.9319077  65.7982407
  46.6287270  49.9539299  64.8301926  78.7403793  16.4454956  30.9199810
  77.9870758  16.4370174  31.5104752  78.8276138  17.3614769  30.6561604
  67.2740326  51.7063293  19.7718353  67.2752380  50.7816696  20.0193024
  67.5259857  51.7074547  18.8483925  33.8622055  46.6712151  80.1628036
  33.5975761  47.4337044  79.6482086  33.9025459  45.9560356  79.5278854
  33.4698906  51.2314415  77.6157990  33.4275169  50.6334763  76.8695602
  33.8863564  50.7197990  78.3093491  41.1152573  46.3327332  70.5873566
  40.1648636  46.3317299  70.4734344  41.4480095  46.7977257  69.8197021
  34.6572876  57.0391998  81.4384460  35.5806122  56.8579483  81.2628021
  34.6676216  57.8193588  81.9929581  47.6528893  12.2250786  69.4875183
  47.7567177  11.6911983  70.2751923  46.7093277  12.2338076  69.3267517
  83.2377701  65.4416885  58.4462357  83.3084641  66.0691681  59.1656075
  82.2991867  65.2703323  58.3692436  16.4233227  41.1450119  37.1392632
  16.9028187  40.6733551  37.8203316  15.5048847  41.0723190  37.3989182
  52.0471687  44.5283089  85.3662415  51.7845154  43.6082573  85.3388901
  51.8100624  44.8708000  84.5044327  69.0362930  70.9533005  42.4317131
  69.1963654  70.3983383  43.1950111  68.0953751  70.8770981  42.2732735
  81.5101242   6.3057647  56.3521690  81.4478302   6.0717463  57.2782288
  81.6453171   5.4714499  55.9028625  19.0915585  11.6568213   7.0936050
  18.8774567  10.7728634   7.3919492  19.2627010  12.1462841   7.8981972
  68.6609573  26.3200550   8.1061411  68.8801270  25.7026463   7.4082861
  69.4192963  26.9018173   8.1581345   4.6022463  31.7812557  41.2961464
   5.2299762  31.4544487  40.6516418   3.7456799  31.5715561  40.9239197
  51.0850716   1.7419150  75.7287750  51.0100670   1.3661432  76.6059341
  51.7405701   1.1989716  75.2908630  51.3405647  36.9377708  12.9442606
  50.7364159  37.2258301  12.2599678  51.9052315  36.2975464  12.5112495
  20.1021652  22.4428387  68.6387558  20.3892860  22.1913757  69.5165710
  19.7414036  23.3227406  68.7476425  49.3357468  67.0191269  10.0099506
  49.7925720  67.7449875  10.4349928  49.2143631  67.3090897   9.1058397
  56.7821388   4.7316775  25.3406620  57.4477501   4.9041762  26.0065727
  57.2802162   4.4695249  24.5664349  53.2466965  53.9014511   3.4887118
  52.5655518  53.4866753   2.9593370  53.1517296  53.5048752   4.3547039
  27.0409908  51.6707191   9.1485243  27.1482430  52.4666100   9.6693726
  26.1533012  51.7330589   8.7958870  35.3682823  27.4519215  71.6610413
  35.0085678  28.2467327  72.0548782  36.1525002  27.7475376  71.1986084
  86.5245361  22.4850655  68.8178101  85.7377243  22.4633541  69.3625031
  86.1937790  22.5437107  67.9214859  60.4330940  61.8911743  54.5070381
  59.8913078  61.1922874  54.1406288  60.0687637  62.0446053  55.3787918
  51.2733841  53.8664665  50.6066093  51.8610573  53.1395721  50.4004593
  50.4520950  53.6419144  50.1692352  10.6008167   3.3879561  69.4538803
  11.3682680   3.1215534  68.9476395   9.9962740   3.7441666  68.8028183
  44.7489281  25.1853294   5.1164775  44.3794441  25.6409016   4.3600612
  45.4751854  24.6753807   4.7576809  47.4858246  25.2123222  79.2805634
  46.7054367  24.7630787  78.9559021  47.2331505  26.1348286  79.3175735
  58.3483162  21.5980492  34.6485825  58.6090660  20.9488659  33.9952812
  58.7045898  21.2653122  35.4723473  41.2658424  65.3369675  45.1085052
  41.6224518  64.4649506  44.9392624  40.9311714  65.2892075  46.0040207
  51.2264633  60.0520248  46.1756248  50.3351250  60.3984108  46.2176514
  51.6183777  60.2969475  47.0138664  71.0972824  21.4688492  10.6199770
  70.9024658  20.5639400  10.8637362  71.1962357  21.4445190   9.6682167
  28.0547523  48.7026482  34.6883888  28.3818150  48.1593475  33.9713936
  28.4701633  48.3413429  35.4714127  20.5101242  12.0191898  20.3512688
  20.5780811  12.6103954  19.6015434  21.3481369  12.1102028  20.8047905
  81.5215912  58.0917625  17.1909561  81.8019180  58.4569740  18.0301647
  80.7496872  58.6050034  16.9522629  63.0886688   9.4759645  35.2284927
  63.8941612   9.4742594  35.7456131  63.3316078   9.0521317  34.4053421
  78.1596603  13.6432819  59.8005371  77.8201141  12.8403425  60.1957932
  79.0425720  13.7321148  60.1594238  37.3408623  59.3677940  35.8741722
  36.4967918  58.9764404  36.0991631  37.5537491  59.9248886  36.6228752
  31.9833393  56.9666710  69.9455490  32.9030495  56.9051247  69.6875305
  31.7630901  57.8908157  69.8285828  19.0146351  64.8330994  78.8599854
  19.2325687  64.2566605  79.5924149  19.8178635  64.8751373  78.3410568
  29.8325996  28.0954571  73.7300034  29.1166687  28.7299099  73.6961441
  29.7344322  27.6687584  74.5811920  41.8879051   2.8061872   0.8382075
  42.1146164   3.5327067   1.4187286  41.0839767   2.4439180   1.2106183
  79.8464050  19.1217289  32.6358147  79.0110474  18.9179420  33.0563736
  79.6313858  19.2123661  31.7074928  25.7340717  13.0788765  88.9096375
  25.0502281  12.5243816  89.2853012  25.2637634  13.6834249  88.3355637
  29.3687534  33.7677078   1.2438869  29.9686069  33.8538818   1.9848197
  29.9406738  33.6997223   0.4793499  23.0601406  53.1295929  23.1867027
  22.5430546  52.4112244  22.8222790  23.7159958  52.6986237  23.7347469
  73.9069901  61.7523766   4.1211433  73.9243851  61.0586548   4.7804446
  74.3507156  61.3730431   3.3625634  86.8581619  47.8765526  39.3418236
  85.9046555  47.9361496  39.4011230  87.0162888  47.1157684  38.7828712
  34.0135002  47.9474678  22.2911301  34.5043793  47.5726471  21.5598450
  33.9692955  47.2419891  22.9365559  68.7835541  21.6290169  73.1775284
  67.9055862  21.6408768  72.7964020  69.1358109  20.7710266  72.9408951
  83.6936188  32.3899651  31.6570034  84.1475220  33.2236557  31.5338612
  82.7726974  32.6311226  31.7569027  53.1077347  56.1428795  75.6197662
  52.1914978  56.2673607  75.3722763  53.3421440  56.9471550  76.0828247
  74.4932709  69.4246140  52.8623390  73.7200012  69.0040588  52.4862823
  74.2041702  69.7335663  53.7209435  19.5763988  34.6711845  83.8351212
  19.8143444  34.7303085  84.7603912  19.0653629  33.8644180  83.7703171
  21.5075893  36.2653542  27.6906815  21.4606056  35.8009644  26.8549976
  21.0954247  37.1118011  27.5178223  37.6388931  42.8562431   6.3823967
  37.9317932  42.3312836   5.6375089  38.3224182  42.7383385   7.0420375
  11.0802269  51.2290764  72.7310410  11.5944328  50.8390274  73.4379196
  10.2525749  51.4748154  73.1443634  49.0116730  68.1739120  88.4337997
  49.6608772  67.9673767  87.7614059  49.5143585  68.2156067  89.2473068
  77.7024460  26.3368683  20.5071354  77.7952423  27.2628822  20.7310104
  78.1790771  25.8748074  21.1967411  22.3658028  49.2304306   7.9599586
  22.2660332  49.3207970   8.9076462  21.6104679  48.7090225   7.6882410
  38.7549858  53.0687981  54.0777626  38.5288963  53.2402763  54.9919357
  39.3684425  53.7666664  53.8477898   3.3302131  46.8460159  59.1368942
   3.6682529  46.6947937  60.0195580   3.6955497  46.1317024  58.6148605
  55.8078575   0.5673204  66.1799011  55.8398590   0.0287321  65.3892517
  56.7187386   0.8156499  66.3375778  39.5157280  70.7151947  60.7567596
  39.3941689  70.3443832  59.8827133  40.4135284  70.4820938  60.9930840
  50.1065521  39.4083366  74.0411072  49.5342941  39.4721680  74.8057480
  49.6241531  39.8516426  73.3432541  14.5807514  42.5790291   8.2983046
  14.5741730  43.4370117   7.8739729  15.5089684  42.3624687   8.3863239
   9.7761850  12.7858000  30.9071293  10.2488537  12.2709446  30.2531109
  10.3429594  13.5387774  31.0745296  64.0474777  69.5255508  51.8176231
  63.5252075  70.0318451  51.1954269  63.9454536  69.9890442  52.6488876
  75.1175537  25.4141026  56.8713608  74.7326202  24.5406761  56.7993469
  75.7205963  25.4719238  56.1302605  60.1326599  15.9394045  65.2447281
  60.6059456  15.9741735  66.0760117  59.2236061  16.1268158  65.4786682
  62.0717850  10.3297215  75.8739777  61.8922882   9.6846142  75.1899872
  62.4265709   9.8166189  76.5999832  75.1412735  49.9130287  67.4728317
  75.3486481  49.7661400  68.3956833  74.9145126  50.8416557  67.4231720
  16.5667706  39.5218582  76.1341171  15.6818428  39.5603371  75.7712708
  16.5230827  40.0535202  76.9288864  -0.1722461  44.0783691  67.8892517
  -0.2070288  44.9767189  67.5606384   0.6234982  43.7126465  67.5028992
   5.7480659  67.9530106   2.0881565   5.7235961  67.6726532   1.1732610
   6.5638728  67.5864716   2.4292438  71.0279846  58.0389214  80.4580154
  70.9085999  58.8992615  80.0557785  71.8849411  58.0893326  80.8814697
   8.6599665  65.7344818  59.0059013   8.7638426  66.3632431  58.2916946
   8.5389748  64.8921127  58.5677109  12.9708958  43.2569962   1.7334174
  13.7056828  43.1257095   1.1341822  13.3747253  43.3095741   2.5996673
   8.5199070  41.9657097  28.9618664   8.4171381  42.0689430  29.9079189
   9.4571486  41.8160934  28.8376713  72.3054428  45.4241371  69.3313522
  72.1380844  44.6589470  69.8815384  73.2485962  45.5701599  69.4046402
   3.3008821   6.2634082  82.7377472   2.9870727   6.5542164  81.8814850
   3.5387635   5.3455620  82.6065903   9.6625977   3.3147948  15.0760384
   9.9886169   4.1824293  14.8369684   9.8808327   2.7618361  14.3258095
  64.0650024  62.5273933  23.9857864  64.0585251  62.1812592  23.0933838
  63.1638832  62.8115273  24.1390228  22.0717106  13.5729942   6.3642316
  22.8826351  14.0091410   6.1026821  21.4326324  14.2814798   6.4407735
  33.5893250  54.1567879  59.0502167  33.4308319  55.0330582  59.4013023
  33.9704437  53.6710281  59.7816658  85.0800323   8.6661577  85.1612396
  84.7551804   8.1734743  84.4076004  84.3291855   9.1849031  85.4499664
  76.3108826  63.6224098  77.0318756  76.4573517  62.7340546  77.3568420
  76.7681274  64.1846237  77.6572342  51.4317894  17.4365826   4.4869533
  52.3130074  17.1847248   4.2108107  51.0270576  17.7962151   3.6975961
  58.7658348  20.7130318  24.1614647  59.0528870  21.1934605  23.3849220
  57.9748192  20.2533951  23.8799286  14.9982042  67.6807861  76.2473602
  15.8093376  68.0988464  76.5363541  14.6912136  67.1976852  77.0145645
  63.9335213  19.5794220  35.9534912  63.3118973  19.4483624  35.2374992
  64.0106430  18.7183342  36.3643570   9.8566294   1.3881755  71.2093353
   9.3582010   0.7368058  70.7158585   9.9893417   2.1068823  70.5912094
  38.8546104  22.8642521  18.4397583  38.3905220  23.4958000  18.9893055
  38.1885605  22.2195950  18.2009563  78.2884598   6.7389231  73.8299484
  77.6176605   6.4044294  73.2346573  78.9981613   7.0247464  73.2547379
  53.1996269  27.1896820   0.5310516  53.3308334  27.8480225   1.2134048
  52.3453369  27.4015980   0.1548743  83.2881546  44.6558266   3.3247340
  83.2346573  45.5422974   2.9676034  83.1171417  44.0850754   2.5755837
  68.3667526  25.2370567  10.9707308  68.4989929  24.5596085  10.3075504
  68.6998367  26.0375462  10.5651360  80.4810562  70.1940994  48.2462387
  81.0953369  70.2631607  47.5154076  80.2561111  71.1004181  48.4565125
   1.1164150  24.3612328  83.1918411   0.4349291  24.6297340  82.5756302
   1.7174817  23.8313198  82.6682587  54.5083847  12.2901249  84.7213821
  53.6875114  11.8815670  84.4466476  55.1895866  11.7026663  84.3941345
  52.1584587   9.0712576  21.3147964  51.5809822   9.0663185  20.5514297
  51.9193039   8.2822723  21.8011475  31.7471714  69.8326416  37.6370392
  31.0495644  69.9168396  36.9870491  31.7281151  68.9098511  37.8906670
  34.4995766  46.3489189  64.5162048  34.2077980  45.9405746  65.3312836
  35.4245949  46.5453453  64.6644745  41.7045822  59.9970093  52.9738350
  41.4082413  59.8343468  53.8693581  42.6597557  59.9673767  53.0285263
  22.1939068  56.7460594  66.3899918  21.5302658  56.0874710  66.5951157
  23.0035877  56.3931885  66.7589569  47.9529114  19.2520332   5.2742944
  48.5090179  19.1024590   6.0388894  47.1292877  19.5778446   5.6372256
  69.4653091  54.1625366  49.5290642  68.5620422  54.2857323  49.2372208
  69.9933319  54.6153641  48.8715172  45.4371529   3.7349267  41.2459679
  46.3884239   3.7141793  41.1416321  45.2966118   4.2034383  42.0687561
  53.8980980  47.6409531  33.4290237  54.6904869  48.0899086  33.1344299
  54.1917686  46.7572060  33.6503410  33.6140137   3.0331333  11.7705650
  33.0770912   2.3001859  12.0717888  32.9997711   3.6085172  11.3146391
  76.1239777  54.0181732  46.8340950  76.1950760  54.9719162  46.8735199
  77.0062408  53.7038536  47.0317078  42.6553612   9.6303644  18.2936573
  41.8103714   9.7730474  18.7201157  42.6657524  10.2543612  17.5678806
  18.3946915  60.5233765  27.8621864  17.5177402  60.5057411  27.4789410
  18.9852753  60.4519577  27.1122913  53.8195419  58.1120758  53.9219170
  53.9119720  57.8304253  53.0117722  53.6391602  57.3056717  54.4050407
  64.6451569  45.1832123  21.5211811  64.5713959  44.2305717  21.4640522
  65.5676041  45.3633194  21.3398132   7.6855979  44.9982986  58.9032249
   6.8313017  44.7464561  58.5525322   8.3101883  44.4481354  58.4305305
  79.3354874  42.4229813  80.2322388  79.6602631  42.0746460  79.4019318
  78.6256943  41.8302383  80.4793854  10.4847746  27.9151211  12.0529585
   9.6278477  27.4902992  12.0908146  10.4819965  28.3861332  11.2196693
  42.9505959  65.0407639  25.8797398  42.8446732  64.2970276  26.4729290
  42.4902458  65.7597809  26.3125439  49.4734840  56.6983986  57.7307549
  49.3654518  55.8008652  58.0453949  50.0338516  56.6158791  56.9591255
  10.3218937  63.0757332   8.8388472  10.0944452  62.1485748   8.9086466
   9.7332363  63.4167213   8.1654644  25.2424183   5.1379461  63.1870193
  25.5938969   4.4566684  63.7602196  25.8829346   5.2094746  62.4793091
  23.6373749   9.3936558  71.9258118  24.0373993   9.0945873  71.1092529
  24.1297607   8.9439373  72.6125031  77.5161133  37.8642273  24.1718082
  77.3127441  37.0163231  23.7769279  78.2138519  38.2227173  23.6232872
  78.7085266  32.3270378  60.8278732  79.4355774  31.7044811  60.8353996
  78.2634354  32.1855965  61.6634102  80.0520782  19.4545746  79.2948990
  79.5498886  20.0095997  78.6982574  80.9022598  19.8884087  79.3671341
  36.4263153  30.7606640  72.6224670  35.8587532  31.4524994  72.2826614
  36.6483192  30.2342033  71.8544998  84.6579895  68.0172882  17.1987076
  84.3506622  67.2814789  16.6692066  84.1793137  68.7733383  16.8588848
   5.4515491  23.7356834  27.1446095   5.2874150  22.7940350  27.1955013
   4.6059461  24.1373329  27.3442688  78.1877136  57.2600250  31.5121136
  77.6327744  57.7616730  30.9149380  78.9680862  57.8024101  31.6264591
  55.1561852  38.1329422  85.9551163  55.8402328  38.5634499  86.4679260
  55.6295967  37.6773643  85.2590103  74.3198242  65.1205902  38.6730614
  73.3892899  65.0604553  38.8892250  74.7694244  64.9533844  39.5013924
  17.7308311  60.8433456  71.1407394  17.7024670  61.7053719  70.7256012
  16.9834633  60.8408165  71.7387924  52.4035530  55.3752327  83.1860657
  51.9898186  55.7346687  82.4012985  52.9542809  56.0863457  83.5135574
  17.9148350  43.3348312  84.1527481  18.6765690  43.7667084  84.5393677
  17.8932476  42.4718437  84.5662918  56.0452652  23.3394718  86.9889069
  56.4630013  23.1637478  87.8320236  55.2358322  23.7983131  87.2136612
  11.3646288  20.2999935  36.0281906  11.7715511  21.1263771  36.2884560
  12.0418558  19.6409969  36.1808929  37.4492264  32.9556618  11.1133327
  37.6877480  33.2533073  11.9912558  37.3979301  32.0028496  11.1891642
  41.5776863  28.7624493  78.8327332  40.7053642  28.4676800  79.0942535
  42.0675468  27.9545135  78.6794052  59.2359390  27.1346626  13.0332937
  58.4210777  27.5498466  12.7507076  59.2098541  26.2628632  12.6389399
  83.4368515  66.7851868  14.8431311  82.4843216  66.8278198  14.9273720
  83.6043320  65.9293213  14.4485722  22.4189873  49.5742073  10.6705379
  22.8660660  48.7429504  10.8297977  21.6610489  49.5543022  11.2548046
  65.4556351  40.2507820  16.7780075  64.7244797  40.5881233  17.2955456
  65.6516800  40.9510269  16.1555500  70.0476990  23.0584145  76.9827271
  70.9230347  23.3771496  76.7626877  69.5412216  23.1751633  76.1789322
  15.6994286  46.0237274  11.3168383  15.7885723  46.2576904  10.3929625
  16.2980251  46.6154938  11.7726078  14.2491779  60.7847900  60.7631569
  13.9121380  61.2593765  61.5230293  13.9974051  59.8744278  60.9183502
  57.3209457  15.7037468  13.3718748  57.8045921  15.6846428  12.5460711
  57.9851913  15.8946924  14.0341063   2.7518013  13.1992702  64.9783096
   2.1992378  12.4565001  64.7350082   3.2462347  12.8913021  65.7378693
  63.7184944  71.2069778  39.2793922  64.4786453  71.6487274  39.6578789
  62.9910698  71.4484634  39.8527794  70.5540466  63.1238022  68.8828659
  70.1812286  62.3046074  68.5570602  70.3274994  63.7720032  68.2159729
  43.9184837  11.3980627  71.2584305  43.2454605  10.9276304  71.7503281
  43.9465408  10.9572935  70.4092102  85.1532440  53.3515244  39.2961044
  84.3493805  53.8705368  39.3216782  85.1710052  52.9807854  38.4137955
  15.9007168  50.5896187  85.3069611  16.5262718  51.2890053  85.4960938
  15.4191141  50.8999329  84.5401535  31.7997646  -0.1788404  47.8132553
  31.8023281   0.6094413  47.2702675  32.0362358   0.1316117  48.6872902
  57.5729218  53.8508987  45.6227417  56.6176414  53.8673477  45.6810608
  57.7723389  54.3351173  44.8214989  51.9445534   2.7117450  47.0317497
  51.0056648   2.5359206  47.0934792  52.0272789   3.3144438  46.2927361
  31.9827900  25.4995308  18.0500584  31.5915375  25.1018143  17.2722569
  32.5576973  24.8203945  18.4028835  74.0377731  44.6024971  61.7127457
  74.1371078  44.7743530  62.6491394  74.8338699  44.1295662  61.4702606
  39.8523102  39.0399818   1.1999189  39.1736298  39.5182190   0.7235674
  39.3721809  38.5256119   1.8488636  34.8041382  43.5939980  19.5788879
  35.6494064  43.2894287  19.2487583  34.3090286  43.8246880  18.7928314
  23.6820183  10.6965179  13.3265934  23.6345024  11.5872202  13.6739006
  23.3375759  10.7678709  12.4363689  63.9327850  62.6391335  72.2787094
  64.8829422  62.7127724  72.1892395  63.8014526  61.8396072  72.7883606
   0.7863444  51.8277893  36.8881950   1.3612386  51.3849030  37.5123558
   1.1804162  52.6922417  36.7713127  62.8240166   8.6828146  61.5192451
  62.0284081   8.2017908  61.2915382  63.3798714   8.6071892  60.7436562
  24.7253208  56.8051605   0.6869769  24.9569225  55.8765526   0.6701795
  25.4907627  57.2495499   0.3224896  62.4951668  15.3055420  87.3467407
  63.1841240  15.5378122  87.9693375  62.8767738  14.6051712  86.8175125
  11.9001331  51.5686874  67.7746048  11.7227697  51.2610588  66.8857040
  11.0842619  51.4112625  68.2497940  35.2727165  32.4973030  19.5259094
  35.8542824  32.7075424  20.2565346  35.8440399  32.0907516  18.8743439
  72.2830048  28.9427910  60.0866051  71.6847153  29.2370720  60.7733955
  71.7345734  28.4257565  59.4965744  38.2582703   8.6568689  88.7048874
  39.1966171   8.5075645  88.8208389  37.8433495   8.0888195  89.3540344
  80.8582077  64.0938110  68.3461838  80.8811188  63.1979675  68.6825943
  80.6937408  64.6353989  69.1181030  50.3271980  60.4009972  55.8792763
  51.1148148  60.8599281  56.1712914  49.6417198  60.6966400  56.4783974
  12.1752872  48.0286903  76.8304138  12.7821617  47.6958237  77.4915771
  11.6912613  47.2560387  76.5389404  80.9744263  45.8677216  42.6803665
  81.4562531  45.5444107  43.4416466  81.3545990  46.7283211  42.5040932
  70.4567261  40.3814850  31.6660328  70.7124252  40.6900215  30.7967472
  70.5693970  39.4317894  31.6258316  51.6682053  29.7064972  49.8549690
  51.3018761  29.5234661  48.9897881  51.4508095  30.6243458  50.0178299
  42.6421432  60.2951164  30.2472496  41.7992134  60.1884995  29.8064175
  42.4539185  60.1206932  31.1694107  24.7826614  16.3674202  85.4136658
  25.4872074  15.9053335  84.9594345  24.0999012  16.4736881  84.7512589
  61.6063271  60.9965706  19.5993519  61.1676636  60.1791954  19.3633404
  61.9125519  61.3534431  18.7656250  85.4665222  26.1687107  10.8836918
  86.0516357  26.8374348  11.2396097  85.0415802  26.5940933  10.1389074
   3.5092702   5.3427811  53.5364494   3.1998382   4.4389791  53.5966644
   3.2174313   5.7506781  54.3517303  72.1170273  51.3017349  52.0997276
  72.9997940  50.9333916  52.1354637  71.5915527  50.6236229  51.6751442
  35.1326675   2.1723492  75.2278671  35.8594513   2.3065312  75.8361511
  34.3528862   2.4072709  75.7308350  81.1077957  40.7276917  42.0914383
  80.5247574  41.2979431  42.5925560  81.2133179  39.9508896  42.6406860
   9.6328564  14.1250210   2.6891184  10.5249023  14.4085112   2.8894174
   9.6265211  13.1903744   2.8955812  31.4858265  23.6243687  71.3777084
  31.8565807  23.3905411  72.2286530  31.0305386  24.4517231  71.5340042
  51.0861588  21.2353745   6.9997501  50.4870224  20.5097008   6.8246469
  51.6862144  21.2358322   6.2539835  64.5724564  22.4172649  37.3991394
  64.4032440  22.3000603  36.4643326  64.0269394  21.7566147  37.8259659
  10.1797190  54.2529411  65.0783920  10.5458517  53.3949928  64.8636780
  10.1070518  54.7001648  64.2352142  48.4658775  33.8972702   6.5218377
  48.9167976  33.0539780   6.4798198  48.9642220  34.4036446   7.1632986
  11.3136797  18.5990257  65.2471313  11.9006491  18.3639488  64.5284958
  10.7476225  17.8345547  65.3538818  59.5660973  51.6066589   3.5623932
  58.8057060  51.2654686   3.0916219  59.2810059  52.4587936   3.8922775
  66.0164108   5.3970690  53.3094826  66.2202759   5.7055593  54.1923790
  65.5680542   4.5623002  53.4450150  17.6242619  46.8354721  50.7010803
  17.4276772  46.2701530  49.9540825  17.1823406  46.4178352  51.4403496
  71.6378479  68.7606735  52.3833961  71.7226715  68.2229843  53.1707573
  71.4515381  69.6399155  52.7127228  16.2964516  32.8798180  23.7254868
  15.5869865  32.6747475  24.3344517  16.3498135  33.8354988  23.7330055
   9.3671732   3.3272214   3.3949819   8.6884604   2.6556435   3.3274240
  10.1549387   2.8468370   3.6497116   6.7767529  32.6398506  65.6270752
   6.9439254  33.4163971  66.1611786   5.9354520  32.8155632  65.2056885
  45.7610703  10.2893658  18.9604473  46.5003395  10.2425947  19.5666866
  45.1479568  10.8952398  19.3766727  22.7057190   4.6701698  80.4211884
  22.2068062   5.1753430  81.0631485  22.1462364   3.9201620  80.2194443
  78.0528793  16.5269756  35.5055580  77.2375641  16.0315151  35.5831184
  77.7751617  17.4426346  35.4796104  77.0490570  28.0339565  62.8678665
  77.6999817  28.2818565  62.2113037  76.2921982  27.7454967  62.3577843
  85.7242584  62.5233459  39.2615852  85.6095123  62.6113319  40.2078018
  84.8485718  62.3216896  38.9318466  68.3026886  31.1245766  30.8063564
  67.7737732  31.2070599  30.0128365  68.6893311  31.9917641  30.9276943
   9.8764496  27.4090919  78.7890854   9.8809795  26.5606174  78.3460236
   9.4729614  27.2332783  79.6390915  45.4125900  50.2766838  80.4597855
  44.9391060  49.5417099  80.0700989  46.3362541  50.0451393  80.3625259
  66.1858063  39.4177704  63.7756577  66.7457199  39.6081810  64.5282974
  66.3528976  40.1357689  63.1650925  57.3407402   7.4756064  23.3687630
  57.8318367   7.9648061  24.0288696  56.4229279   7.6638637  23.5647583
  79.2199020  65.1836319  55.1253815  78.4410248  64.9430466  55.6270676
  79.9096146  65.2746506  55.7828407  25.7122898   5.4681787  86.9605255
  26.4957714   5.6993041  86.4615555  25.2280006   4.8759446  86.3852386
  34.1658096  13.4381142  41.7902451  33.2850685  13.5452318  41.4310036
  34.0235138  13.1335630  42.6864777  86.5251236  35.5807953  23.2443523
  86.4129181  35.7376328  22.3067799  86.8276901  34.6744423  23.3010502
  10.3741493  46.8984756  60.7342262  10.6809225  47.5803986  60.1366425
  10.2882967  47.3409157  61.5786819  81.5550308  35.5465088  62.4326706
  80.7696304  36.0055618  62.1349373  81.9190979  35.1550064  61.6386795
  36.1365929  61.2214470  18.6725063  36.7892647  60.7544785  19.1942234
  35.8698273  60.5915260  18.0029793  34.4835968  14.6351833   1.8578516
  35.1102715  14.3283968   2.5131316  33.7411652  14.9574699   2.3688922
   4.1667852  70.3435440  44.8781471   3.6986773  69.5224838  44.7265968
   5.0517421  70.1782608  44.5529327  66.8401642  36.5389290  21.6822224
  66.8838043  35.7177887  21.1922646  66.2715378  37.1015701  21.1565456
  37.2689514  68.3983231  34.2107544  38.1356850  68.5573273  34.5845451
  37.3851433  68.5338516  33.2703476   2.6701128   9.0495453  23.2164288
   2.8089614   8.6205883  22.3720646   1.7333804   9.2456188  23.2342987
  52.1433945   0.9767896  64.4386826  52.3174591   1.3463175  65.3043518
  52.9551353   0.5280307  64.2021942   3.0563512  35.8270187  16.2519264
   3.2245948  36.1079178  17.1513824   3.9258430  35.7436562  15.8604336
  72.8297958  59.4797707  88.7035446  72.0305176  59.4818726  89.2302094
  72.8081741  60.3125381  88.2320938  20.1025734  60.6063118  82.1800003
  20.6173859  60.1808014  81.4943314  20.5123634  60.3235359  82.9975204
   5.7417841   4.2237158  52.9503288   6.2175956   4.8143177  52.3663559
   4.8408775   4.5467992  52.9356232  42.0363350  54.0814476  11.3353691
  42.2410469  53.7016029  12.1897945  42.8808556  54.3789139  10.9969501
  54.8021545  38.5279160  70.3046494  54.6589432  38.1112633  69.4548721
  55.2313080  39.3575249  70.0953522  63.8812523  59.1763802  41.5920639
  64.1392517  58.6106224  40.8643379  64.6040497  59.7976723  41.6803360
  15.0266924  19.3657837  80.7890778  15.1845999  19.3938313  81.7327423
  15.9002190  19.3105793  80.4016037  43.1638336  61.4473305  35.1118698
  42.3335762  61.8731842  34.8984375  42.9109993  60.6016502  35.4821930
  30.1628590  32.1058197  13.2278814  30.9435406  32.1325874  13.7811012
  30.1680107  32.9439964  12.7656441   2.4237816  61.3386307  45.5017929
   2.2570846  62.1228905  46.0246506   2.4240139  61.6498451  44.5965958
   9.3737459  20.2880363  60.6106110   9.8888750  19.5618744  60.9621239
   8.7868595  19.8794231  59.9743462  49.6568871  33.7060890  70.5064697
  50.3671875  34.3103447  70.2906570  48.9750023  33.8983421  69.8628082
  56.8758125  46.6560555  28.0160961  57.0701828  45.8362427  28.4703617
  57.3617859  47.3211136  28.5037022  34.3744087  70.3362122   7.3270078
  33.7843590  70.6852798   6.6590047  35.1551971  70.8868027   7.2682505
  69.6138611   4.2202992   7.1802616  70.5656586   4.3068156   7.2333903
  69.2787933   5.0540738   7.5100818  21.5639229  65.9947205  64.5755920
  20.8080769  66.1236954  64.0026245  21.5263653  65.0692139  64.8169403
  11.4446964  63.9671745  60.2845268  10.7185535  63.4105873  60.5658836
  11.7062330  63.6090546  59.4362450  52.3980103  15.1109018  62.0979691
  53.3430710  15.0465584  62.2356148  52.3085213  15.4801970  61.2194252
  41.7677650  12.3809996  36.3683395  42.5787582  12.8316469  36.1328812
  41.1064835  12.7596483  35.7890587  13.3574371  67.5147858  22.4451847
  13.8607235  68.2672577  22.1341782  13.5517378  67.4670334  23.3812408
   5.1904020  68.7087784  61.7915230   5.4922042  68.2687454  62.5862045
   5.6657100  69.5395813  61.7825508  39.6898499  71.3356552  28.5822296
  39.3109932  71.0320816  29.4071827  39.7141037  70.5553665  28.0283318
  62.0484314  29.9173470  53.4247169  61.6440392  29.2737141  52.8429680
  61.4704857  30.6789417  53.3779411  67.4933853  42.9652634  54.8206024
  66.5487289  43.0963402  54.9022560  67.6420975  42.0803452  55.1538239
  60.6561165  36.8703156  30.4440174  60.6229401  36.7569847  31.3939056
  60.6322823  35.9791374  30.0955009  86.1853409  17.0769367   3.2661591
  85.9600677  17.9468117   2.9363096  87.1424179  17.0651245   3.2764134
  11.0647221  46.7443314   2.1541209  10.1923790  47.1042442   2.3144772
  11.1785288  46.0802498   2.8340297  71.0612488  21.6853771  20.5905457
  71.3748932  21.4878979  19.7080116  70.9741669  22.6384792  20.6061020
  50.2253609  29.1153259  84.9817963  49.4384880  29.4259720  85.4296341
  49.9033661  28.4720840  84.3502960  59.0919075  11.5483952  25.5706673
  59.7713394  11.8513012  24.9682961  59.5369301  11.4717026  26.4146500
  68.8564072  35.5068359  39.7776413  68.6574326  34.6774826  40.2121658
  69.8122940  35.5566559  39.7828217  28.9038715  48.5650253  40.7655334
  28.6514568  47.7420769  40.3468704  29.7043228  48.8289223  40.3118057
   2.3091352  20.3007431  82.1353531   2.3340075  19.3472404  82.2156525
   2.7465191  20.6190929  82.9250259  69.7507172  57.3596497   8.4287968
  69.0458527  56.9855118   8.9573946  70.2009583  56.6005898   8.0581980
  80.4315872  15.7028332   4.4114299  79.9814148  14.8601723   4.3522897
  81.0065536  15.7214298   3.6463795  16.6678696   6.4759221  50.7416306
  17.2033653   5.9543352  51.3394775  16.3288345   5.8424563  50.1091652
  50.9754868  67.0513458  20.5498371  50.2110939  67.6105728  20.6884136
  50.7426682  66.5100784  19.7954788  49.0284996   9.1605024  73.5978775
  48.3152657   8.5445023  73.4303284  49.8104477   8.7165794  73.2696609
  13.1354771  69.6352158  71.1762238  14.0861664  69.6552048  71.0665741
  12.9051523  70.5281372  71.4328766  11.5426331  32.8619652  70.1183624
  11.7578192  32.6783104  71.0328064  11.3887510  32.0003586  69.7308197
   0.6914024  42.2412224  41.7340584  -0.0001183  41.5794792  41.7227173
   1.4632852  41.7755356  42.0558777  49.4963722  55.5412445  34.2975998
  48.9076576  54.7864952  34.2976723  49.0194778  56.2169418  33.8156891
  22.3399220  45.6119003  32.3256683  21.9107609  46.0470123  31.5889645
  23.2171841  45.4048462  32.0035286  35.4041443  18.1348896  81.0730362
  36.3127708  17.8721123  80.9261398  34.8882751  17.3762646  80.7999115
  67.8552551   0.8111573  30.4071331  67.9199829   0.8459229  29.4527569
  67.6750717  -0.1085910  30.6016293  30.7616577   3.9667954  12.0853901
  30.6906319   3.4338298  12.8773088  31.3358383   4.6909328  12.3347368
  76.5547562  19.0761719  60.5311813  76.4124451  18.7892799  59.6291428
  75.9023209  19.7626934  60.6699219  51.0290222  69.1698761  48.4115906
  51.1822777  68.4037704  47.8585739  50.5222130  68.8340607  49.1509171
  11.2139854  70.7849884  36.7409515  11.5814972  69.9221344  36.5495338
  10.2678881  70.6663666  36.6569366  47.8488731  51.8822556  83.5572891
  47.3983917  51.7952042  84.3973618  48.5161514  52.5509796  83.7115021
  77.4991608  61.6797943  23.7397079  77.5679703  62.5659943  24.0948734
  78.4047470  61.3763924  23.6758041  54.2691040  26.5147362  84.4028931
  54.8911629  25.8023682  84.2552338  54.5402908  27.1999931  83.7920685
  26.9056549  51.8895607  62.7324905  27.3009605  52.7575378  62.6513634
  25.9667244  52.0600357  62.8071976  38.9131470  31.4169807  88.1085205
  38.3763809  31.6179104  87.3418732  38.3706589  31.6729145  88.8544617
  13.4693003  37.4799042  29.2369976  13.8414135  36.6978493  29.6446209
  14.2043934  38.0896797  29.1734047  26.1520786  40.7576942   9.4378405
  25.9815922  40.2337112   8.6551456  25.7985573  40.2350578  10.1576376
   8.9906960   6.9078150  54.3434944   9.7905874   7.2968965  54.6970749
   8.6161051   6.4213414  55.0778351  10.2804041  30.4313259  42.8925362
   9.4687986  30.8446484  42.5980988  10.6113110  29.9752235  42.1187744
  67.5356216   4.1414065  59.0911293  66.6094666   4.1997647  59.3257751
  67.7107239   3.2018092  59.0388947  14.5090847  60.9475594  83.1291733
  14.0668879  60.3783607  83.7590179  15.3877373  60.5768127  83.0470047
   6.9537063  70.6190109  59.2137337   6.7950559  71.4826431  59.5947762
   6.1002512  70.3448868  58.8780174  63.9475822  58.0396042  10.9359779
  63.1847343  57.9517517  11.5074472  63.5816154  58.2670212  10.0812378
  60.0327187  14.4190254  81.7290878  60.1002121  13.4943790  81.4909592
  59.0948296  14.6072721  81.6950760  54.2059746  24.1203117  13.8156490
  54.4751434  23.4636612  14.4579811  54.8582687  24.0545998  13.1182079
  80.9672775  15.9239006  88.2819824  80.2304993  16.5126286  88.1183167
  81.6917114  16.3026505  87.7840118  20.0101891  70.0858688  40.2402916
  19.0659122  69.9404373  40.2987900  20.3495979  69.7996368  41.0882912
   2.6202173  44.5345650  57.1198463   1.6789242  44.6925278  57.1922836
   2.7206657  44.0602417  56.2945213  45.4418678  35.0740471  12.8764048
  45.0865707  35.9624290  12.8486300  46.1687317  35.1260834  13.4970417
  43.3920898  10.1713781  52.5395164  43.5497627  10.9774055  52.0478973
  42.6394730   9.7695007  52.1055870  24.6049824  36.0696068  19.4412708
  24.7753906  36.9770241  19.1887131  25.3218193  35.5726242  19.0470810
  12.6864252  58.0646820  36.6377831  13.3992462  58.5931816  36.2788811
  11.9052277  58.3723984  36.1781349  86.5271149  68.0029297  19.2139473
  86.3710403  67.3393097  19.8858681  85.8987808  67.7957764  18.5221977
  34.6486588  49.2146988  12.9830132  34.1899109  48.8192787  12.2417822
  34.2573433  50.0838356  13.0708370  57.0769310  28.2857552  11.5276031
  57.5509911  28.4491081  10.7122421  56.2973633  27.8000240  11.2582169
  13.8955059  61.5776215   2.3240578  13.2305088  62.0528755   1.8259139
  13.4174461  61.2003555   3.0625439   1.2042511  16.0975933  86.5155792
   1.8340676  15.5228720  86.9506149   0.3534177  15.6940603  86.6872635
  39.1734200  71.7529678  63.1715240  39.5527306  71.1802063  63.8380814
  38.9490356  71.1651535  62.4501648   7.5852385   9.1023445  41.5143929
   6.7830343   9.5627718  41.7607803   7.6956606   9.2950487  40.5833130
  34.2662659  66.0459747  43.5384140  33.5930443  66.5025406  43.0338898
  33.8975067  65.1773376  43.6988029  47.8743362  42.1847954   1.3538707
  47.0698280  41.8229599   0.9822823  47.5741997  42.7825546   2.0385847
  27.6532841  65.6272888   1.1818566  27.5520725  64.6761398   1.1456475
  28.4356308  65.7647400   1.7159673  50.4352531  69.3843536  27.3481503
  49.5210762  69.1054840  27.2957706  50.5828743  69.5475540  28.2797108
  19.4299698  55.7652206  43.7078934  18.8197193  56.4124374  44.0613632
  20.2796345  56.0130463  44.0724258  62.6470909   2.2154510  65.3126755
  63.0507469   2.3469274  64.4547653  63.0023880   1.3811685  65.6192169
  62.8048248  63.0120926  69.6361771  63.2900543  62.8633003  70.4477463
  62.5126839  63.9217110  69.6951218  52.6565247   4.2982836  44.9702759
  52.8537140   4.0879021  44.0575409  52.5634117   5.2508745  44.9817696
   3.9000762  19.1144638  49.1346130   2.9454365  19.1677227  49.1799812
   4.1778541  19.9972134  48.8900185  80.7975845  33.4509697  14.4532795
  80.4317627  34.2105331  14.9065704  81.4252167  33.8216553  13.8328800
  46.3886032  42.6421013  22.6779099  46.6264992  42.6459045  21.7507496
  46.1506653  43.5495911  22.8678570  62.6491165  60.8502884  12.5080137
  62.9628181  60.9580612  13.4059038  63.4294586  60.9668274  11.9660587
  73.3899155  38.5011215  23.1071072  73.6514664  38.2139587  22.2322578
  74.1789474  38.8997421  23.4742146  20.6859856  52.5029755  69.3753204
  19.7696686  52.5366364  69.6500244  21.1177998  51.9738274  70.0459671
  71.9998703  71.2197647  65.5086899  72.3240280  71.9803314  65.0263138
  72.1224518  70.4849167  64.9076920  26.0226307   2.6559014  85.4033737
  25.5956593   3.1619651  84.7121201  26.8138943   3.1531882  85.6103516
  14.1901073  16.0384216  72.6361008  14.0012598  15.2223206  73.0992966
  14.6377602  16.5831795  73.2834625   4.9704185  19.2013340  37.8950653
   5.4869933  19.9682026  38.1426468   4.8214450  18.7368374  38.7186432
  51.1115074   4.9652309  53.9288559  50.7342911   4.8224101  54.7969246
  50.7566528   5.8091583  53.6493988  76.0649414  34.0592804  44.1612473
  75.9193268  34.9439621  44.4964676  76.9885635  34.0472641  43.9102402
  75.7641525   7.5013094  42.0902252  76.4920044   7.3605385  42.6957397
  75.0575867   7.8404250  42.6397629  86.2285995   6.9768553  65.4218597
  85.7845306   6.4336758  66.0730057  86.8686218   7.4796247  65.9256668
  40.0392570  23.7227993  72.0185547  40.1401825  24.4198532  72.6667557
  40.8693123  23.2469711  72.0473099  77.6231079  37.3094749   4.1615071
  77.3301926  38.2166405   4.0749903  78.2682037  37.1984406   3.4631138
   8.0077925  37.3918495  75.4629669   7.7285280  38.2993507  75.5841522
   8.6800575  37.2569046  76.1308594  30.9557953  58.0033913  83.8916397
  31.1101151  57.2715645  84.4890060  30.4899979  58.6506348  84.4211044
  28.7783661  71.2559128  47.9859657  29.7348671  71.2816772  48.0119591
  28.5659981  71.1802979  47.0556870  77.3023987  47.6080551  63.9428024
  77.0304489  48.0462341  64.7491989  78.2519455  47.7255745  63.9148712
  19.3212318   3.7253625  57.1782875  19.4859848   3.0374789  56.5333824
  20.0934372   3.7134271  57.7437859  84.2511673  57.3481407  40.8463974
  83.9169312  56.4613457  40.7117920  84.3878021  57.6893234  39.9625664
   0.1988220  29.9456062  66.1337738   0.7759989  29.4411869  65.5604858
   0.3525539  29.5840111  67.0066147  46.8329582  17.3551197  83.1584702
  47.4548759  17.6331196  82.4860382  46.9430809  16.4056034  83.2087097
   6.8188715  18.0710392  13.2843828   5.9548516  18.4079475  13.0473261
   7.1971974  17.7775955  12.4555330  50.3161011  51.7533760  22.4133244
  50.9238548  52.3172646  22.8917542  50.8644905  51.2974777  21.7748394
  78.6273880  16.6038055  23.5227089  78.2187958  15.7728510  23.7651939
  78.6522675  17.1052876  24.3376503  73.7360229  61.5743065  33.8789253
  73.5080414  61.4074211  32.9643707  73.7942657  60.7043152  34.2738380
  34.4623184  68.8843307  81.5978775  33.6792030  68.3375397  81.6609650
  34.2886086  69.4671097  80.8586731  64.0469513  60.0336647  15.0033255
  64.0713272  59.2700157  15.5799360  64.6372375  59.8095131  14.2839127
  68.0167999  18.6790199  44.9283180  68.2765350  18.5247993  44.0200272
  67.1354904  19.0473347  44.8661728  59.5885658  69.8724899  82.0894012
  60.0334244  70.6801300  82.3464203  59.7246857  69.8146057  81.1436996
   3.4542444  58.0686913  41.4252548   4.3069177  57.9324036  41.8382988
   3.0290616  57.2120438  41.4652748  81.5679092  53.0112877  11.9419603
  82.5214844  52.9688568  11.8703537  81.2516327  52.7806969  11.0684462
  48.8897476  26.7699833   3.7935016  49.4104424  27.5445137   4.0061274
  48.3111649  27.0569019   3.0869942  82.5129547  20.4186821  79.8282547
  82.6666107  21.3623199  79.8747940  83.3730164  20.0451641  79.6359100
  66.9911194  22.4568462  25.4934597  66.3273163  21.8337364  25.7889805
  66.9533157  22.4119301  24.5380611  23.1566620  22.7059460  67.7917328
  24.0635452  22.8740692  68.0477219  22.6744289  22.6849861  68.6183167
  86.3473282  67.0508270  78.6114502  86.1845627  67.6560974  77.8879929
  87.0158463  67.4851074  79.1412735  78.8964462   6.6424356  60.1974258
  79.5020599   7.3803668  60.1272697  78.9782791   6.3509288  61.1054802
  33.4268723  67.8023224  75.1644821  33.2847824  66.8593369  75.2470398
  34.0710564  67.8868332  74.4615479  70.3440094  67.3739319  44.4389992
  69.8790817  66.5372314  44.4410172  70.7793732  67.4039612  43.5870705
  44.1883011   2.4093752  64.4558487  44.7343063   3.1734917  64.6408844
  44.7915344   1.7700636  64.0768814  77.1245804  34.5843925  15.5064840
  76.3209381  34.1217194  15.7438021  76.8335648  35.4661484  15.2740088
  78.5495682  46.7493210  10.4367352  79.3453064  46.4313240  10.8632450
  78.8245621  47.5431862   9.9780512  14.7928448  59.3548660  48.9133797
  15.0248728  59.8426361  49.7036171  15.5873909  59.3712730  48.3798447
  18.7138157  14.8460751  19.3253765  17.9121723  14.5012779  18.9320393
  19.4057980  14.2673712  19.0052261  11.0903635  20.8162632  55.1669502
  10.8631992  19.9882240  54.7438927  10.4178896  21.4293251  54.8700218
  43.7566452  40.6917191  19.6444244  42.8041153  40.7145309  19.7360802
  43.9235001  39.9510422  19.0615120  28.8433418  11.6936436  25.9820480
  29.2379608  11.5580721  26.8435154  28.7860641  12.6448622  25.8918533
   9.6579008  65.5451965  80.9153748   9.8371534  64.7131729  80.4773712
   9.3090992  66.1090393  80.2249756   7.8832126  37.3144035  27.5692101
   6.9505591  37.5196686  27.6344452   8.1783829  37.2499962  28.4774818
  16.8683090  32.4905777   7.1544247  17.2282028  31.9524727   7.8595147
  16.7550087  33.3559456   7.5475311  28.5418968  17.1692886  25.3016396
  28.1592350  17.4311180  26.1390438  29.3394356  17.6935005  25.2284031
  71.9153214  46.8782616  10.9467173  72.6112213  47.0597687  10.3150434
  71.8555069  47.6756325  11.4728880  65.1420288  21.5234566  58.1360283
  65.4267654  21.1679096  57.2941589  65.0470047  22.4629669  57.9794273
  45.5405273   9.9128513  82.1983032  45.1212158   9.4294138  82.9101257
  46.0322914   9.2489128  81.7149963  15.8053694  61.2972412  26.4014912
  15.1578894  61.6217651  27.0273380  15.7132225  60.3450279  26.4335957
  86.5876236  23.2685184  11.7798023  85.6433029  23.4243679  11.7657757
  86.8528976  23.4853001  12.6735945  49.4031334  13.8356819  11.8571272
  48.5152740  13.8732662  11.5014181  49.6383591  14.7506495  12.0111904
  16.1894875  37.2572594   8.8196878  16.7415333  36.8491440   8.1526670
  16.5194817  36.9105759   9.6486301  86.4024353   3.5368972  73.9189377
  87.2993851   3.8693006  73.8839264  86.3983002   2.9369104  74.6647415
  27.7925491  10.0990334  10.7874393  27.2924881  10.7319918  10.2721376
  27.2934704  10.0028811  11.5985546  20.2745476  57.8572464   2.7937734
  20.9297943  57.7500801   2.1042817  19.4537277  58.0033493   2.3235188
  66.9280853  53.7665939  14.4600735  66.5929718  53.2059021  13.7603931
  66.3311310  53.6173096  15.1932802  51.3214073  63.5168152  50.9994888
  51.2202148  63.0771294  51.8436890  52.0904503  64.0756836  51.1111755
  58.9060440  28.0763187  26.2462368  59.0434227  28.5564671  25.4296474
  59.7497444  28.1223431  26.6959934  20.9648743  64.4261551  20.5575066
  20.7218971  64.7044525  21.4405384  20.8142719  63.4808846  20.5543423
  55.4055023  11.8393126  27.3604794  55.9362526  12.3645077  27.9594002
  55.5878181  10.9334917  27.6104450  44.9974785  43.6653023  32.5785141
  45.0806046  42.7782593  32.9284859  45.4340630  44.2197990  33.2251625
   3.1486790  39.0569267  74.5846100   2.5894604  39.5395966  73.9758911
   2.6053727  38.9342155  75.3630676  12.5713625  18.0693340  42.3813744
  11.7075901  18.3250599  42.7049980  12.7716408  18.7113190  41.7002182
  78.9899521  48.5880127  59.3742867  78.9674606  49.5395775  59.4755592
  79.6116409  48.4375648  58.6621819  11.5920258  25.8163719  45.7959480
  11.1780005  26.4973507  45.2657738  12.2419596  26.2835503  46.3208885
  11.3499336  44.6985207  31.4890556  11.3589239  44.3207741  30.6095905
  12.1263371  44.3342094  31.9141521  48.8375282   7.5714087  63.8974609
  49.0364685   7.1857858  64.7506638  49.5995445   7.3631172  63.3569298
  37.5631866  57.7453728  31.8968525  36.7398071  57.7614059  32.3847313
  37.3055954  57.5357742  30.9991055  74.4213638   2.9639528   6.6653309
  74.6099930   2.0648592   6.9341865  73.9415665   3.3390989   7.4037681
  42.3051224  65.6960373  19.1256008  42.5330086  64.8553238  19.5224571
  43.0371895  66.2716522  19.3469276  67.2384872  23.1070290   2.2533340
  66.8813553  23.9527740   2.5242662  66.5219727  22.4882050   2.3943813
  73.4989929   5.0693102  56.2760010  73.6969070   4.6309094  55.4484367
  73.3497467   5.9831109  56.0332565  78.9836197  50.9317627  70.3699036
  79.1433334  50.8759613  69.4277725  79.8546829  51.0262985  70.7553101
  29.6997852  45.1260605   3.3883345  30.1160908  44.2695580   3.2917435
  30.0471668  45.6444321   2.6624928  64.6299057   4.9948092  43.7349930
  64.4639511   4.4301400  42.9801178  65.0665054   5.7634211  43.3677750
  69.1200180  43.7858162  15.3066912  68.2636795  43.9444847  14.9095240
  69.0619278  44.1920509  16.1714649  71.5744400  70.3119354  16.5847664
  70.6818924  69.9970169  16.4418697  71.4764633  71.0382080  17.2005272
  36.0264473   7.4355059  61.2680626  35.5420341   6.9112439  61.9058113
  35.4837685   7.4153690  60.4798203   5.1352487  71.4985580  32.9703941
   4.1916628  71.4469299  32.8180389   5.2281942  71.4352875  33.9209671
  38.7688217  28.0049381  80.7351761  38.1173973  28.6392441  81.0343933
  39.4377060  28.0074463  81.4198761  33.9147377  60.9433670  69.5149002
  34.8027115  60.6189194  69.6647873  33.9759979  61.4409294  68.6994781
  49.6142960   0.8283502  46.3816223  50.4343567   0.9088371  45.8945389
  49.0120621   1.4248478  45.9369431  32.3380623  65.4291534  84.1701431
  32.4660416  66.1840363  83.5956879  31.9263287  64.7700195  83.6113510
  36.9035912   8.6016808  77.6885986  37.1288910   9.4881830  77.4064865
  37.4950104   8.4256268  78.4203491  35.0070763  11.0614958  80.4139557
  35.6385689  11.6454887  80.8339615  34.1534386  11.3846960  80.7021866
  19.0625534  42.7592735  74.2522812  18.5391579  42.2428436  73.6394272
  19.6992702  43.2131195  73.7001572  49.4432373  54.1000061  24.6085930
  48.8674698  54.7821426  24.2630329  48.9070358  53.3071289  24.6003132
  48.7767143  46.3175621  19.1336346  49.1144180  46.1933479  20.0206280
  49.5195923  46.6666908  18.6412201  26.1566334  26.9847412  86.6112213
  25.9725018  26.0531445  86.7314453  25.7763634  27.1959553  85.7585678
  69.9889832  17.0869598  84.3860703  69.2852859  17.7203579  84.2452011
  70.7902985  17.5707283  84.1858368  65.8849869  49.2538338  37.0621452
  66.7712250  49.6119652  37.0114632  65.7349319  48.8631744  36.2012749
  50.6881332  58.6694031   0.1008253  50.4434433  59.2601776   0.8131057
  51.5930557  58.4239388   0.2934193  10.5221958  54.0158386  77.3926849
  10.5215626  54.0189896  76.4354858  11.4490385  54.0261459  77.6316147
  66.0125885  34.8138771  25.2718353  65.8420868  35.6959877  24.9416256
  66.8208847  34.5464554  24.8343678  65.4909973  57.9376945  66.1909866
  65.2274780  57.0672112  65.8925629  65.2980499  58.5132065  65.4508514
  30.2340775  69.0351257  84.2376022  30.0669079  69.8762589  83.8124084
  30.4160900  69.2599792  85.1500397  79.5209427  25.9248276  28.5196877
  80.0876389  25.1550369  28.5698090  78.6785049  25.6246891  28.8609295
  83.6528931  19.4701405  62.5818329  84.2841263  20.1579151  62.3702927
  82.8553085  19.9423294  62.8208466  28.1903076  47.9664841  20.6148930
  27.4075985  47.4155426  20.6069603  28.2341347  48.3330612  19.7317543
   6.0866671   9.9556665   7.4043622   5.1437721  10.1089125   7.4651642
   6.3245707   9.5860462   8.2546654  74.0729218   3.4177513   2.3532970
  74.0250320   2.4852254   2.1427400  74.7799377   3.4823291   2.9953153
  24.0384045  58.6269264  75.3730927  24.5936146  58.2853699  74.6721573
  23.6543827  57.8479691  75.7755661  36.6386375  67.9176559  16.4284058
  36.6747093  67.5494308  17.3112106  35.8397255  67.5518112  16.0487595
  34.1741867  67.9827652  62.7692986  35.0089378  67.6215591  62.4710617
  34.3348274  68.9230270  62.8488541  12.1907806  26.6861801  37.6870842
  12.7040434  26.0773678  37.1559143  12.3134441  26.3816814  38.5862312
  11.6139288  11.0714092   8.8078194  12.4196100  10.6967077   8.4518595
  11.9099007  11.7951307   9.3599615  26.1906357  48.1060219  41.4746590
  27.1090279  48.1452751  41.7415771  26.1214008  47.2934761  40.9734497
  40.3278999  59.1411018  14.7001991  40.5120354  59.0707130  13.7635174
  41.1890717  59.2361832  15.1071033  30.5422630   5.9400530  81.7114563
  30.6033821   6.4365301  82.5275497  30.7039242   6.5870600  81.0248108
  79.9913940  62.8209839  76.0539398  79.5814362  63.0066414  76.8987427
  80.9313507  62.8478127  76.2328110   1.8601017  25.3632202  36.2387161
   2.0080471  24.4489937  36.4806519   2.1518261  25.8629780  37.0011902
  80.7276917  53.2904434  31.7362804  79.9427490  53.5743370  31.2677670
  80.7549515  53.8450165  32.5159836  20.5202007  25.4772511  22.4757252
  20.1463890  24.5986595  22.4081097  20.9086514  25.6390839  21.6159878
  73.7431793  50.8596992  39.2111778  74.5411148  50.3378220  39.1264954
  73.7513657  51.1642723  40.1185913  43.5033073   4.8555212  52.2215347
  44.1708565   4.2579727  51.8845673  42.7048569   4.3286204  52.2544937
  81.5240402  40.0002022   2.6135535  80.7035522  40.2802429   3.0192778
  82.1695023  40.0512733   3.3185387  68.8104095  57.5763969  84.0737152
  68.8932877  57.1182404  84.9100494  68.1415100  57.0851479  83.5967636
  47.0936661  53.1068573  68.5738525  47.7555466  53.7327347  68.8678360
  47.3973083  52.8247223  67.7110443  13.9255066  64.0767441  65.0404434
  14.1082735  64.1927338  65.9728470  13.5009031  64.8929214  64.7762604
  35.6357994   0.0663108  47.5059586  35.5853539   0.2649537  46.5709572
  35.0966492   0.7383302  47.9230156  28.5976334  36.4803047  88.0557022
  29.3637180  35.9384804  88.2448349  28.7969532  37.3256798  88.4580002
  18.5030670  52.1764069  79.6334686  17.9163246  52.9138031  79.8014297
  18.3748894  51.5931206  80.3815155  77.2026291  28.6399059  31.6427956
  77.3621674  28.4784222  30.7129021  76.8062134  29.5107327  31.6701031
  62.7236557  68.1424942   3.5095017  63.4391136  68.1500397   2.8736627
  63.0835686  67.6854324   4.2696261  45.2358894  66.2491913  80.4491959
  45.5878220  65.4046402  80.7304382  44.9628372  66.6771088  81.2607117
  80.2192078   3.2862825  72.3418198  80.5499725   4.0579486  72.8015594
  80.7535553   3.2321894  71.5494995  32.0447769  48.5198746  28.5199509
  32.0493698  49.3646278  28.9700623  31.3157921  48.5813522  27.9026699
  57.4985313  66.8163528  55.1538773  56.7288208  66.4316101  55.5731010
  57.8852386  66.0960770  54.6559906  28.2382717  19.2838898  76.9284973
  27.8624859  20.0189934  76.4440994  29.1204376  19.5750370  77.1592560
   0.1262180  51.7657738  60.6254349   0.1413953  52.6523285  60.2648544
   0.4179980  51.2086792  59.9038086  74.5087051  68.7519073  81.0318604
  75.0300674  69.4656448  80.6644440  73.7486038  69.1855698  81.4196930
  62.8210716  70.7997971  54.0437088  62.8210754  71.7137909  54.3280334
  62.8329048  70.2958374  54.8574142   0.5662739  16.8310661  73.1132736
   1.0561401  16.8346653  73.9356232   0.1030849  17.6687088  73.1067352
  22.5888767  16.7547874   8.5707016  23.3765316  16.2523499   8.3624029
  22.4656963  16.6279736   9.5114336  69.6734695  41.7025642  62.9193268
  69.8776855  42.6367836  62.8773575  70.2004166  41.3106842  62.2229156
  81.2735901  63.3269463  65.6935730  81.2315979  63.5281868  66.6284332
  81.6620331  64.1071625  65.2978363  15.3001356  62.7808685  23.2421474
  15.3489857  63.5133514  22.6278915  15.1150579  63.1893654  24.0877857
   2.5707550  46.5658035  20.6378498   3.1977432  46.2116318  20.0072327
   1.8316308  45.9583359  20.6077023  11.7641363   8.4747543   0.9163343
  12.4440022   9.0897770   0.6410867  11.6295357   7.9101396   0.1552006
  41.2644348  21.5605068   2.1467745  40.8855705  21.7896423   1.2981334
  40.7317276  20.8282528   2.4570310  13.4865160  47.2027702  88.4687881
  13.8443403  47.7180099  87.7457886  13.4625988  47.8110123  89.2075043
  23.4186401  60.5307541  67.4565659  23.6631203  61.3816757  67.8204346
  22.4655647  60.5693436  67.3766251  32.3319054   0.6039945  72.2409134
  31.9748497   0.6499386  71.3539886  32.7273216  -0.2660269  72.2951508
   9.2441511   3.0369008  84.0181122   9.8436623   3.0047178  84.7636185
   8.9520988   3.9478486  83.9847717  11.1804066  12.2484112  28.1895370
  10.9328260  11.3508673  28.4116840  11.9601307  12.1533718  27.6425171
  64.3426361  26.3283424  18.5707760  64.8199387  26.6139793  17.7917843
  64.3332062  27.0969887  19.1411476   1.5154669  32.6896935  25.6691780
   1.1857228  32.7675934  24.7739506   1.2619466  31.8078938  25.9419193
  17.4343166  14.3066044  43.1483841  17.9177437  14.7408371  42.4455528
  16.5684891  14.1397152  42.7759285  86.4689865   7.5643549  37.2735062
  85.5614014   7.3183107  37.4523315  86.9197769   7.4403768  38.1087608
  26.3662663  67.3109512  61.7259254  26.2035484  66.4245529  62.0484962
  25.7931213  67.3976135  60.9641991  35.0631294  58.6023293  57.2416954
  35.0606270  57.7837296  56.7455902  35.2858772  58.3403435  58.1349907
  68.6934662  12.5947084  53.0228500  69.5770874  12.9102430  52.8334312
  68.5813751  12.7454748  53.9614334  68.2704391  63.7432022  46.1913986
  67.8834381  63.8075256  47.0645142  69.0550690  63.2092667  46.3159370
  60.0093613  64.8759155  74.3389435  59.4372711  65.4532852  73.8333893
  60.7921753  65.4008102  74.5060425  54.4645691  28.6889591  82.6858902
  55.1051788  28.2658024  82.1142349  54.8843918  29.5070419  82.9518280
  53.9888268  12.2035923  11.6135874  54.8052826  12.6718922  11.7877178
  53.4002724  12.8711729  11.2612057  61.4571037  23.8369350  69.1773834
  61.9959641  24.6280499  69.1784134  60.5628395  24.1564159  69.0571442
  67.0708389  70.6240005  18.0740681  66.7116928  70.0705109  18.7675362
  67.3400345  71.4255753  18.5226612  55.8421898  35.2874603  59.4056358
  56.0510597  34.9669571  60.2830696  56.3398933  34.7187881  58.8181534
  82.2720947  25.2052364  10.7394915  82.2598648  25.1049004   9.7876434
  81.3516235  25.3074398  10.9814034   0.8226722  61.8022957  52.5292320
   1.4696763  61.6487007  53.2177277   0.3669997  62.5986214  52.8021049
  61.1569786  59.5976601  16.4409809  60.6553459  58.8872795  16.0410404
  61.9952087  59.1978989  16.6729164  86.3904266  63.1828880  66.0506897
  87.1378708  62.6832504  65.7221832  85.6321106  62.7936974  65.6151199
  24.1114635  37.9328232  13.6904564  23.5527878  38.0987167  14.4497948
  24.8440914  37.4245987  14.0385904  40.4995041   1.5595255  68.4450378
  41.1096306   1.5419697  69.1823807  40.9923935   1.9726754  67.7360916
  68.1857071  47.5942345  32.5171127  68.5459442  46.7375946  32.7465324
  68.7025604  48.2163162  33.0290871  27.5965004  57.9771919  49.0400925
  27.5926399  58.1203041  49.9865265  26.9245090  57.3109665  48.8958588
  35.3334541  66.1829071  11.9780312  35.4831886  67.1281738  11.9611845
  35.0321999  65.9723434  11.0942106  27.2046051  42.4543228  83.1445312
  26.6934204  41.8296432  82.6300430  28.0688210  42.0501709  83.2221756
   7.8859153  15.9978580  55.3858109   7.5032287  16.1355114  56.2523155
   7.5721722  15.1334906  55.1199799  22.6755199  47.2430496   1.3530025
  22.0885639  47.4767570   2.0720961  22.6894989  48.0194168   0.7932746
  73.4342499  35.9382629  61.8448257  73.4735336  35.2251511  62.4821281
  73.2125168  35.5090446  61.0184822  63.1626549  32.8627853  15.7295809
  62.8674278  32.5481377  14.8751392  63.9093323  32.3041801  15.9456120
  76.0749664  23.6610260  21.6671696  76.9421997  23.8909588  21.3335876
  75.5883560  23.3767776  20.8934479  22.8016682  18.6823235  52.1567841
  23.0635490  18.6299706  53.0759735  21.9348965  19.0879269  52.1774178
   4.0057163   7.4168820  85.6420212   3.1759965   7.1580501  85.2410202
   3.9056225   7.1908417  86.5667496  80.6833038  63.4342194  22.4168243
  80.7140503  62.5389900  22.7542439  80.8486252  63.9845276  23.1823711
  60.0410576  54.1078796   7.6504836  60.3228264  53.4176636   7.0501189
  60.8498306  54.4118958   8.0624218   5.5914674  18.0939674  79.1530304
   5.9229078  18.0701294  78.2553635   5.9264603  18.9163971  79.5102768
  80.5631409  44.3410378  62.4658089  80.6037445  44.5932617  61.5433311
  80.9898376  45.0612144  62.9300308   8.8095379   1.3835472  63.3088570
   9.2980022   1.9784659  63.8778076   7.8907504   1.5974482  63.4710503
  69.4768753  52.6611137  88.9274521  69.3809204  53.2137680  88.1518173
  68.6156540  52.6823158  89.3446732  29.8262711   6.9183378  27.5865974
  29.2026978   7.0037746  26.8654251  29.3592606   7.2605486  28.3488464
  69.5079346  60.7744598   2.1028571  69.2151184  59.9020767   1.8393444
  69.8969116  61.1458740   1.3110347  23.7822628   5.5911698  29.3569450
  23.3707695   4.7828398  29.0511532  23.0487766   6.1572390  29.5973492
  55.6371269  19.4087257   4.2689204  55.4648170  18.4827766   4.0981593
  56.5593834  19.5266533   4.0414009  78.7496719  49.7816963  12.1200972
  79.5677719  49.9314423  11.6462593  78.0642395  49.9466248  11.4726315
  60.4090996  49.7323112  37.4328041  61.0431175  49.0716667  37.1538734
  60.9440994  50.4468880  37.7783279  11.9266186  40.7766647  48.3323135
  12.6368608  41.4091568  48.4406662  11.9529104  40.5436554  47.4042778
   2.7380793  66.9649277  72.5916748   2.8626280  66.0212860  72.4904022
   3.0788624  67.3400116  71.7796326  71.0866852   8.2129965  58.5506706
  71.3395157   7.9036531  59.4205093  71.0414352   7.4190555  58.0179062
  46.9956360  40.3137932  86.0036774  47.8471603  39.9079208  86.1661606
  47.0287552  41.1406937  86.4846878  20.2146320  48.1527481  20.9296970
  19.5152836  47.5837479  20.6081638  19.9366932  49.0354614  20.6851635
  58.2295723  28.7525883   9.1352262  57.5998459  28.7780170   8.4147873
  58.6839981  27.9171486   9.0267544  44.8913765  50.1033554  15.8700132
  45.8317375  50.2655144  15.9452763  44.6067581  50.6720886  15.1546345
   1.8245208  65.0461197  70.1791840   1.3069735  64.8395386  69.4009171
   2.2317581  65.8889771  69.9792175  35.8154335  56.7377548  46.4524002
  35.8868904  57.4709663  45.8412323  35.9102783  57.1367607  47.3172913
  18.7937584  11.7199917  59.7083626  18.8581562  11.2917480  58.8547287
  17.9298134  12.1320810  59.7050247  73.3425217  68.9776688  31.7248306
  73.7443237  68.1150589  31.8282318  73.1765442  69.0534973  30.7851849
   4.1316233  61.0783806  23.2913017   3.5990598  61.6681671  22.7576714
   4.4586325  61.6287804  24.0028896  79.6543427  40.6862984  10.2197151
  79.4098740  41.5361328  10.5861130  80.3249054  40.8904610   9.5678701
  73.7843323  27.0818405  36.5607491  72.9699249  27.3476276  36.1337395
  74.2620392  26.5992050  35.8861427  15.7369728  67.3430099  80.0746231
  14.8684778  67.2017517  80.4514465  15.8752394  68.2879715  80.1391296
   8.5208941  48.5653801  75.8170776   8.3758116  49.2899017  76.4255600
   7.7293015  48.0317726  75.8869247  17.8348770  56.3029289  54.1897583
  18.3643036  55.6587677  53.7196503  16.9884071  55.8733101  54.3128357
  78.4544449  38.9456863  69.7351608  78.5286255  39.6151543  70.4152679
  78.0421982  38.2021332  70.1749420  52.1627502  11.6406641  79.5936356
  51.6105728  12.3813496  79.3431931  51.8438835  10.9129333  79.0598145
  65.8747406  39.8794022  28.0131340  65.1081085  40.4262886  28.1846809
  65.5125122  39.0509720  27.6989307  52.6679382  54.8347054  10.5036554
  53.1446686  54.1938095  11.0311117  53.3227425  55.1801682   9.8969278
  50.7525063  66.4561920  58.9434853  50.1978073  65.6876984  59.0774841
  51.5465546  66.1103134  58.5359421  85.7529678   1.9056060  39.5777054
  84.8739014   1.5956113  39.7953606  85.7118607   2.1050746  38.6424217
  28.3749599   0.5676157  32.2485542  27.6444016   0.0910601  32.6427727
  28.6002274   1.2374363  32.8941727  68.3345337  46.4179764  66.3141632
  68.7194290  45.9705582  67.0677643  69.0195084  46.3941994  65.6459808
  58.9403458   7.2848659  35.2567902  59.6029015   6.8985176  34.6840858
  58.4693451   7.9014564  34.6962509   3.4425826  12.4403257  51.6341591
   2.5893788  12.1706123  51.9740562   3.2822611  13.2959909  51.2362022
  80.8521881  22.2796936  30.5919323  79.9218369  22.2486267  30.8148785
  81.2994308  22.3289337  31.4367924  55.8368187  37.2864609   2.6194544
  56.7071266  37.3299255   2.2233362  55.6842079  36.3520737   2.7603924
  59.6269112   8.6694984  69.2870560  59.0571632   8.2167244  69.9088364
  59.0729065   9.3514767  68.9073029  62.4083786  39.2518806  30.0346203
  61.7558784  38.5616379  30.1531124  62.4160805  39.7200661  30.8694725
  50.8029976  25.4158955  83.9628906  51.2551003  25.4624863  84.8053055
  51.3395767  25.9458809  83.3734589  20.9849815  67.5221786  78.6429596
  21.7535534  67.4703293  79.2111511  20.2532196  67.2704239  79.2063217
  83.7119598  60.1907272  61.0201836  83.7863693  60.4324608  60.0970039
  83.7777863  59.2358017  61.0237808  26.1551285  31.7854271  71.4655991
  25.4436188  31.1458721  71.4964905  26.6531334  31.5520267  70.6821823
  40.1540184  57.0222626   2.2579327  40.9345512  57.5215111   2.4982409
  40.0935211  57.1152649   1.3071842  66.8476028  55.6652527  46.2284470
  65.9114761  55.4863548  46.1396599  67.2100143  55.4804115  45.3620033
  35.3430290  70.8597183  14.8061686  34.9005356  70.5573883  14.0130577
  35.8010559  70.0860443  15.1346130  13.1890774  40.9676704  61.5118637
  12.9997025  41.8980675  61.6332321  13.3527174  40.8770256  60.5731201
  17.8545208  21.3616562  81.4384918  17.4740753  21.7787361  82.2114944
  17.0997944  21.1100101  80.9062347  11.0907688  68.1449814   2.5171914
  11.3718939  69.0304260   2.7478197  11.5398188  67.9582291   1.6927470
  33.0148239  26.7280369  12.9498062  32.6117363  26.0553894  12.4008999
  33.7537842  27.0482235  12.4324560  18.0949078  62.0563431  24.8299713
  17.1720867  61.8862419  25.0189152  18.4134235  62.5297928  25.5984936
  29.0158405   8.2371387   5.2668486  29.9564991   8.0602179   5.2764921
  28.8644409   8.7705317   6.0471063  18.4433289  24.3657513  62.1219025
  19.1176109  23.8358860  61.6966743  17.9070950  24.6949310  61.4005661
  68.8492279  61.8989372  38.8072968  68.0651627  61.3623657  38.9237671
  68.5468445  62.7971687  38.9413757  47.6902733  55.1124191  37.1190453
  48.4115028  55.4111786  37.6729393  47.8687439  54.1832733  36.9739075
  48.4731064  57.8389664  19.5792809  49.1654587  57.5727425  18.9742985
  47.6884651  57.8981361  19.0342407  12.6551332  69.5057220  12.5397978
  13.3723059  69.5808105  11.9103088  11.8651190  69.4745712  12.0002241
  22.4667873  10.3189535  16.8674641  22.7727280  10.9571705  16.2230167
  22.6518250  10.7257595  17.7139282  83.8155289  22.0955467  48.7615585
  83.6272278  22.5223351  47.9257202  83.0066910  21.6336880  48.9822350
  76.0582962  46.2384872  10.5738611  76.9941788  46.3980103  10.4517422
  76.0161514  45.5777893  11.2651873  25.4649448  18.0725536  17.4308662
  24.8255196  17.4093933  17.1708946  26.1764374  17.5744820  17.8332767
  21.3690014   4.6409707  12.4375648  22.2225494   4.8354311  12.8246994
  21.5651093   4.4076567  11.5301847   4.4253907  14.3529482  53.9887924
   3.9952924  13.9756413  53.2214012   4.8610067  15.1381836  53.6573143
  27.9586201  68.6749344  67.9125061  28.1007595  69.3611679  68.5645065
  27.0069695  68.6216125  67.8244629  24.9755135  48.9386902  87.3577347
  25.7818737  48.4913521  87.6144562  24.6397533  48.4245644  86.6234512
  82.2357635  65.6661072  28.2292652  81.3013229  65.7726669  28.4072971
  82.6687393  66.2041550  28.8920403   6.7086802  57.6335526   0.6685029
   7.2005520  57.2265472  -0.0446872   6.6226039  58.5504112   0.4073605
  71.8216705  43.9410400  60.6022682  71.7300339  44.5904198  59.9050293
  72.6673737  44.1391830  61.0044670  15.0721197  16.8323936  82.4340515
  14.3298788  16.5636864  82.9754486  15.4770355  17.5496521  82.9217148
  30.4034672  64.1478119  11.1517639  30.1157932  63.4990387  11.7940741
  31.1598377  64.5695343  11.5595541  81.6331863  62.4454231  88.9654846
  81.0635605  62.9996796  89.4989243  82.4644623  62.9187813  88.9315414
   0.9231187  25.6409225  71.7606201   0.1447482  25.1473560  72.0190048
   0.5786135  26.4408970  71.3636475  51.1791496  34.8288155  85.7411118
  50.7418060  35.6705475  85.6128311  50.6832085  34.2160301  85.1981888
  84.4082413   2.5958314  44.1158142  84.7451324   3.1248674  44.8389053
  85.1314468   2.0109389  43.8897438  33.2556496   0.6051651  37.4863014
  32.8046646  -0.2386264  37.4569511  34.1787148   0.3880567  37.3557320
  18.0144958  50.9976463  21.4464493  17.8505764  50.0898781  21.7020245
  18.3623486  50.9369011  20.5567646   7.6806135  28.0520306  66.7490540
   7.5962486  28.8795414  67.2227020   7.8807297  28.3103447  65.8493576
  51.3603058  11.4095879  18.6765060  51.1052017  10.4950438  18.7980080
  51.0864563  11.6179895  17.7833042  80.4412308  29.1153431  62.4586639
  81.1280136  28.5092373  62.1808167  79.7203674  28.9560757  61.8493881
  17.1295338  36.3930092  16.2623005  17.8167973  36.2324905  15.6156664
  17.4131279  35.9095917  17.0382595  34.5484238  65.9511719  46.2327499
  34.5936813  66.0010071  45.2779198  33.6775894  65.5971222  46.4131012
  81.4817963  20.5347672  49.2991066  80.9445801  19.7506733  49.4123955
  81.1004791  20.9789886  48.5418091  41.1116829   5.0245476  21.2024040
  41.0079079   5.8738070  21.6316128  42.0578499   4.8812833  21.1805000
  84.9818573  44.3932953  60.5696297  85.9064026  44.6288910  60.4925041
  84.6334534  45.0009689  61.2219963  63.3559837  25.4413204  37.5854988
  62.8336525  25.2158756  38.3552895  63.0451584  24.8468723  36.9026756
   2.7301326  67.8411102  86.8711395   3.0983202  67.0924530  86.4019089
   2.8054256  68.5702133  86.2555389   9.4869986  52.2583275  52.4449692
   9.6840620  51.3232422  52.3900719   9.9322691  52.6417046  51.6893349
  19.6051769  28.8429070  54.3696671  18.7802906  28.6759281  53.9136925
  20.1826077  29.2024117  53.6961975   8.3893604  23.5427361  50.9909592
   8.6596413  22.6609879  50.7346382   8.1244097  23.9598389  50.1711693
  51.2434616  36.4966011  72.4665604  50.4722023  36.0594215  72.8274841
  51.4785728  35.9735222  71.7001801  67.5997925  40.4917488  79.6537704
  66.7658920  40.4974556  80.1236725  67.9011078  39.5850525  79.7116013
  25.7483501  11.4408083   9.0018206  25.7308846  10.8347712   8.2611141
  24.8359795  11.7073784   9.1147461  21.4780502  10.3564472  70.0550232
  21.9844036  10.2918816  70.8647614  20.5770645  10.4961777  70.3464508
  51.6492081  29.5349636  14.2546167  52.5683517  29.7384739  14.0814238
  51.5878563  28.5868015  14.1386147   9.6455193  37.3736000  57.9862747
   9.8335857  36.7664642  57.2705612   9.3303242  36.8155098  58.6972046
  22.3327465  42.2040596  81.7592697  23.2185955  42.3705177  82.0814438
  21.8861580  43.0468178  81.8401718   5.7396603  53.3941116  85.4936676
   6.3626523  53.0986786  86.1576157   6.1852498  53.2383308  84.6609497
  64.7288666  40.3634605  55.4631424  64.8359070  39.4969063  55.8553925
  64.4766006  40.1866379  54.5568733  78.7047501  35.2958870  66.9225311
  78.7354279  34.8370895  66.0830078  78.1561279  36.0625114  66.7566071
   3.7496405  43.2062149  61.0648766   4.1284122  42.6289787  61.7278709
   3.9208379  44.0898552  61.3906174  48.8851280  20.1895237  10.2683907
  48.3349648  20.4608688  11.0031872  48.3347702  19.5885277   9.7662544
  31.2350407   4.7677574  45.6696281  31.1535912   4.1522603  44.9410934
  30.5797081   5.4414935  45.4883804  14.9488516  61.3670235  68.9451370
  14.2793226  60.7733612  68.6052475  15.7735138  61.0149231  68.6101913
  53.5222626   6.0661311   3.0221846  53.9740334   6.3388791   2.2235966
  54.2065430   5.6684537   3.5605533  16.1537170  18.2130451  10.8715515
  15.8500509  18.7243271  11.6216240  15.7821617  17.3417377  11.0093985
  66.1586838   5.7157559  68.0534363  65.8877106   5.2084880  68.8186111
  66.2983322   6.6008658  68.3900528  34.5955276  50.6542244  52.7170525
  34.0043297  51.3703270  52.4848633  34.5133781  50.5743828  53.6673737
  57.0265160  50.0668373  11.9365597  56.3635674  50.0943031  11.2466497
  56.6117210  49.5789986  12.6480293  33.6317673  60.6895523  56.0390587
  33.1642494  60.2162704  55.3508224  33.8972130  60.0102501  56.6589928
  77.2797546  54.7651329  36.2354393  77.1549683  55.4927101  35.6261024
  76.4277954  54.6581993  36.6584740  58.1910248  55.8695297  29.8491688
  57.6866455  55.2342987  29.3409195  57.7493935  55.9021225  30.6977768
  45.7605896  34.6890717  18.6571598  44.9369240  34.8488884  18.1964321
  46.4386940  34.8892097  18.0119076  45.6818733   9.9394541  74.1880417
  46.3259697   9.2400341  74.2984085  44.9522552   9.6844358  74.7527084
  82.7630157  44.3647881  20.8190956  82.5801163  45.1126480  21.3878536
  83.4835968  43.9060135  21.2509747  14.5389605  71.2731018  46.5557327
  15.2658701  71.6168060  46.0364075  14.0285625  70.7506790  45.9370232
  23.9407082   6.8355842  55.3460999  23.7770786   7.5611019  55.9486618
  23.3684464   6.1334743  55.6556015  39.4021568  37.7394295  77.6015167
  39.1926003  36.8185997  77.7576904  40.0422134  37.7220688  76.8899994
  37.0483665  55.9381332  41.4022217  36.6213531  56.6075287  41.9368210
  37.9833183  56.0606003  41.5668297   2.4306653  62.8377800   5.2335496
   1.7658732  62.3518066   4.7455816   3.1723707  62.8993111   4.6316204
  28.2636871  63.3508568  63.5828705  29.1395092  63.4391251  63.9588737
  28.2656479  63.9417725  62.8298492  58.2710037  64.2127838  13.8416882
  58.3783913  64.9137878  13.1988077  58.0787048  64.6673355  14.6618309
  55.7190170   3.3757622   1.2389779  55.8668709   3.6812160   0.3439531
  55.9671364   2.4514611   1.2206708  77.6649475   5.9990797  53.2613754
  77.7992020   6.1989160  54.1878052  78.5052338   6.1992631  52.8489609
  51.9120979  59.1719475  83.3782730  51.1413918  58.9315453  83.8925247
  51.5785370  59.7761269  82.7149963  40.1629677  15.5828333  22.6985455
  39.9687462  14.7308578  22.3078461  40.1127014  15.4306307  23.6422291
  69.8758316   3.1159513  71.3987579  69.6524963   2.2873631  70.9747314
  70.8044434   3.2420983  71.2038345  73.7027588  54.8450050   9.2819433
  74.0773392  55.2669487  10.0551758  74.1931915  55.2131538   8.5469751
  73.2972870  49.0963936  75.8207321  74.0967178  49.6227913  75.8136597
  72.6224365  49.6811180  75.4758987  79.8865356  68.2014389  76.0246048
  79.8031616  68.2678299  76.9758530  80.0375519  69.1008911  75.7340546
  25.9382915   1.7996387  49.7861900  26.2736492   2.3113289  49.0500259
  26.6793938   1.2589350  50.0593910  76.8924561  38.9243851   0.8183855
  77.0255890  39.4639702   1.5977148  77.7606964  38.5747986   0.6179349
   6.8102498  50.0321846  48.1738129   7.5532737  50.2686958  47.6186447
   7.1805863  49.9653091  49.0539322  61.4124031  36.9732704  51.3864784
  61.1743774  37.8719635  51.6143570  60.9297752  36.4319344  52.0111847
  21.2954845   7.6190200  69.7441711  21.6930161   7.2081385  68.9764633
  21.2983112   8.5549164  69.5433731  41.6310692   5.5694609  12.4318609
  41.9503288   5.9118676  13.2667637  41.0820236   4.8234382  12.6731710
  22.4277496  21.1088371  79.0648041  22.6004066  20.4201107  78.4228668
  21.4889908  21.0431900  79.2398834   3.4178004  45.2877388  73.9909897
   2.6393843  45.5812759  74.4644241   3.1008005  45.0859528  73.1106339
   1.7460392  54.2665405  35.9042053   2.6200733  54.5614395  36.1598053
   1.1522093  54.9001846  36.3068161  13.7256479  43.6030807  61.0961189
  14.5130911  43.1133156  60.8588486  13.9317608  44.5107613  60.8728104
  79.0769577  17.8066120  87.7831116  79.0553589  18.4991646  87.1227036
  78.7320404  18.2196808  88.5747147  67.4224014  18.9288540  24.8159447
  68.2946167  18.6767807  24.5127411  66.8224106  18.4582195  24.2373734
  74.7975464   2.2265058  79.7752457  75.7070312   2.4103780  79.5401764
  74.6664658   2.6873994  80.6038742  61.1175842  12.3056974  19.0747013
  60.4584618  11.7269840  18.6914577  61.6925430  12.5312834  18.3434219
  60.3205376  63.2677650  20.1083031  60.9891472  62.6167068  19.8954334
  59.6877403  63.2039337  19.3929520  53.8441734  57.3271332  24.3670578
  53.3930206  56.4842834  24.3190956  54.7232285  57.1475868  24.0335121
  42.9050865  37.8641472  27.7472458  42.3659592  38.2479172  27.0556583
  43.8039742  37.9655228  27.4342709  35.7015305  34.0909729  79.7047119
  36.3477516  34.1560211  80.4078445  35.5506821  33.1510887  79.6042480
   1.9657990  16.1867485  48.4037476   1.0632221  16.4867516  48.2961121
   2.2605104  15.9901686  47.5145149   4.3856978  36.3788452  75.1028290
   3.8013422  37.1331940  75.0272141   4.9316401  36.4191284  74.3176193
  39.9005508   2.6091139  71.6507034  39.8254623   3.3326068  72.2729187
  38.9999161   2.4326086  71.3787918  29.5895138  58.4698067  54.3981934
  29.0835571  57.8861694  54.9635277  28.9654388  59.1444817  54.1306534
  84.6226501  14.8138552  52.4457436  84.3226166  14.8219337  53.3546677
  84.7155380  15.7384100  52.2159538  72.7863159  69.8380508   4.2551479
  73.5481567  69.4449158   3.8293903  72.2677994  69.0914841   4.5551686
  59.8877754  41.3977966  44.0387611  59.5760574  41.4905815  43.1385078
  59.5870628  40.5298920  44.3080978   0.5197853  19.8514004  85.2873917
   1.3566213  19.4692287  85.0230331   0.5727583  20.7638893  85.0031586
  58.2264786  48.7090530  40.2040482  58.5893021  49.5695190  40.4142570
  57.9904213  48.3347969  41.0528374  49.4481277   9.0224981  51.5114288
  49.6177559   9.0992556  50.5725098  49.1141014   8.1323719  51.6224861
  42.8476715   0.4493050  66.0481644  42.7262650   1.2876285  65.6023941
  43.7972336   0.3491060  66.1154099  -0.0585462   1.7220854  76.1104202
   0.8585683   1.4481490  76.1008453  -0.2028685   2.0447314  76.9999771
  41.6872292  54.6546402   0.2994179  42.5670586  54.3821831   0.0388445
  41.6387634  54.4471054   1.2325914  37.8574944  11.8557835  24.5543270
  36.9469833  11.9340181  24.2695847  37.8000755  11.5428743  25.4571133
  67.9928513  52.6453819  28.1703358  67.3688507  53.3707466  28.1967392
  68.1235123  52.4756813  27.2374039  21.4927731  67.3764877  33.3125687
  22.2284603  67.8439560  33.7081337  21.8756924  66.5645599  32.9803391
  14.7636461  60.8468361  42.3172340  14.8047609  60.5945053  41.3948097
  14.7034492  60.0168037  42.7901497  25.4645596   2.0555012  67.9568787
  25.6622887   1.3024179  67.4001007  24.6158714   1.8479989  68.3479080
  27.7698212  21.8647480  78.4833221  28.4825630  22.5028896  78.4515762
  27.4466171  21.8217030  77.5833664  11.6653585  70.8410034  52.2917938
  11.7454081  71.1354828  53.1990471  12.5649080  70.8246613  51.9650307
  29.9994888  70.7250671  35.3070717  29.1039753  70.4770889  35.5368423
  29.9450588  71.6591644  35.1052589  83.0120239  69.8169403  38.0506210
  82.4225769  69.0634537  38.0183334  82.5099182  70.5308380  37.6575890
  60.1541672   6.0726838  53.6693497  60.7700691   5.8359995  52.9758949
  59.4834671   6.5927753  53.2267494  50.2066002  56.0257835  88.4854507
  49.5663185  56.7012978  88.2619553  50.7912445  55.9900665  87.7283859
  11.6255465  11.8031769  23.4030781  11.9963856  11.6754456  24.2762318
  11.4206486  10.9192562  23.0982285  69.2460327  10.6374674  31.8460941
  69.8189163  10.8627920  32.5790749  69.7033920   9.9286327  31.3937550
  19.4698830  54.1211128  21.6933365  20.2074585  54.2414207  21.0952244
  19.6830730  53.3244858  22.1793060  34.6531181  37.1916695  87.8420410
  34.2232132  36.6925278  87.1475830  33.9836578  37.2845230  88.5198593
  54.5216141   1.6520191  26.9654846  53.7483788   1.1100498  27.1223526
  54.2170601   2.3373942  26.3707237  69.6549683  23.0859280  35.5195847
  70.2926865  23.7788067  35.3479271  70.1717758  22.3718147  35.8926659
   4.5839386   2.7274134  10.1462774   4.6981883   1.7811196  10.2340641
   4.7383018   2.9021988   9.2179165  57.1582794   6.2379847   0.2582318
  57.1524010   5.7688246   1.0925496  57.9815369   5.9795184  -0.1560994
  38.8228722  13.0290298  70.6852570  39.4043312  13.6020775  70.1855011
  37.9416847  13.2878342  70.4155121  25.2069855  14.9916573  68.4843292
  25.5395832  14.7212410  69.3401871  25.9917355  15.1131458  67.9498749
  35.7868652  64.2636642  68.3572006  36.4532928  63.6425171  68.6509399
  36.2704620  64.9059525  67.8377533  41.8736038  49.9943733  80.3346786
  41.0253830  49.8793983  79.9062653  42.4666710  49.4206429  79.8495636
  30.2519913   3.5433633  18.7462540  30.7272892   4.3407426  18.5127792
  30.9338055   2.8793347  18.8483715  83.9972534  16.7739372  66.3993225
  84.5492401  16.0195942  66.1931305  84.1903992  16.9685078  67.3164215
  24.8669453   5.7064800  45.9125290  25.3090019   5.9188805  46.7345428
  23.9424152   5.6338286  46.1495895   9.3523073  13.1613150   5.5263658
   9.1994047  12.6741676   6.3360205   9.8104353  13.9537058   5.8064837
  53.2870560  60.7018661  54.7991142  54.1284332  61.1344147  54.9447784
  53.5169144  59.7998352  54.5760994  81.6295090  11.1944075   9.5590553
  81.9176712  11.4104404  10.4459162  82.0202179  10.3386955   9.3820410
  22.6498928  64.9513168  47.8006744  23.0853958  64.9415283  48.6530075
  21.7199688  64.8542328  48.0057259  11.0608063  44.5237236  28.8443661
  11.4357901  44.6165886  27.9685841  11.0486012  45.4141731  29.1953392
  83.0898895  33.0781784  28.5917110  83.8819733  32.7651825  28.1548271
  83.4112701  33.6432838  29.2942810  17.6103230  22.8789310  66.0549622
  16.7634449  23.3225899  66.0080872  17.5745468  22.3801270  66.8711395
   4.8272672  44.2478638  58.5579758   4.6847277  43.4774055  59.1078033
   4.1657672  44.1767006  57.8698006  64.9632187  25.8461475  52.9345932
  65.6343231  26.1585865  52.3277702  64.2401276  25.5709343  52.3710098
  13.9241314  19.4287434  21.6384792  14.3645611  18.5983181  21.8191605
  14.3141069  20.0462685  22.2572002  57.5025520  24.3740463  84.8463211
  57.1033783  23.9049740  85.5790329  56.8313293  24.3680878  84.1639328
  68.4540024  36.7499352  73.1249924  68.7939453  35.8721581  72.9512787
  67.5102615  36.6734276  72.9845276  71.3371201  61.6629219  49.6161232
  71.3321075  61.7487602  50.5694542  71.0711746  60.7574997  49.4557610
  55.0098152  51.7840805  77.2738190  54.8929596  51.2611122  78.0669632
  55.9004478  52.1279678  77.3427277  59.6639442  14.1106663  12.2186832
  59.2638435  14.7263680  11.6046286  60.2226868  14.6548252  12.7735977
   2.3407533  55.3751335  52.9739723   1.5190692  54.9655914  52.7031555
   2.9944396  54.6814270  52.8862381  16.4428310  65.3554535  78.4311600
  16.3030033  66.1304398  78.9752884  17.3146248  65.0450974  78.6758881
   3.1914411  36.6998634  71.0013809   2.5953770  36.4890404  71.7200546
   3.7757716  35.9437981  70.9452209  84.3566513  42.8687668  83.2989502
  84.2867432  42.2072372  82.6106796  84.1672668  43.6960068  82.8561935
  21.2583714   2.1586645   9.6510620  20.3844929   2.5368834   9.7486219
  21.7944946   2.6259744  10.2917061  12.4577026  54.2962074  68.3231354
  11.6424189  54.7359047  68.0818634  12.2619934  53.3634109  68.2347412
  20.3357716  44.9814453  43.7426796  20.8664131  44.1883087  43.8174248
  19.6633949  44.7599373  43.0984154   0.2205291  63.6717224  44.2377701
   0.0347594  63.0793686  43.5091820   0.3569438  64.5242767  43.8245125
  19.9243851  16.5853443  67.8289413  20.7968483  16.8777924  68.0925903
  20.0866547  15.9218721  67.1583405  21.6726761  52.0334663  13.0668545
  21.6643772  52.0132828  14.0238056  21.7226009  51.1131973  12.8083038
  66.8212509  18.1534939  56.0073853  67.4599380  18.5218296  56.6178246
  67.2466202  17.3696251  55.6597519  35.2224655  27.5521717  11.5695801
  35.1306229  27.5392227  10.6168842  36.1674538  27.5836048  11.7186985
  66.0634232   1.1881013  66.6249542  66.4519730   1.6463467  65.8797913
  65.3258514   1.7391148  66.8868790   3.2697446  21.8942394  86.8570709
   4.0085554  21.6873608  87.4294281   2.4965050  21.6560440  87.3685303
   8.4212027   9.7020035  38.7860947   8.8846416   9.0071688  38.3184814
   8.5554466  10.4829044  38.2490616  76.7911072  64.7006760  44.7091866
  75.8476181  64.6808243  44.5490112  77.1819534  64.4669266  43.8672638
  42.5942802  70.1688538  53.4239845  42.2098541  69.8828354  54.2526207
  43.3904915  69.6449127  53.3358459  26.9743042   6.3973150  84.5816193
  26.2754650   6.4382925  83.9287949  27.4627571   7.2116265  84.4610291
  84.0030975  17.1187973  87.3190689  84.2765198  17.8221664  86.7302246
  84.5746384  17.2090340  88.0815887  16.4323635  12.9935513  61.9133530
  16.0833740  12.8831882  61.0289001  15.8332291  13.6117249  62.3318367
  41.2472420  49.1155663  28.2616978  40.4495850  49.6446838  28.2637653
  40.9972191  48.3071060  27.8143559   3.1800742  20.6723747  77.1042557
   2.7591114  19.9413948  77.5566788   4.0114346  20.3144875  76.7928238
  51.1486359  23.6398182  17.0586929  50.5095825  23.1055279  16.5871239
  51.9328232  23.0926476  17.1021023  66.6889038  64.3960266  13.3093042
  66.3083725  64.9796295  13.9656858  66.6136169  63.5223961  13.6931458
  51.9231529   0.8031594  71.7509613  51.3984528   0.0592442  71.4551315
  51.2797432   1.4499691  72.0406036  38.7833099   7.8418818  25.5589390
  39.2008400   8.0760174  24.7300358  37.8928757   8.1850071  25.4839191
  34.2748909  38.1875687  10.4753246  33.7162247  37.8356285  11.1683340
  33.8241425  37.9556580   9.6633654  64.2319183  44.1646652  66.6117554
  64.4866180  44.7143440  67.3528366  64.9508438  43.5395546  66.5189590
  11.3652639  11.4105597   1.3970307  12.1117487  11.9953737   1.2667047
  11.2999325  10.9194164   0.5780420  29.8435726  48.0123405  54.9696236
  30.1080208  47.0971947  55.0634727  29.0855522  47.9839439  54.3858147
  68.9644165  47.1707840  24.3414135  68.7190170  47.4709778  25.2165661
  69.5428619  47.8560104  24.0066032  42.8713799  15.5794983  45.4105110
  43.1091690  15.7219210  44.4943199  41.9534416  15.8455267  45.4638557
  34.7962837  12.5395679  10.0248442  34.6956024  13.4816036  10.1614590
  34.6918907  12.4219713   9.0806494  62.8979378  68.5404968  39.8219566
  63.0106392  69.4890747  39.7608299  62.0309792  68.3778610  39.4502563
  64.9188156   4.2930722   1.4800321  64.6680298   3.5830047   2.0709159
  65.6589050   4.7165165   1.9149989  59.4159241  70.5819855  43.3571968
  59.5081253  71.5054855  43.5914421  58.7267952  70.2557449  43.9359055
   3.9157283  10.7329626  82.9638443   3.4304211  11.4294863  82.5216217
   3.4738963  10.6311913  83.8068542  51.2957153  67.6019669  87.0299454
  51.6642914  66.7720642  86.7272034  52.0401764  68.2034607  87.0447159
  41.8826714  28.2402363   6.0586729  41.7378922  27.2941036   6.0687871
  41.0132446  28.6170406   6.1941223  55.7816238  47.0561981  78.2084427
  56.1100349  46.1760292  78.3919678  54.9513397  46.9122086  77.7544327
   2.3328879  66.4007874  14.3347979   1.7959702  66.9194107  14.9339504
   2.5486472  67.0038681  13.6234818  56.0210686  64.5382843   5.4989271
  55.7283020  64.4673615   4.5903630  55.2263451  64.4117508   6.0172238
  48.8219566  45.2174149  69.6579666  49.0437431  44.7852745  68.8331680
  49.6609230  45.3218384  70.1068115  56.4974022  29.6224480  15.6518068
  57.1694794  29.7004852  14.9747124  56.9398460  29.8831005  16.4596043
  12.6861734  32.9029350  12.3894577  13.1916370  33.3915100  13.0390987
  12.1622229  32.2899818  12.9052038  47.6959305  52.1855965  23.6591187
  48.3689156  51.9447098  23.0224895  47.4881401  51.3668594  24.1093674
  46.9713058   8.8211756   5.0061946  46.8359032   8.6919460   4.0674734
  46.0918846   8.7842903   5.3823485   9.5815725  62.0348206   1.2635504
   9.7157288  62.9814034   1.3106717  10.2714176  61.7240410   0.6772401
  12.8746872  12.6359482  13.3100863  12.9329529  13.5302534  13.6463232
  12.2475681  12.2027445  13.8891268  11.8566532  14.1366043  64.2166443
  12.7859421  13.9748240  64.3793793  11.8393383  14.9546852  63.7199860
  73.1609573  41.4611015  36.1095390  72.7820663  41.4459877  35.2306480
  72.4627609  41.1343994  36.6770020  77.0529327  18.1447124  70.6745529
  76.7836533  19.0444279  70.8595657  76.3798904  17.6035709  71.0873642
   2.4292035  21.8783016  13.9262009   2.4486830  22.7902508  13.6360292
   1.9554797  21.9015751  14.7576313   3.0566673  64.0240250  57.0812035
   3.7387488  64.2402649  57.7170029   3.3578012  64.4193420  56.2631149
  17.3986225  69.2243805  15.5126934  16.7765064  69.5579605  16.1591663
  17.6674271  68.3723984  15.8563557  18.2657166  66.3221588  54.8425903
  19.0841465  66.5106277  55.3018112  18.3232670  65.3924179  54.6223602
  75.7124481  63.1683655  60.0257149  76.5871429  62.7796288  60.0305481
  75.1185837  62.4209938  59.9550056  63.9796257   8.0709620  59.1530991
  64.4617462   8.7577209  58.6924973  63.3737068   7.7235246  58.4985886
  73.9597473  31.3588142  47.4267426  73.3017654  31.4622135  48.1142006
  74.7512360  31.7549763  47.7912178  67.3370209  32.3720207  72.1046829
  68.1372070  32.8771629  72.2488022  67.5884628  31.7008705  71.4702072
  33.1268921  55.6688156  83.3452377  32.5947838  56.3495026  83.7572556
  33.5470543  56.1080360  82.6057892   4.7059269  15.3329363  73.4485550
   3.7992980  15.0581617  73.3116074   4.9003887  15.0763741  74.3499985
  38.0718956  54.7983894  62.2905350  38.9114037  54.9947052  61.8747025
  37.8680305  55.5824051  62.8004265  80.1270828  52.6619759  16.1448765
  80.2357712  53.2131424  16.9198837  79.3058014  52.1943703  16.2967854
  79.4796143  36.8105431  41.5628166  79.7882919  37.2706795  42.3433495
  79.0747604  37.4926796  41.0270767  63.6296997  11.4010859  48.2924843
  64.5360718  11.5029211  48.5829201  63.1063309  11.5797787  49.0737534
  41.2519569  20.6275806  12.8594465  41.3383636  21.2932224  13.5418587
  40.3996391  20.2244606  13.0246229  45.8425522   3.2459080  51.4153366
  46.6825600   3.6181943  51.6837044  46.0696793   2.4075089  51.0131798
  44.0128746  32.6665192  20.5719452  44.5667038  33.4445724  20.5075951
  44.6297035  31.9404640  20.6646881  36.0662689  71.0332794  84.3498764
  36.8389816  71.3704529  83.8965988  36.2097397  70.0880737  84.3971558
  31.3947105  14.7976055  29.5269279  30.7552090  14.5733175  30.2029190
  31.6269913  15.7080498  29.7095985  66.4457397  70.4125290  82.0020294
  65.4989929  70.2839355  82.0599976  66.7707138  70.1968842  82.8761673
  77.2725067   1.0832075  50.5671844  77.6850510   1.0585245  51.4305649
  77.4202423   0.2091338  50.2060699  29.7585983  46.0298843  17.4087906
  29.5968571  46.7777176  16.8336277  29.3920994  45.2816391  16.9375782
  34.3820190  19.9724159  76.2013702  33.4627037  19.8900719  75.9477768
  34.7625122  19.1165562  76.0039825  33.5009766  53.9889679  78.9125137
  33.6960220  54.8716507  78.5977783  34.1750107  53.4382744  78.5142136
  72.4654465  62.7925034  85.4176788  71.5157928  62.8754921  85.5043030
  72.6069717  62.6213074  84.4866104  60.3937607  51.0095940  66.1961517
  60.0904846  51.8189850  66.6074219  61.3070259  51.1841011  65.9687195
  14.3174772  68.9797287  65.2038651  15.0882874  69.0840836  64.6460190
  14.2210188  69.8263550  65.6399307  84.0789948  57.5379066  59.2990761
  83.2256546  57.7314568  58.9110184  84.6925583  58.0925674  58.8172874
  80.8511963  14.5229998  60.4218216  80.9931793  13.9907513  61.2046280
  81.2272110  15.3756580  60.6404953  86.5406189  29.9627724   7.5081716
  86.4000854  30.5824451   8.2240553  85.6753006  29.8514977   7.1143756
  69.2380981  45.1109734  33.2094955  70.0493622  45.4127808  33.6181412
  69.5242157  44.4928246  32.5369911  64.6593018  41.9715919  25.3419132
  64.7191772  41.6686516  26.2479324  65.1330643  42.8033028  25.3356571
  43.7944145  49.2682419  27.5490055  44.2648430  48.4509850  27.3846226
  42.9511490  48.9912834  27.9073772  66.6666946  59.1745605  25.7097168
  66.0947495  58.4335365  25.5097179  66.4882126  59.8090401  25.0155888
  79.2406006  48.8129425   5.1637754  80.1706619  48.7396355   4.9496884
  79.0255051  49.7286911   4.9866538  68.9062576   9.5951805  66.9715576
  68.8861008  10.4761543  66.5977783  69.4078369   9.0787649  66.3407135
  25.6264629  27.9863186  18.5135288  26.4638233  28.3675327  18.7776012
  25.5962753  27.1409359  18.9614677  59.3604469  14.2287283  48.9318886
  60.0512886  14.6271420  49.4612617  58.7739792  13.8223801  49.5699883
  36.0476685   1.0131288  40.5151939  36.6794930   1.6783731  40.7880974
  36.4864998   0.5423905  39.8066254  57.8588982  37.8526230  28.8436203
  57.0728302  38.2888184  29.1723423  58.1582336  37.3142967  29.5763130
  72.2410278   6.7192521  16.0447578  72.2962265   5.7657790  15.9809265
  71.3171387   6.9165325  15.8906412   8.5498791  48.5856400   7.4366331
   8.4271088  49.2093010   6.7209477   8.4827576  47.7265549   7.0198617
  22.0212402  24.1341534  28.1820354  21.3289738  24.0478630  27.5266323
  22.2572842  23.2327728  28.4011917  15.0920296  35.3053131  86.5916519
  15.5521498  35.9740334  86.0843735  15.6409378  35.1708450  87.3642120
  69.8195724  66.9435883  70.0537567  70.5508270  66.9182816  69.4366302
  69.9291382  66.1565094  70.5873642  60.2502708  41.9455528  77.3037872
  60.0466576  42.1007118  78.2261200  59.3991356  41.7943954  76.8927536
  25.9108734   1.6361208  54.2816620  26.1081161   1.1298370  55.0696983
  26.7640591   1.9415672  53.9734230  20.9461594  43.1761284  13.6568308
  20.0286751  43.3812065  13.4768333  21.1669922  43.7137184  14.4173965
  66.0654831  45.6148529   7.6250663  65.9975433  46.1120758   6.8099675
  66.9966583  45.6417580   7.8451271  25.8017330  15.8545885   1.8118707
  26.5752277  15.6454287   2.3354998  25.8097134  15.2096281   1.1046265
   6.1595731  57.8904877  20.3591919   6.3691583  56.9635201  20.2450066
   6.7671165  58.3468781  19.7770996   4.5622253  36.1745682  80.6974792
   3.8006673  36.5327034  81.1535492   4.2028289  35.7855263  79.9001617
  83.7274475  40.0583954  73.0135803  83.5803986  40.8903961  73.4634552
  82.9570465  39.9479904  72.4563370  56.1655502  51.0199852  43.6272392
  57.0599556  50.8861427  43.3136177  55.8398018  50.1377983  43.8057442
  51.6731567  66.0241394   1.5324175  51.3127823  65.1436081   1.6374826
  52.4485092  66.0341415   2.0936313  53.0490265  27.1215401  79.2031326
  52.2035408  26.9561939  78.7859497  53.0646057  28.0678864  79.3460312
  24.2703285  14.1520281  72.4589691  24.7449856  14.5281334  73.2002335
  24.8704987  14.2435637  71.7189331  18.2265625  57.9925194  57.3018417
  18.0364513  57.4420853  58.0615196  19.0036087  57.5963898  56.9074898
   3.6229327  34.0368996  37.4059296   4.2304468  33.3049393  37.2991943
   2.8771961  33.6627502  37.8750992  43.0888176  47.3246574  22.0114765
  42.4114189  47.9457054  21.7437668  42.6808891  46.8111038  22.7086773
  55.1862030  24.1336765  83.3820648  55.1778679  24.3487282  82.4493713
  54.4078636  23.5913658  83.5097885  78.2919388  56.2040901  64.1674500
  78.3585129  55.8812408  63.2688026  78.5246277  55.4508972  64.7103958
  37.4171410  46.1109581  11.6002083  38.3303490  45.8261719  11.5658531
  37.4247398  46.9869080  11.2143440  24.1818352  32.7981186  64.0772552
  23.3900375  32.5464058  64.5525742  24.8336658  32.9505005  64.7614517
  71.0108871  27.7563648  47.5082207  71.4318542  26.9969540  47.1053429
  70.8203049  28.3415432  46.7750969  51.9941597  41.7630997  72.2651062
  52.1750183  42.1939430  71.4297028  52.7002640  41.1242905  72.3629456
  51.8273659  35.5516815   3.4055684  50.9776268  35.1111565   3.4161398
  51.7826958  36.1401863   2.6519790   8.9833307  17.1229916  31.9984570
   9.6247950  16.9997559  32.6981468   8.1789808  16.7317390  32.3393021
   8.0531101  61.0363998  74.9702377   7.9332118  61.3402481  75.8699799
   8.6694574  60.3077316  75.0436401  10.9031734   2.8062239  86.1613617
  11.4652691   3.5781784  86.0952835  10.3740339   2.9614985  86.9437485
  58.6865082  28.4711399   5.3044581  59.5683975  28.8324718   5.3935800
  58.5126038  28.4931984   4.3634472  12.3423338   8.5368786  41.6822853
  12.2493343   7.8249483  41.0492477  12.7457247   9.2483768  41.1850128
  64.2851181  19.3756065  75.8663330  64.2660980  19.9713116  76.6153336
  63.6495972  18.6943455  76.0859299  37.1505775   2.3461905  71.7504120
  36.3016357   2.6514833  72.0703049  37.1697807   1.4154246  71.9729843
  45.5664024  45.1058121  82.0068741  46.0085526  44.4717712  81.4423141
  46.2176704  45.7920532  82.1523209   2.0346920  29.8117504  23.7126408
   2.7085164  29.3847408  24.2416553   2.4898930  30.5370617  23.2849197
  15.0949793  59.4979973  35.3700256  16.0184689  59.2488174  35.3338432
  15.1073294  60.4367218  35.5567627  82.2406158   3.7960992  22.1170330
  81.2989273   3.9316747  22.0118217  82.3222275   2.8813376  22.3868141
  73.7423553  21.0758190  88.3789673  74.6350784  21.0018921  88.7163315
  73.8152313  20.8384304  87.4545441  63.8715935  52.4527435  21.3587894
  64.4823761  51.8294067  21.7520180  63.3017197  52.7176323  22.0808086
  43.9523239  10.7448664  80.2336578  43.9263954  11.7013836  80.2588425
  44.5455399  10.5025425  80.9447174  12.4028168  60.5563431  57.9700661
  11.8494711  60.0312881  58.5483017  12.9185801  59.9134293  57.4833603
  60.6768684  43.7354622  36.4225121  60.4167137  44.6429596  36.2644081
  60.5059280  43.2893219  35.5930710  65.2710953   1.1052760  57.8931274
  64.6542816   1.0005291  58.6175537  65.2260284   0.2753828  57.4182816
  77.6354904  24.7637634   4.2265248  77.9705582  25.6580944   4.1622400
  77.2957153  24.5718861   3.3524714   8.5533810  71.1796341  46.7877121
   7.9274940  70.5895081  46.3678970   8.2884102  71.1949081  47.7073784
  67.6690903  48.8678703  41.4524803  68.0254517  48.6887665  40.5823288
  66.8680420  48.3456497  41.4953842  83.5902405  26.0301800  13.5995111
  83.9813232  26.0418568  12.7259283  84.3101883  26.2590599  14.1873169
  75.1475067  31.9515247   1.0955988  75.7896729  31.2432308   1.1421610
  74.3013992  31.5055752   1.0573275  64.1794586  18.2224522  29.1036987
  64.9004974  17.6123505  28.9484425  63.8721199  18.4577847  28.2282581
  44.0284195  68.0902176  56.8373260  43.2885208  67.6656265  57.2714958
  44.0021820  68.9948044  57.1491928  33.3424454  33.3557205  -0.0545491
  33.8650703  32.5538025  -0.0586495  33.4237595  33.6900406   0.8386762
  52.4314880  57.4276848  61.2593117  53.2192574  57.5349464  61.7923698
  52.2130775  56.4991341  61.3388443  11.6983099  60.5295486  66.5318527
  11.7500000  61.4774170  66.4089355  12.5292463  60.1982040  66.1912842
  59.4957466  24.0171509  33.2433662  60.0730896  23.4316254  32.7534027
  58.8964729  23.4310589  33.7055397  85.4293060  10.6935816  21.8132954
  84.5401535  11.0477762  21.7994003  85.6998367  10.6894188  20.8951302
  55.8911247  11.6633053  61.8788605  55.7823296  10.9990778  61.1982765
  56.5298424  11.2848053  62.4830208  50.7723618   2.2570512  15.3985367
  50.7698364   2.9584179  14.7471457  51.5638885   1.7543539  15.2061596
  42.0839767  57.1095772   7.5153437  41.9405518  57.4819984   6.6453066
  42.1609840  57.8699608   8.0916395  25.4739361   8.2246456  50.3962326
  25.8340893   9.1111469  50.4214935  25.5061588   7.9270358  51.3054199
  74.8607864  50.8519592  61.9094620  74.6992416  50.0823021  61.3637848
  74.8858414  50.5107613  62.8034363  45.0695267  17.8724613   3.6894917
  45.9152031  17.5839577   3.3462296  44.4325943  17.2863483   3.2808139
  59.3521004  62.9499359  76.2026596  59.3434868  63.7107391  75.6218491
  59.7265320  63.2772141  77.0205383  56.6186523  46.6287231  54.1447296
  56.8608055  47.1291084  53.3654938  57.1545029  45.8370018  54.0970535
   2.4417596  16.7150898  75.1365204   3.1805882  16.1630745  75.3927307
   2.8458853  17.5124722  74.7943268  83.5134277  57.0097923  49.0380363
  83.4721680  56.1032219  48.7336349  84.4480362  57.2162056  49.0497589
  62.6194038  54.7529221  15.7021990  62.5869942  54.2305183  14.9007769
  63.4046516  54.4468689  16.1560116  23.0016193  41.5687523  84.7477036
  22.5118103  40.7502632  84.6677475  23.8961411  41.3380356  84.4970398
  76.6956406  59.8448296  18.2391434  76.0418930  59.1655273  18.4046726
  76.2283173  60.6674690  18.3844357  71.0910873  25.1388226  26.1101933
  70.6529846  25.8387032  25.6259766  70.3769608  24.6022663  26.4542370
  27.0199680  22.1409302  71.0639496  27.6677761  21.4973450  70.7769394
  26.5262299  21.6936626  71.7512665  10.2871733  46.3576622  40.6854782
   9.6140375  45.6850471  40.5819817   9.9509954  46.9286575  41.3762589
  60.8544655  33.9208527  46.1533890  60.7849655  33.1677971  46.7401695
  59.9615097  34.2601738  46.0923882  85.6792831  35.8263092  44.1704597
  85.5118790  35.6891937  43.2380409  85.3173981  35.0488129  44.5956383
  25.6984978  58.4867096  86.6743469  26.4913654  58.9840546  86.8749466
  26.0024605  57.7611008  86.1290665  18.7329998  11.3141165  13.3911524
  18.0564632  11.3990669  12.7193527  19.4483757  11.8700628  13.0822973
  34.5257225   8.2861805  25.1479206  34.8806801   8.0004244  25.9896927
  33.6658287   7.8688378  25.0964928  84.9539871  32.9827881  71.9052734
  85.8932877  32.7991333  71.8905182  84.8734970  33.8511772  71.5107422
  74.7498627   9.3891888  70.2868881  74.3586655   8.5161514  70.3185349
  74.0982895   9.9585857  70.6961212  82.8417206   7.6097298  48.8316956
  83.2318954   6.7860827  48.5391273  81.9020996   7.4304943  48.8667946
  83.4889450  13.6825733  69.4226303  83.8595581  13.6582279  70.3048401
  83.3120041  12.7658014  69.2117920  18.8098202  69.4767990  67.4451447
  18.2193966  70.1386108  67.0851059  18.3358459  68.6515732  67.3422623
  29.0153255  44.2060890  15.4584846  28.3855686  44.5893745  14.8479681
  29.3771725  43.4545479  14.9889297  27.7461777  20.8295708  21.1174469
  27.7570858  20.7658901  22.0724640  26.8480377  20.6066055  20.8727779
  63.5068283  18.3289299  25.3422089  63.4807892  18.0712471  24.4207134
  62.5990028  18.5436745  25.5566063  23.0575943  64.1525345  56.7184715
  22.4434204  64.3236084  56.0044975  23.2206936  65.0127182  57.1053886
  25.9382420  46.6761894  85.1977081  26.6994095  46.8448410  85.7530594
  26.2897644  46.1932869  84.4497375   0.6698154  21.6489010   4.0030146
   0.2518223  20.8834229   4.3974242   1.6006050  21.4270515   3.9776154
  55.4492760  61.9118462  40.7760811  56.3961372  61.9471703  40.9118690
  55.1186256  62.7114754  41.1853447  49.5396614  39.5275536  86.4921188
  50.4262161  39.8279076  86.6922226  49.5870972  38.5744553  86.5668335
  29.9887676  17.6900024  16.2267265  29.8470478  18.3579731  15.5559330
  29.1114197  17.3672619  16.4324780  22.5020161  53.8720322  55.3313942
  22.8274364  54.4993744  54.6858101  21.7067451  54.2762146  55.6784019
  80.9819336  35.4025154  49.0301552  80.3013687  34.7453575  49.1757812
  81.0547256  35.8614502  49.8670006  24.4705448  69.4143372  74.1062241
  25.3732471  69.5070114  73.8016357  24.0442371  70.2301636  73.8437042
  16.5703678  35.4754906  65.7084656  17.0515041  34.6585617  65.8402481
  15.9410820  35.5017815  66.4292603  79.1931534  17.9462948  55.2044411
  79.7467194  17.6309986  55.9188576  78.2991562  17.7760372  55.5011101
   8.3952408   3.1033432  22.9123230   8.2490997   2.9679942  21.9760761
   7.7117906   3.7200050  23.1747284  76.5048904  61.1442719  71.4281082
  75.9273071  61.1243057  70.6650696  75.9180679  61.2968864  72.1687698
  18.2469273  44.4907455  13.3025570  17.7409554  43.8554535  12.7959690
  17.6012802  44.9154778  13.8673344   7.1888337   2.0265157  52.3869476
   7.1421070   2.1241167  51.4358826   6.7189240   2.7869930  52.7291336
  72.8289719  43.0356026  47.0032463  72.4125443  43.8475952  47.2921867
  73.4782181  43.3157921  46.3581085   3.2549148  18.8135109  73.4800873
   3.8507011  18.4560909  72.8216629   2.8118258  19.5359707  73.0351639
  83.8289948  69.4121399  64.9229507  83.4743118  68.9848175  65.7025833
  84.6677094  69.7741470  65.2088699  51.4417152  70.9354401   6.5837555
  50.5525246  71.2470398   6.7525024  52.0060539  71.6492844   6.8806949
  38.3979568  42.4913521  84.1617966  38.4379082  41.6791191  84.6666870
  39.1687126  42.4592628  83.5951004   3.9318552  22.1367378   7.5071750
   4.0145664  23.0822849   7.6309915   3.0054657  22.0014076   7.3078761
  43.9125977   1.2130959  18.5558109  44.1505737   1.7386736  17.7920284
  43.2150040   1.7114413  18.9815426  87.0365372  60.9505424  24.3523483
  87.0090790  60.1946106  24.9389019  86.1422272  61.2917213  24.3593292
  84.9548798  28.5525703  78.6532669  85.2149124  28.1101437  79.4612732
  84.0059586  28.6523438  78.7295380  26.9386654  16.5803566  20.3100796
  27.4005356  16.7717667  21.1263332  26.0239277  16.7910767  20.4973927
  17.5865440  53.1842384   8.4952793  16.7918453  52.6696739   8.3541670
  17.2699928  54.0367012   8.7941666  49.0180016   9.7947865  25.7946758
  48.9094925   8.9013443  26.1205883  48.1523590  10.1917391  25.8912163
  52.9437981  67.9766388  44.9069672  52.2362900  67.6538086  45.4650345
  53.4083519  68.6114578  45.4523392  52.5545197   4.0460086  51.7676888
  52.1678162   4.5166221  52.5060768  51.9657631   3.3057511  51.6206665
  63.3152161  15.2654533  62.9637947  63.5725403  14.7034302  62.2329407
  64.0306396  15.1812563  63.5941200  45.9777107  37.2906303  22.1114388
  45.7490463  38.2199898  22.0962524  45.5729065  36.9574318  22.9122791
  84.1964493  16.3834953  12.2325916  84.5705643  16.9243736  11.5370884
  84.7549286  15.6065302  12.2583952  86.3384552  46.0114479  76.9114456
  86.3730927  46.4940872  77.7373352  87.2558899  45.8808708  76.6716766
  70.8481903  16.1534023   3.1006896  71.3160553  15.3619013   2.8344855
  71.1011276  16.8106155   2.4523635  59.2266235  20.2961121  32.3514252
  58.7705460  19.9032040  31.6072178  60.0350380  20.6476650  31.9784546
   2.3378241  48.2249184  25.4700756   2.7522037  48.1950340  26.3324127
   3.0385051  48.4959030  24.8769093  75.1108017   2.7687221  64.9428177
  74.3736725   2.3942194  64.4605103  75.8843155   2.4884849  64.4535599
  75.6217957  28.0955162  23.1713009  76.4937744  27.8992290  23.5138817
  75.0413055  27.4903908  23.6329098   0.6479329  59.4588776  21.5729771
   0.9675361  59.7048721  20.7048912  -0.0291492  60.1058159  21.7711220
   2.5330181  51.2306519  31.3120365   2.1500106  51.9923515  30.8768940
   2.5286736  51.4585762  32.2416954  74.9150238   1.8640898  14.8346090
  74.9286194   1.3583798  15.6471996  74.4615784   1.2994561  14.2086649
  73.2574844  38.4807777  48.7555275  73.3303375  39.3315773  48.3230209
  72.4596176  38.5463867  49.2802620  57.2353554  54.4765930  11.8365469
  57.2961769  53.8336411  12.5430508  56.5839996  55.1077499  12.1425047
  70.4471970  32.0225754  89.1772766  70.9088593  32.6107826  88.5796890
  70.5290909  31.1584988  88.7736740  22.5724201  61.9613495  60.9597397
  23.1382866  61.5161095  60.3290367  22.9740791  61.7823715  61.8099556
  78.7537842  55.8241005  23.6964626  77.7990112  55.8800774  23.7353687
  79.0565567  56.4112930  24.3891125  22.0635586   2.9989755  73.4611130
  21.7808990   3.5595117  72.7385254  22.0857048   2.1183598  73.0866013
  60.8467369   4.7736449  68.8516388  61.5693359   4.8628969  68.2302551
  60.8527260   3.8478048  69.0945663  79.7031403  17.2416821  60.9108162
  80.2348633  16.9432697  61.6486855  79.9557343  18.1567688  60.7881660
  73.5060806  46.4679146  76.5817947  72.6215897  46.2975273  76.2579651
  73.6048050  47.4180145  76.5202103   4.7361817  17.0207310  53.5879745
   4.7776217  17.1531506  52.6408844   5.4483519  17.5571804  53.9362068
  55.6334229  50.9981880  16.4093132  56.2637711  50.3201523  16.1660881
  54.8314781  50.5173378  16.6140156  54.1266479  58.8978157  13.8607674
  53.3180008  58.4707642  13.5780230  54.2896729  58.5464325  14.7360888
  30.2847061  41.3732910  87.0435944  29.8968334  42.2328300  86.8793411
  30.0101357  40.8401031  86.2975693  65.7492599  44.4681244  25.7963047
  66.2526321  44.5825043  24.9902248  65.7268753  45.3401146  26.1904697
  72.8203201  64.8287048  51.9542542  73.0331421  64.3904343  52.7781868
  72.2384338  64.2181931  51.5015640  46.3021088  48.9158897   1.5078584
  45.5108261  48.6446571   1.9731934  46.0387878  48.9517021   0.5882873
  66.2902832  17.2253628  67.8519592  67.1261902  16.7637997  67.7852631
  66.4075241  17.8283310  68.5860672  41.0068169  44.1184731  62.5413971
  40.3647957  44.6305428  62.0496445  40.8196526  43.2098045  62.3057556
  86.4029465  15.2165842  19.0533924  87.1599884  15.7957602  19.1410446
  85.9191742  15.5663252  18.3051453  70.5718460  36.4464417  43.0557060
  71.0830765  36.5598831  43.8569603  71.1605911  35.9837494  42.4594460
   1.0938197  47.1888428  41.6405640   0.7645649  47.4158669  40.7709198
   1.9710025  47.5706902  41.6717644  57.1504478  67.5166931  30.7464008
  57.3300171  67.6572113  31.6760464  56.2393837  67.2242889  30.7199669
   6.7757339  38.2059708  52.3447723   7.7112303  38.0299797  52.4453011
   6.3465886  37.4181633  52.6785812  19.0465565  33.6897469   9.9393759
  18.1600819  33.3542900  10.0730133  19.5406704  33.3677864  10.6933146
  75.6991730  29.3549023  54.6724586  75.9887466  28.8608913  55.4394875
  76.4284058  29.9434280  54.4773026  79.3738556  66.3147278  21.9248238
  78.7247086  65.6530151  22.1635265  79.4278183  66.2639923  20.9704933
  52.9140587   9.2171240  80.6638641  52.6772346   8.5043945  80.0704346
  52.7604637  10.0133228  80.1552277  64.1987686  18.8850307  73.0731125
  64.1681519  19.2020683  73.9757690  65.0004272  19.2644291  72.7130661
  13.6006527  55.4089241  29.4910469  13.5527353  54.7180557  30.1518326
  13.1122999  56.1388283  29.8718147   5.1474152  30.7109146  74.5326691
   4.9689860  31.6472187  74.4447556   4.4367781  30.3823433  75.0833664
  22.8335171  68.8455811  59.6982193  22.8311348  68.7141647  60.6463547
  22.2710667  68.1495209  59.3585320  85.5996323  19.5533924   4.5624061
  85.6996536  18.6141109   4.7172513  84.8019714  19.7905083   5.0354195
  67.5576706  27.6528034  80.2559738  68.3460007  27.8024940  80.7778625
  67.7498322  26.8610764  79.7535095  48.0439301  10.4310465  16.1091652
  48.3584633  11.1414900  16.6682453  48.7356491   9.7706232  16.1491699
  36.7236938  64.8501968  22.2910709  36.5137138  65.5730515  22.8823586
  36.0074081  64.8443375  21.6561413  36.4369888   5.6266146  17.2373352
  37.1183357   5.3232207  16.6373730  36.0908089   4.8258548  17.6312580
  32.5172272  69.6879578  52.3334885  31.9769650  70.4337845  52.5944366
  32.5319710  69.7258530  51.3771515  73.1134796  61.0830421  31.3654804
  73.9551773  60.8364449  30.9821148  72.5332870  60.3495560  31.1614799
  35.9559288   0.4207654  66.9993668  36.8828697   0.6051223  66.8476257
  35.8213882   0.6168017  67.9265671   1.5218771  33.4959259  11.5154018
   1.1571459  33.9617615  12.2678642   2.3278105  33.0997238  11.8466520
  51.7470894  42.0855675   8.1690760  51.3253174  42.7209740   8.7475204
  51.3640480  42.2541885   7.3082170  52.7682762  65.5790482  72.8869247
  51.8522034  65.4275513  72.6543427  53.1553230  65.9611740  72.0992584
  60.8929443  43.0504456  45.8267822  60.3448944  42.4806023  45.2872009
  61.4213257  43.5408669  45.1970749   8.2505722  34.3747673  71.4069748
   8.9697132  34.5207558  70.7923584   8.6414251  33.8641663  72.1160278
  39.3382568  60.4450798  26.9947815  38.4223747  60.5950089  27.2291298
  39.4168320  59.4931412  26.9326057  79.3820648  62.8817787  73.3520966
  80.1977921  63.3519287  73.1795273  79.4067154  62.6959152  74.2907562
  63.6096573  42.5977402  70.0675888  64.2614059  43.2596703  69.8367004
  63.8003120  41.8611031  69.4868546  34.8504868   5.0442600  71.6061401
  35.6219139   4.7887607  71.1003265  34.6198921   4.2598672  72.1039200
  35.7034416  11.0086765  26.6757240  35.3539047  10.1271029  26.5457897
  34.9434662  11.5834713  26.5847359  30.6329002  46.6147041  67.8654633
  30.6708012  45.6657524  67.7459488  29.9677372  46.7446022  68.5414200
  58.2616997  64.8936462   0.8033955  58.9629784  64.2656021   0.9765911
  57.4612617  64.3689423   0.8180102  47.7992554  48.4352036  37.9843140
  48.0751076  47.5375175  37.7991028  48.5485535  48.9734688  37.7292595
  75.4023666   7.4231229  52.3139267  76.0689926   7.0520654  52.8919907
  74.7014389   6.7712927  52.3072319  82.7365189  43.5166893  55.6890678
  81.7827225  43.5517960  55.7617035  82.9965134  44.4203453  55.5100555
  73.7851105  17.2361469  86.2197952  73.2350388  16.4590073  86.1212692
  74.5631027  16.9220619  86.6805725  15.0272732  55.3663521  47.6430702
  15.9780836  55.4764633  47.6349411  14.7603607  55.6535263  48.5162926
  47.7239494  15.9523659   6.6751842  46.8883133  16.3691349   6.8855295
  48.0226250  15.5819464   7.5057349  55.8277168  62.9986992  85.2836609
  56.0160904  62.0642395  85.3704376  56.4029274  63.2944679  84.5780487
  13.2962589  21.7441082   8.9272518  12.6868582  21.6611176   9.6607199
  14.0308094  21.1765347   9.1607628   7.6307859  18.1702824  25.7467403
   7.2600579  17.7176399  26.5043087   7.8067336  17.4738388  25.1140957
  78.3004837  67.3570633  84.6434860  78.6706696  67.3824539  83.7611313
  77.4136047  67.0182419  84.5214844  76.9474487  29.2932529  38.8275871
  76.4938583  29.2880516  37.9846992  76.4308090  29.8855438  39.3739471
  61.9725876  59.4285011   8.9913034  61.3573952  59.9887924   8.5181761
  62.0316620  58.6349525   8.4593086  63.8937912  39.0385361   2.6387637
  63.5741005  38.8856926   1.7495691  63.3694305  39.7725372   2.9589500
  22.2733822  15.2030001  75.1433182  22.7134418  16.0504093  75.0764160
  22.8353539  14.6862097  75.7206802   9.1928673  14.2070189  67.0155716
   9.5844107  14.0908651  67.8812714   8.3958187  13.6775484  67.0401993
   0.4735649  15.2863770  39.1679039   1.0340264  16.0557632  39.2687073
  -0.3391394  15.5217752  39.6154900  64.5427475  37.4828682  54.9208794
  64.8225708  37.4771347  54.0055122  63.5877113  37.4334908  54.8796921
  28.5494022   1.7697085  77.8264771  29.1308079   1.4285946  77.1468887
  27.8492088   2.2093554  77.3441162   1.9381309   9.5853767  72.1084137
   2.7201912   9.4857416  71.5655594   1.2361560   9.7723637  71.4851151
  64.3500137  31.6445599  81.1884537  63.6786804  32.2831154  80.9480515
  64.8057022  31.4557705  80.3681259   1.5855553  26.7786713   6.2608809
   2.1052086  25.9912872   6.4227991   1.3537030  27.0962830   7.1335773
  70.6654434   2.3045137  81.6218491  71.1784058   1.5074897  81.7554474
  69.7555847   2.0072153  81.6256638  13.7473650  62.8847580  14.5398359
  14.1099873  62.7959518  15.4212275  14.3274174  63.5091057  14.1039867
  14.1620169  50.3661957  37.6500893  14.4295120  49.4486389  37.5974922
  13.2064056  50.3348656  37.6954422  70.6939163  55.1876755  20.4111099
  70.5175018  54.7524261  19.5770397  69.9909668  55.8314285  20.4987221
  73.8587952   1.1044568  68.7645721  73.9255066   0.9679794  69.7096405
  73.0655518   1.6285673  68.6536636  18.4228210  12.2810669  63.9382744
  17.8330212  12.4242697  63.1980972  18.1432171  12.9195309  64.5943375
  73.3042908  11.7546015  45.0648308  73.1142349  10.8186760  45.0003853
  72.5338898  12.1817865  44.6903648  38.6551399  65.2033539  52.6934929
  39.2760620  64.4778824  52.6272621  39.0892296  65.8389587  53.2625275
   5.6775756  11.9219189  45.5900230   4.9402046  12.3316536  45.1376572
   5.8767719  11.1446447  45.0681076  54.3228226  45.9232941  72.3213501
  53.7800903  45.1840553  72.0471191  53.6970787  46.5774498  72.6323929
   0.5924524  28.5764771  40.9407845   1.3661928  28.0660229  41.1795197
   0.9436073  29.3600349  40.5177498  11.7726135  67.3881302  32.3785591
  12.0293779  68.2330246  32.7479591  12.5812597  66.8760834  32.3670006
  59.4471054   7.4821835  63.4705849  59.9025917   7.6600943  62.6477165
  60.0032043   7.8768148  64.1423416  46.7303658  66.3047638  69.5268173
  46.0226860  66.3235779  70.1710739  46.3371010  66.6576920  68.7286835
  78.2319794  45.6520462  13.9169798  77.6387787  45.3121033  13.2470646
  78.1482239  45.0368729  14.6455259  60.8596153  54.6035957  44.0891724
  60.2300262  55.1774597  44.5256691  60.8193054  54.8605385  43.1679878
  78.9657745  28.5084114  28.9103661  79.3204803  28.7604256  28.0577812
  78.8309479  27.5630989  28.8437500  19.2612095  31.8585510   2.4811730
  19.6457214  30.9935036   2.6228607  18.9815426  32.1418457   3.3516684
  10.4985552  64.1190796  35.6921730  10.6876907  64.1771011  36.6287041
  10.1153526  64.9681854  35.4721603   6.8943238  33.8402405  69.0522614
   7.3729715  34.2737427  68.3457184   7.4515038  33.9516602  69.8225632
  66.8037415   6.6113768   5.1774654  66.4719162   7.5074253   5.2342348
  66.0621414   6.1015558   4.8513460  83.8478470  37.9783516  53.3554230
  84.1430588  38.6566238  52.7479401  84.6553802  37.5832787  53.6841278
  19.2685471  64.0748749  34.8052444  18.6533775  64.5042191  35.3997726
  19.8993607  63.6450195  35.3827667  72.7375107   7.3954349  18.8611641
  72.5489731   6.5911818  19.3447590  72.2236557   7.3176136  18.0573387
  52.5477715   3.6971276  82.2168732  52.9766884   4.4504275  82.6228333
  51.7555733   3.5634215  82.7372360   2.1456118  29.3110619  80.1689529
   1.8427655  28.9562626  81.0047913   3.0241632  29.6429958  80.3538818
   6.8367567  48.6270790  70.1275864   7.7024932  48.7918129  70.5012131
   6.2889576  48.4060097  70.8807602  68.1954346  34.9396248  83.2904053
  67.6120605  34.2965240  83.6933060  68.9784622  34.9306831  83.8408813
  63.5791283  67.6988068   6.2046132  62.9227295  67.1041183   6.5675411
  63.7549820  68.3209763   6.9104548  33.2642746  62.2043266  16.7573242
  34.1046829  62.0510521  17.1891251  32.7589645  62.7139053  17.3907452
  65.6821671  47.3577652  10.2229090  64.8361664  46.9884720   9.9696741
  66.1891174  46.6063309  10.5304394  47.7221069   8.5183382  78.4669189
  46.7679672   8.4546547  78.4245987  48.0283203   8.0442400  77.6938095
  69.9981461  42.4593735  86.7440262  70.7806702  42.5060463  87.2933044
  70.3261642  42.2077370  85.8807144  60.3522110  55.0253067  41.3313522
  60.6779060  55.8399200  40.9485283  59.4300919  54.9928474  41.0766373
  58.4445152  68.1884613  50.9755669  58.8170395  67.3141479  51.0897522
  57.7415428  68.2357788  51.6235046  71.7542267  32.1794701  58.2230301
  71.4992142  32.6117401  57.4079552  71.1110001  31.4793854  58.3342628
  57.5884972  35.7632599  55.0967331  57.2130318  34.9496918  55.4334297
  56.9625473  36.4402924  55.3537292  25.1322231   5.4383693   0.6813032
  25.0897923   5.1455855  -0.2290314  24.3983498   4.9972873   1.1092132
  77.4189758  15.0641165  40.4963722  77.6916656  15.9641905  40.6745186
  78.2370987  14.5925093  40.3398857  39.5250816  49.6322479  78.6597214
  39.7488251  49.9104729  77.7715988  38.5692825  49.5804787  78.6608505
  77.1006165  12.0520849  34.4766541  77.4740906  12.1478643  33.6005402
  76.8936920  12.9464235  34.7478981   5.8435316  10.0834827  56.8987694
   5.2592793  10.6009560  57.4529343   5.2562943   9.5395718  56.3738441
  28.1110744  38.9270668   0.5408783  27.2215729  39.1398354   0.2584767
  28.0585442  38.8979149   1.4961911  70.4068909  39.3328247  38.8006630
  69.9961624  39.5095749  39.6470032  70.4738007  40.1914597  38.3829308
  42.1921158   5.0713711  74.1750641  42.3909378   5.9845037  73.9679642
  42.9513588   4.7678533  74.6727142  57.6028862  18.4221115  72.0006561
  58.4087524  18.7931767  71.6413193  57.6635284  17.4863815  71.8083878
  68.9438095  58.3369102  30.1275806  68.7530746  58.9240265  29.3960438
  68.4992828  57.5199699  29.9012165  72.2317886  18.8239594  76.8630219
  71.5207367  19.3349686  77.2496796  72.8866196  18.7604160  77.5582809
  13.4857121  43.5022736  17.8301449  13.1355257  42.7240562  17.3965759
  13.1459560  44.2355385  17.3171921   7.1725454  14.3439093  46.1246605
   7.7852440  13.8816490  46.6966286   6.6351714  13.6515150  45.7398872
   1.2909892  54.5355415   1.1241288   2.2127659  54.3887825   0.9119459
   1.1446810  54.0262451   1.9212745  78.2273941  26.7521019  67.1674194
  77.5676041  27.2615261  67.6379547  78.1806183  27.0732365  66.2669144
  46.8390465  68.7181625  79.1250229  46.3497124  68.0159912  79.5536652
  47.7564392  68.4601822  79.2148514  57.5100327  33.9152870  57.4241257
  57.1650963  33.4111290  56.6871872  58.4359627  34.0404167  57.2162170
  40.8498611  23.9692745  75.7372208  41.3829079  24.0731697  76.5254517
  40.4585304  24.8315544  75.5973511  13.4443560  23.2418327  12.6236610
  13.1868353  23.7369804  11.8460083  12.6599331  23.2322483  13.1721315
  36.3429184   3.8178873  56.5677452  37.2854500   3.7541687  56.7220230
  36.1687279   3.1749427  55.8803520   4.9820795  34.0151863  59.3400688
   4.3850069  34.7630501  59.3609200   5.3323464  34.0131149  58.4492607
  26.6572933  63.0210838   0.6937230  27.2232285  63.0391693  -0.0780419
  25.8568516  62.5903587   0.3937254  61.4912071  69.8470154  73.6777344
  62.4342346  69.9586182  73.7980728  61.1337585  70.7317505  73.7532654
  34.3390465  60.6722069  22.3286781  34.5407562  60.1168098  21.5756340
  33.6398506  60.2075653  22.7885284  76.1346283   3.7729082  86.2045441
  76.7261887   3.8327844  86.9546814  76.6805725   3.9958932  85.4505844
  56.3227844  52.0765076  19.3592377  56.2060776  52.3074188  18.4376678
  57.1950111  51.6842728  19.3992748  67.8996887  55.8496628  51.6140862
  68.2092285  56.7301788  51.4016991  68.2165146  55.3042488  50.8941002
  25.3733139  23.4579258  24.4045753  24.4659214  23.4689426  24.1000252
  25.5258217  24.3432484  24.7349968   6.6541023  56.9160004  45.4757118
   6.2460108  57.0404282  46.3325729   6.2100320  57.5436249  44.9055214
  35.1510696   1.1453246  34.3859406  34.3242531   0.6869843  34.2358398
  34.8944359   2.0500791  34.5642395  72.1012268   2.4632363  30.6152992
  71.4958649   1.7482337  30.4189949  71.7803345   2.8292909  31.4394741
  83.7384338   6.5574198  36.1206703  83.6739807   7.4762192  36.3812180
  82.9185028   6.1652412  36.4209061  62.8306694  37.7283821   0.2913643
  62.7060509  37.8478737  -0.6501364  63.3641777  36.9369583   0.3638091
  19.2098198  25.0085869   1.8138825  19.9714394  24.7078285   2.3095767
  19.5590858  25.2344170   0.9517646  41.6054764  10.1162691  77.6939316
  41.9729156  10.7401485  77.0678329  41.6310959  10.5759125  78.5331573
  68.5752563  60.8245316  52.8432236  67.9665146  60.9528160  53.5706863
  69.1441345  61.5939331  52.8684273  11.7403812  40.8692818  51.1239853
  11.0293427  40.2966805  51.4117088  11.7939243  40.7282181  50.1787529
  45.0361290  55.1460800  81.7566833  45.3953896  55.4222374  82.5998306
  45.3057556  54.2318039  81.6693420  10.4617176  36.1349335  89.0976181
  10.3067465  36.5583611  88.2532654  10.5483246  36.8597870  89.7167435
   2.3127067  32.1025658   2.0340536   2.2845879  31.6248913   1.2050376
   2.6537662  32.9661636   1.8014309  32.1296844   9.3313093  28.3933392
  32.1983719  10.1430216  28.8959675  32.6017761   9.5122175  27.5805454
  12.6512394   7.5021048  24.6118107  13.0503798   8.0699825  25.2709255
  11.8762903   7.1422486  25.0433083   1.5847855  57.8262520  88.2106323
   2.0240211  58.6745110  88.2719269   2.2209508  57.2014198  88.5586472
  34.7495880  68.2554932  34.5127602  34.5442963  67.4768219  33.9952965
  35.7056999  68.3008881  34.5081825  44.3894997  60.4685860  21.8259735
  44.9266701  59.8058472  22.2600861  43.9980621  60.9670868  22.5432625
  64.7872086  10.3862896  64.5410995  64.9070053  10.4631691  65.4876556
  65.2671890   9.5932312  64.3025589  86.5746078  43.0556412  78.8319931
  85.9110870  43.5963516  79.2604904  87.3617096  43.1766396  79.3630905
  67.1363449   0.9135823  53.3167953  67.7392502   1.6185898  53.5528145
  67.5687256   0.1162475  53.6226349  11.3795166  22.1314888  16.3897896
  11.5233459  23.0724907  16.4900990  12.1778765  21.8105278  15.9704618
  83.1632309  17.4448280  47.5775146  83.2763596  16.6110458  48.0338478
  82.4251328  17.8625431  48.0213127  50.7742996  58.0629158  32.6771889
  50.4371262  57.1926231  32.4647446  49.9958191  58.5738182  32.8989372
  35.5252838  32.7294960  83.5272903  34.8959427  33.3806458  83.2171860
  35.0204086  31.9185810  83.5884781  58.9113121  28.6888885  53.4414635
  58.5280571  27.8198242  53.5601006  59.6043549  28.5586967  52.7941818
  56.7636604  58.2847862  63.3713188  57.4356537  57.7038269  63.0147552
  56.9100342  59.1205978  62.9283447  54.3233566  48.6514015  58.6707535
  54.5183601  48.4771996  59.5915489  53.4100990  48.3850098  58.5647812
  38.7318192  60.3105659   1.7761329  39.0786858  61.1226006   2.1456079
  38.6495476  59.7219734   2.5264809  49.2769470  27.4909573  75.0041809
  50.0795670  28.0023956  75.1064835  48.6981697  28.0538425  74.4899673
  21.5634995  47.8397942  84.3354797  22.4959297  48.0339432  84.2400131
  21.1719456  48.1352692  83.5135269  20.8657570  68.2882919  22.4594803
  20.7389145  67.4222412  22.0720615  19.9919472  68.5519943  22.7478371
  15.4837437  12.1089506  77.1989059  15.1771431  11.8574829  76.3277054
  15.6716022  13.0446882  77.1258469  27.6696262  15.8361626  86.9696884
  26.9153805  16.3297997  87.2916641  27.4100056  15.5452318  86.0955048
  23.8831844  69.2751923  31.6708412  24.0463409  68.4866714  31.1533012
  23.7692547  68.9550400  32.5656891  35.4488525  29.4530087  21.0956440
  36.2944183  29.6573009  20.6962509  35.2957268  30.1692905  21.7118626
   2.9602499  41.4680710  84.5384064   3.8118660  41.2127953  84.1836929
   2.9582748  42.4241409  84.4919434  63.0895691  47.7348366   0.1777985
  63.2520485  47.0278854  -0.4467424  62.2389755  47.5236435   0.5626602
  85.9632797  45.7061844  33.3282318  86.5715408  45.9779129  34.0155563
  85.7144089  46.5213852  32.8926392  60.0825386  53.9209862  16.5963478
  60.4741974  53.0545349  16.7063274  60.8251228  54.4990234  16.4212055
  83.7129135  45.8972435  74.5761337  84.1265335  45.0538864  74.3920135
  83.8095474  46.0100327  75.5217438  64.7474213  37.7896233  26.8485889
  64.9149017  37.5532913  25.9362679  63.7964249  37.8851891  26.9005451
  84.9888306  49.1133919  70.4277267  85.3737259  49.9770775  70.5765076
  84.5501480  48.9015121  71.2516785   2.5142858  44.3784828  84.4232712
   2.8147037  44.8746567  83.6618271   3.0366354  44.7164764  85.1506882
  25.5726337  41.3739433  85.3242264  26.2187443  40.9737511  84.7423172
  26.0898647  41.9169960  85.9190369  46.9532356   7.8722091  81.2099991
  47.2313385   8.0171957  80.3056335  47.2566376   6.9878182  81.4150162
  70.5064926   4.7198143  10.8177681  69.7622757   5.3215947  10.8330727
  70.1119080   3.8494635  10.8727446  38.8230400  50.5565109  65.8315277
  38.7523575  49.6191940  65.6507721  38.6300201  50.9772339  64.9936981
  59.4115257  58.6108360  64.5528030  58.8950958  57.9905510  65.0673676
  58.7624168  59.1919250  64.1562805  41.9496384  41.3849564   1.0622358
  41.9359093  41.4733810   0.1092277  41.2325935  40.7815552   1.2571419
  72.5896378  16.0980682  20.8028660  73.5005722  16.3902988  20.7708721
  72.3609695  15.9263334  19.8893833  85.1071777   0.9499925  62.9861145
  85.4253845   1.4735122  63.7215767  84.2171173   1.2673984  62.8335495
   1.8810642   2.1265459  47.7542000   2.1219635   1.2147036  47.5906677
   2.3541129   2.6227491  47.0861893  51.6414871  61.0120621  43.5405502
  51.7079353  61.9373131  43.7766228  51.6815453  60.5480423  44.3768005
  51.6282654  21.7268963  84.8660355  51.9102325  20.8229580  85.0061035
  52.0929489  22.0030651  84.0760803  83.6747665  53.0230103  15.8659296
  83.5684128  53.6952171  16.5390282  84.3531265  53.3696327  15.2863483
  64.7747803  54.1417465  40.3949013  64.2864380  54.4240685  41.1682396
  64.4714432  54.7206497  39.6955528  86.4885941  64.5239716   3.0379212
  85.7695389  64.4301224   3.6627288  86.5975647  63.6491661   2.6650012
  60.0331535  64.7919159  44.1839294  60.3604507  64.0197830  44.6453514
  59.7856674  64.4666748  43.3183632  51.1895447  44.3364182  53.4219246
  51.3742905  43.5867882  52.8561020  51.5775909  44.1016426  54.2648544
  79.6461563  59.4051743  32.8115425  79.4354477  58.9615288  33.6331329
  80.5819168  59.5961533  32.8756142  21.0909367  53.8041878  51.0195656
  21.9965191  53.4944839  51.0042343  20.5646973  53.0105019  50.9227753
  70.2120132  24.4723568  12.8448801  69.8987656  24.3758202  11.9455547
  69.8117218  25.2858238  13.1519136  83.5299530  14.3605967  72.6444702
  83.7262192  14.2716255  73.5771027  82.6877213  14.8147326  72.6192093
  24.7408009  60.3026123  70.3344421  24.0598145  59.8487244  69.8379822
  25.5588169  60.0461655  69.9086380  77.2898712  28.8489666  77.2594833
  76.6161652  28.1703320  77.3019638  77.8075027  28.6245098  76.4862366
  74.8186569  29.1794205  20.8581772  74.9636307  28.5989075  21.6053162
  73.8807526  29.3692989  20.8808479  63.5572281  18.5099583  65.8199463
  63.6382446  17.6570606  66.2468338  62.8813629  18.9656906  66.3216934
  51.9503136  62.2735100  83.9303970  52.4813957  63.0007401  83.6058731
  51.3131981  62.6843262  84.5148163   8.5725288  52.3174934  73.5416336
   8.7137375  53.1282921  74.0304031   7.6456666  52.1173363  73.6723862
  80.0252686   5.4690065  87.8466721  80.3023987   5.7054219  86.9614944
  80.4004669   6.1499734  88.4050140  45.9675865  41.5801315  76.2817078
  45.2081604  41.2129707  75.8292694  45.6951561  41.6396790  77.1973801
  13.1457586  39.3831787  79.7849503  12.5284910  39.2006340  79.0765152
  13.0903101  40.3301697  79.9128647  32.9450188  52.7893600  15.2421074
  33.2974930  52.2405624  15.9426908  32.9915428  53.6801720  15.5892687
  60.4259262  10.2493391  35.4317322  59.9009438   9.5294008  35.7814674
  61.3134613   9.8948030  35.3786469  26.4976616  55.7308960  85.5163727
  25.9181919  55.1772804  84.9929657  26.5540867  55.2863007  86.3621750
  22.9500942  22.9806461  85.2029877  23.6100063  23.1892700  84.5417557
  22.1970634  22.6701679  84.7002106  16.3900719   9.1520061  47.3051338
  17.3158417   8.9134560  47.3528404  15.9296532   8.4012556  47.6801262
   2.3863785  65.0643463  23.3820210   3.0481396  65.2933197  22.7294292
   1.9434297  64.2989883  23.0156193  11.6334887  26.3308620  85.8997269
  12.1910648  27.0559635  85.6176453  11.4102211  26.5392761  86.8068924
  63.1535149  70.8792725   4.4943624  63.8080482  71.1986542   5.1155028
  63.3930473  69.9649734   4.3429770  70.4918213  41.3468246  10.9174528
  69.7347031  41.8832016  11.1526384  71.1669159  41.9796867  10.6725969
  25.6697865  67.7419815  26.3306847  25.8955708  67.0639114  25.6939144
  24.7282066  67.6377869  26.4678116  61.8721619   4.8732867  62.8680916
  60.9155235   4.8796492  62.8359680  62.1419754   5.2984142  62.0540276
  76.0635757  68.3778229  61.6631393  75.9152908  67.8557587  62.4516144
  75.7560120  69.2541656  61.8947792  69.2985764  58.4589386  51.5124397
  69.0352554  59.0297356  50.7905769  68.9745026  58.9005241  52.2974281
  19.5137367  19.4385643  64.5604477  19.8075047  19.9414120  65.3200989
  18.5906658  19.6716785  64.4613037  83.9317551  57.4114609  12.7035961
  84.8639374  57.1946106  12.6879816  83.6819534  57.3286095  13.6239052
  53.7920799   6.3190465  82.5392151  54.2927971   6.5152268  83.3310623
  53.0753784   6.9534988  82.5457077  17.2506580   4.6576786  20.7867184
  16.7822018   3.9281044  20.3811283  16.5614929   5.2057390  21.1621037
  66.4989014  67.3637009  58.9637260  67.3144150  67.7872238  59.2316742
  66.7800064  66.5982971  58.4623604   7.8912411  14.8765860   9.9560509
   7.8609920  15.7963209  10.2194996   8.4449539  14.8691683   9.1752949
  74.5117874  59.8874741   1.7264903  74.4815750  59.1429596   2.3273349
  73.9129181  59.6487274   1.0189738  86.4323654  52.4578857  50.8970947
  85.6126633  52.9520187  50.8847466  86.8719177  52.7027397  50.0828018
  11.3461885  12.0932980  78.9241943  11.6965237  12.7462187  79.5301590
  11.5057125  12.4626493  78.0556564  26.6164494  20.5905075   2.2202721
  27.4232502  20.9170551   1.8219347  26.7555962  20.6930828   3.1617329
  74.7082977  18.1697140   0.4980432  74.0390778  17.5192699   0.2852016
  75.1590424  17.8086433   1.2613835  33.9703598  34.6721153  18.0146580
  34.2948647  33.7790604  17.8989677  34.4678917  35.1914444  17.3830013
  61.7518730  38.6548996  32.7726212  61.3255844  37.8364792  33.0269623
  62.5340271  38.6985703  33.3226738  19.1274185  49.4815636  46.2282219
  18.3230000  49.4628792  46.7466736  19.1982079  48.5991783  45.8640518
  53.4526939  43.6424599   3.7610493  53.5635719  42.8268814   3.2724097
  52.6183777  43.5363121   4.2180848  75.9944077  61.3117065  10.0103531
  76.4910583  60.9491959   9.2767630  76.1978607  60.7341156  10.7460346
  46.9913635  41.5660019  16.5721989  47.0688324  41.0191040  17.3539467
  47.1447945  42.4568558  16.8869553  74.3269348   3.0119324  32.5529442
  74.4147186   2.0617702  32.6285553  73.5564728   3.1379626  31.9991074
  73.6656265   9.4066629  58.4249001  73.9558716  10.1760693  58.9147987
  72.7204056   9.3717375  58.5717850  14.4249058  47.8154564  36.9276276
  15.2010717  47.4958839  37.3877068  13.9491301  47.0223198  36.6810455
  70.2160568  40.0811958   2.0723140  70.6306534  40.8413315   2.4803963
  69.4309464  39.9259186   2.5973985  50.3461342  15.0929079  80.3249893
  49.4557571  15.3571644  80.0934067  50.5747986  15.6486912  81.0700073
  38.4525795   2.1467431  51.5754814  38.1836014   1.7987250  50.7253265
  39.1442108   1.5537213  51.8690872  11.9670391  30.2932606  10.2644444
  11.2924786  29.9145145   9.7007494  11.4900370  30.8903866  10.8407612
  20.4363537  62.7491455  73.9018707  21.0443134  63.4739304  74.0478363
  19.6199131  63.1714516  73.6348267  19.5244484  60.8895950  37.2832184
  20.0452614  60.3757896  37.9004593  18.8438110  61.2930298  37.8219223
  57.4178963   5.9498491  65.1156616  58.1585579   6.3557320  65.5661163
  57.2506180   6.5216913  64.3665009  59.2335014  32.9885178   3.1043029
  58.6082458  32.9412956   2.3810751  58.7009277  32.8640137   3.8898571
  68.3199539  33.7333145  32.3017616  68.7608566  34.3646278  32.8703423
  68.2897873  34.1616898  31.4462986  42.7247887  16.6883793  15.8814335
  42.6008987  16.1225624  16.6434937  42.5227699  17.5678482  16.2007389
   8.6830435  66.1547775  22.8026657   9.1263790  66.9756012  23.0169659
   7.9307747  66.4199295  22.2735004  17.9077110  40.3501244  66.2572556
  17.7274113  39.4431114  66.0101624  18.8464737  40.4579010  66.1044769
  21.5408401  11.4458599  67.5097885  21.6162243  11.0938425  68.3967133
  22.0417843  12.2611990  67.5323257   2.5775149  21.0767136  51.4682045
   2.0197585  21.7922115  51.7734947   1.9943432  20.5233917  50.9486122
  66.0314407  41.3924446  20.3879242  65.1704407  41.6389999  20.7257500
  66.2708893  42.1071625  19.7979431  45.1209145  47.2011719  52.8772888
  44.3197289  46.8105545  53.2262230  45.4461784  47.7549667  53.5870438
   9.4464178   3.4961858  33.1486320   9.2437992   2.5887680  33.3761635
   8.9124708   4.0182204  33.7474747  37.7654114  45.0428734  84.4255905
  37.8070030  44.0867805  84.4059296  38.3465996  45.3224945  83.7182999
  70.0656204  30.1281223  48.7423592  70.4483414  30.6254711  48.0195847
  70.2856522  29.2168427  48.5489998  63.3473587  41.0153351  66.5954208
  64.2175293  41.4081955  66.6639175  62.7522125  41.7619095  66.5271225
  31.8680344  54.0517769  34.1444435  31.4222221  54.8339920  34.4694405
  32.2966728  53.6822433  34.9164200  33.6508102  56.0574188   8.6797419
  34.1269188  56.8776016   8.5499086  33.6876068  55.9060402   9.6241789
  84.8868561  42.2329407  17.5280151  84.5793457  42.9738770  18.0502014
  85.2518921  42.6317177  16.7381058  18.9903564  49.4486237  62.2392464
  19.0851650  50.2026405  62.8212280  18.0753613  49.4755783  61.9594498
  18.8233109  11.7898245  44.6475410  18.8732681  12.7420034  44.7317505
  17.8854465  11.6010780  44.6156349  43.7711067  26.6808720  76.4651566
  44.4527740  27.3074799  76.7079086  43.5006180  26.9494076  75.5871201
  29.1258430  20.6814022  73.2247086  30.0295315  20.4981365  73.4815979
  29.1625652  20.7798195  72.2732925  20.5250645  20.7392063  66.6938705
  21.3687363  20.3028316  66.8123016  20.4177780  21.2711658  67.4823761
  36.4859543  24.9599285  15.7751017  36.5793076  25.4213829  16.6085148
  35.6211433  25.2164192  15.4548674  86.8624878   5.9213338  24.3156300
  86.6202850   6.8375945  24.1813240  86.2264404   5.4271812  23.7984352
   2.9505205  67.0191498  34.3577538   3.5712101  66.7843857  33.6679230
   2.1205938  67.1494980  33.8989906  43.9265900  51.0502701  12.9872370
  44.0637169  51.2854309  12.0695610  43.6812897  51.8726730  13.4111567
  21.2537098  56.8942833   6.8993144  22.0855122  57.1564293   6.5048342
  20.8989620  56.2398491   6.2975683  74.9468613  60.3567543  57.3830986
  75.6762085  60.8674889  57.0317574  74.1870193  60.6450691  56.8773842
  73.4775314  70.4351044  56.1037178  74.0306931  69.9772949  56.7366943
  73.6340714  71.3635254  56.2762108  79.2249908  34.9659119  64.3479462
  80.1135635  34.6643829  64.1588593  78.7568817  34.8666496  63.5189362
  67.9787979  68.5772247  51.2402611  67.2730713  68.9191208  51.7891579
  68.7806473  68.8931580  51.6567497  41.2479439  43.9693336   9.9688969
  42.0657692  43.6344757  10.3366737  41.5188217  44.6877441   9.3972797
  42.9416237  58.9650841  45.8125725  42.1195869  59.4229088  45.9883194
  43.3543777  59.4734497  45.1144066  50.9860878  42.3802338  27.9737377
  50.4718170  41.5759773  27.9035053  50.3453751  43.0839424  27.8712006
  84.0126648  50.1499138   1.3066527  83.1507797  50.0368080   0.9059110
  84.6300659  50.0269775   0.5855863  57.6037483  41.7992706  76.2263489
  57.5994530  42.7478180  76.0980148  57.4033852  41.4397430  75.3621597
  57.9620171  25.6120663   0.7835960  58.8334465  25.5979652   0.3878148
  57.6396942  24.7161674   0.6850855  66.6175308  48.8205185  45.0477028
  67.2539825  48.5099678  45.6916847  66.7543030  49.7672615  45.0130768
  58.5339775   4.8590212  70.8020782  57.8080101   5.4385095  70.5709991
  59.1438942   4.9348745  70.0682602  10.5769634  23.8286743   2.0680964
  10.3877649  24.3252907   1.2719754  11.0100517  23.0336742   1.7572275
  33.1591072  45.2038956  34.1515465  32.7220078  46.0549927  34.1231041
  33.1286125  44.8886757  33.2482529  23.6444778  62.5994034  25.1000557
  23.6514702  61.9050522  25.7588882  23.2734623  63.3562508  25.5536633
  46.5420380  11.2252560  77.3106461  46.8877144  12.0423613  77.6699219
  45.7166557  11.0892792  77.7759247   2.0795879  43.1530991  80.8498154
   1.3524889  43.0242004  81.4588699   2.5711098  42.3325539  80.8865280
  64.7606735  44.4947014  17.6355438  65.5212936  43.9199638  17.5497074
  64.8824463  44.9286346  18.4799995  76.6433411  61.4609489   1.7369856
  77.1217804  60.8289642   2.2735736  75.8495407  60.9969063   1.4709592
  78.8807297  46.7055702  31.8034248  78.7706833  46.6704597  32.7536316
  78.5887451  45.8471680  31.4966202  84.1974869  70.1628189  52.0268555
  83.5570908  70.1826172  51.3157005  85.0180893  69.9109802  51.6032715
  17.6775856  63.4908180  27.5936890  17.2995644  64.2894516  27.2255688
  17.3794708  63.4818878  28.5032368  17.2130375  60.1386223  82.5192871
  17.1785126  59.1852684  82.5977478  17.9189320  60.3020554  81.8937988
   9.1243896  13.9283571  21.3236427   8.4259081  14.2246122  20.7400417
   8.7502575  14.0019503  22.2016182  52.5014267  57.1832924  12.2209539
  52.5733147  57.9389343  11.6378021  52.0361137  56.5254364  11.7042885
  63.7635269  69.5062561  17.2551174  63.7717819  68.7821350  17.8810616
  62.8480492  69.5791626  16.9852715   8.9120731  39.4770203  63.9006042
   9.7592411  39.4301224  63.4575043   8.9365139  40.3069534  64.3768921
  83.3507996  32.1308212  78.9423141  83.5016251  32.0322037  78.0022354
  82.4215927  31.9322567  79.0579376  37.7932587  68.5490646   1.3269386
  37.0882683  68.2492599   1.9008182  37.4926414  68.3316422   0.4445628
  76.2376709  63.4258499  88.6404724  75.5344009  62.9471207  89.0791855
  75.9492950  64.3385086  88.6515350  68.5539017  53.1093941  11.1469622
  67.7842331  52.6859055  11.5270977  68.4942703  52.9188156  10.2108231
  45.5032921  56.2198715   5.4218168  45.2395172  56.9087410   6.0318255
  46.3694153  55.9490623   5.7263288  65.2107239  12.0136995  34.3382950
  65.7141953  12.6108532  34.8916130  65.8687820  11.4439468  33.9400787
   0.0571467  16.5390911  54.6058846   0.4694440  17.0428677  53.9041367
   0.7776875  16.0532417  55.0071373  82.3343658  56.0630226  29.3831978
  82.4903183  56.5225906  30.2082481  82.6874084  55.1851044  29.5276146
  39.7688828  11.8602753  28.7487049  39.5727272  12.3743296  27.9654408
  38.9157486  11.7081337  29.1552086  22.1851292   3.1951950   4.9235735
  22.0868969   3.8441911   5.6202703  22.6995468   3.6417103   4.2510924
  75.2678146   9.8662167   5.3229771  76.1943741   9.8674049   5.0827308
  74.8943100   9.1335468   4.8331547  33.9182930  19.7442245  78.9635468
  34.3009453  19.8510571  78.0926895  34.6597214  19.5170517  79.5247116
  51.9092674  11.1107941  56.1581459  52.7681808  11.1334991  55.7362595
  51.9944801  10.4435444  56.8391380  47.8109474   0.9624612  35.8393135
  48.5384178   1.5774230  35.7452812  47.9547234   0.5497937  36.6909370
  10.4610415  48.1030807  46.3087959  10.8446894  47.8662338  47.1531563
  10.3057442  49.0454712  46.3721848  23.2352314  27.7388420  75.6565857
  23.4371662  27.0240211  76.2603149  23.7712955  27.5587368  74.8843002
  56.2426491  11.1840029  57.1326599  55.3992805  11.6255875  57.2324982
  56.2484131  10.5199690  57.8220520   2.0107667  46.4110146   4.0026569
   2.7513807  45.8222237   3.8575819   1.4630468  45.9541512   4.6410208
  63.9090347  61.8639526  67.1553879  64.1229935  60.9466476  67.3257141
  63.4956131  62.1675148  67.9635696  56.2886963  26.8850460  81.4794083
  55.7194099  26.1783733  81.1748505  57.1207619  26.4545364  81.6757736
  14.3446484   3.3379521  56.1985588  14.9248457   2.7069490  55.7726021
  14.8514099   4.1495805  56.2247162  42.9741325  38.7383423   3.8764026
  43.9099960  38.7759514   4.0738277  42.9267731  38.8208313   2.9239404
  29.4733162  56.5566597  26.1110706  29.2945232  57.4537697  25.8291893
  30.1050110  56.2262878  25.4722843  46.7367020  12.1808119  87.4846115
  47.5703239  11.7104092  87.4792480  46.3402672  11.9560423  88.3263702
  43.5468102  65.8240051   1.8367741  43.7316589  66.7332764   1.6016636
  42.6064301  65.7246475   1.6883010   5.2552829   3.2023058   7.4751239
   4.8479042   3.9820383   7.0979085   5.5257106   2.6831739   6.7177582
  84.2711945   0.5671124  58.6746445  83.6192169  -0.1145020  58.5116577
  85.0876465   0.2047739  58.3306274  32.4580536  30.5443192  15.3584213
  32.1304626  29.7255630  15.7306471  32.8399467  30.2896652  14.5184574
  67.9402084  32.8230171   0.9310812  68.8274002  32.5391846   0.7107022
  67.5470276  33.0549965   0.0897581  61.1048737  54.0754013  34.1026421
  60.1693611  53.9361191  34.2497940  61.1597900  54.4048462  33.2056046
  86.2806244  49.9203262  50.0429306  86.2891388  50.8124084  50.3898430
  86.5462646  49.3733253  50.7821579  66.3304520  70.0977707  43.2087326
  66.7697830  69.7321091  43.9765282  65.4329529  69.7702866  43.2677193
  44.0847168  70.5459976  20.2347088  43.5452805  71.3358688  20.2714100
  44.8208618  70.7313995  20.8177567  85.9973602  30.8913860  76.0389175
  85.8415756  30.1365929  76.6065903  86.8290253  31.2534351  76.3446808
  17.9067116  39.2094345   0.3358097  18.6686153  38.6301994   0.3507309
  17.2125378  38.7030067   0.7575732  69.4086990  37.6091995  37.1739883
  68.6305847  37.4180832  37.6976662  69.7935791  38.3807640  37.5896645
   0.1545922  71.3015747  58.2038498  -0.3385618  70.4973755  58.0417061
   1.0603447  71.0101547  58.3083496  81.1854858  33.4532928  31.5074902
  80.8696518  33.7448349  32.3627548  80.6540451  32.6831779  31.3056927
  18.2683163  22.3291969   1.8756247  17.9790916  23.2300472   1.7305298
  19.2046261  22.3433609   1.6772450  14.8058987  71.7908173  68.4966965
  15.1731625  71.4461594  69.3106766  14.3574028  71.0434952  68.1009674
  24.8973503   4.3450174  83.3595123  24.1093578   3.8054900  83.4244003
  25.0595303   4.4199815  82.4191360  24.7605190  55.3254700  13.1807451
  24.0074196  54.8318100  12.8561306  24.4472523  55.7387390  13.9852972
  18.5729961  64.9440536   7.3496413  18.9756317  64.4471588   6.6374512
  18.8188171  65.8527985   7.1764936  32.4978447  12.7964859   8.2094288
  31.7695370  12.7328835   7.5915675  32.1349678  13.2671585   8.9597759
  77.1386642  70.7784424  77.3965759  77.9279175  71.3089600  77.2876587
  77.1853104  70.4621353  78.2988052  77.2330933  15.0406256  52.0517311
  77.1591263  14.3625488  51.3801880  77.3034592  15.8585434  51.5595016
  13.3194275  70.2538452  15.0618267  13.1855307  69.9399033  14.1675434
  13.0681696  69.5144653  15.6153746  74.2284317  15.7371292   7.9265304
  74.9816284  15.9126997   8.4905386  74.4500656  14.9210138   7.4781246
  26.1446037  26.2728233  11.7066593  25.7703400  25.3942356  11.6415281
  25.4173489  26.8590546  11.4976969  54.5669250   5.7866216  74.9440231
  54.3026352   5.0468149  75.4908981  54.9812469   6.3983555  75.5525894
   0.4781496   5.1055150  84.3451233  -0.4564020   5.2580233  84.2051697
   0.7957504   5.9152246  84.7447891  40.0241013  20.9455166  85.1368484
  39.6337776  21.6312485  85.6787415  40.4842262  21.4201527  84.4445801
  45.6479263  65.5458755  18.8697910  45.6482010  65.0280609  19.6748390
  46.4645767  65.3071976  18.4312153  43.7472420  52.6952171  28.7691574
  44.6413460  52.4401703  28.9966564  43.4438667  52.0047836  28.1796703
  79.1629105  24.3805466  31.3819542  78.3816986  24.8899441  31.5974903
  78.8896866  23.4687443  31.4829388  24.2401638  54.4605522  25.5336437
  24.8093014  53.8993111  25.0070267  24.0835972  55.2273712  24.9825478
  85.8674240  68.3350754  37.2460365  85.0852737  68.8181992  37.5126190
  85.5304794  67.5186234  36.8771019  13.7798986  57.2015419  64.7995148
  13.1215887  57.6789093  64.2945633  13.3628988  56.3651848  65.0065155
  85.2685623  43.1405487  65.5157471  84.5316925  43.7079086  65.7423630
  85.4472504  42.6484642  66.3170929  64.0216827  64.1271210   8.7031488
  64.9672775  64.2675400   8.6545334  63.7111244  64.7967224   9.3125896
  77.6757507  65.2407913  65.1664886  78.1677856  65.3916473  64.3594055
  77.2800980  64.3772888  65.0479355  74.8978424  57.1936264  10.8569212
  74.2220688  57.4518356  10.2301121  75.0609055  57.9835815  11.3722982
  15.9696999   9.9603901   6.5508423  16.4149971  10.7635422   6.2808642
  16.4077244   9.2664442   6.0580897  72.9871674  11.0036049   9.7082214
  73.7702103  11.4182682   9.3461037  72.2592697  11.5079327   9.3448353
  86.0767975  37.4287949  31.4494534  86.0243835  38.3840866  31.4194088
  86.9612885  37.2473221  31.7672081  36.3737907  14.6716900  71.9525146
  35.7718582  15.3950901  71.7775803  36.6177254  14.3480434  71.0853424
  52.7641144   7.5286350  15.6629295  53.3551750   7.4018521  16.4050941
  53.1078262   8.2998619  15.2120371  80.0944977  57.1499596  13.8946609
  79.2287750  57.2864075  14.2795429  80.2240143  56.2020912  13.9263515
  65.5806046  63.6450119  87.7448807  65.0978012  63.6203537  88.5710373
  66.4200821  63.2312317  87.9456100  34.4248695  58.9667473  76.8992462
  34.7353745  59.4690628  77.6525726  34.0333862  59.6207237  76.3202057
   9.7686872  28.6823597   9.5135107   9.1989927  29.3707504   9.1702948
   9.2967587  27.8691940   9.3338528  14.8951597  43.0475349  27.5549965
  14.9143906  43.0973053  26.5992851  15.8158636  43.0781136  27.8150005
  58.4757614  46.1831551  88.1132202  59.2036629  46.0749130  88.7253265
  58.2177849  45.2894554  87.8874207  30.3141842  12.7877235  18.5501404
  29.4446926  13.0525723  18.2500229  30.3150120  11.8338928  18.4699078
   5.7700381  66.1207047  51.6861954   5.5607405  66.7591934  52.3679237
   6.6032786  66.4217148  51.3237915  61.4590454   0.5856819  40.6754494
  60.5206871   0.5403340  40.4919739  61.5863762   1.4532257  41.0593567
  17.5973644  34.6096573  18.1395893  17.4691696  33.9296570  18.8009529
  18.3397617  34.3014107  17.6199131  65.4793854  18.3469925  63.9997101
  65.6660233  19.2588139  63.7761536  65.0051270  18.3961315  64.8297119
  55.0349426  26.1992188   7.5994811  55.7613258  26.3053112   6.9851975
  54.2581596  26.1377850   7.0435476  76.6377869  11.7901621  42.2970581
  77.3027420  12.4633265  42.4416885  76.9175568  11.0558100  42.8435783
  52.4285278  61.2267151   5.9149661  51.6185760  61.6643906   6.1769729
  52.2131577  60.8011513   5.0850616  53.3431702  38.6132584  59.2470207
  53.9952927  39.3049774  59.1352692  52.5365677  38.9844933  58.8895187
  61.1322670  42.2937698   7.8860431  61.5713806  43.0773697   7.5553131
  61.2978516  42.3062820   8.8287287  73.3132401  35.5735512   2.8248425
  74.2699585  35.5893936   2.8509352  73.0531693  35.3401566   3.7159781
  73.7062302  50.5048828  19.7453957  74.0764008  50.2118721  20.5780735
  74.2251205  51.2740326  19.5100460  70.2321854  59.8275528  78.4579010
  69.8566971  59.6239090  77.6013031  69.5397110  59.6081505  79.0812531
  26.0286827  62.6831551  40.9426727  26.1968880  63.5079842  41.3983002
  25.0843143  62.6840744  40.7864723  19.6970291  30.9473400  56.3277245
  20.2095795  30.3149204  55.8241653  19.8989944  31.7927513  55.9268265
  29.3114223   4.3513851  36.7075310  28.4928513   4.8447084  36.6545525
  29.2223225   3.8240709  37.5014000  79.4321823  54.5305519  59.1182861
  80.2563782  54.6447258  58.6451111  78.8856430  55.2603683  58.8269234
   1.5139257  19.7410698  19.9944935   1.7248679  20.0442715  20.8775597
   0.9445055  20.4223690  19.6369705  68.4483871  50.8800888  36.6515198
  68.3609924  51.7316628  37.0797958  69.1939774  50.9846611  36.0604248
  18.0009365  25.1626167  56.1932449  18.7373772  25.6094799  55.7758751
  17.2300873  25.6526146  55.9070206   7.9728479  64.0511322  12.2324390
   8.3089046  63.2634621  12.6600819   7.0570312  63.8480568  12.0419827
  66.3680573  29.3793201  41.1225281  66.2218933  28.6391106  41.7115593
  65.5440903  29.8661251  41.1405945  35.6579819  49.6300125  64.0325623
  35.6738167  50.2557182  64.7567673  34.7305679  49.4254608  63.9130058
  52.0205956  59.5158081  24.2631607  52.4939270  58.6849747  24.3068008
  51.8834114  59.6644516  23.3275757  17.1748371  22.6129246  56.1992416
  16.3657818  22.6237125  55.6878242  17.4132977  23.5355167  56.2897491
  32.5761642  63.2871017  19.2919693  31.6810875  63.2859764  19.6311817
  33.1271362  63.1983871  20.0696545  84.7410507   3.5931685  28.0791664
  84.2794418   2.7578614  28.1527214  84.1217651   4.1705413  27.6326656
  63.9867325   5.1787858  70.3351135  63.3817673   4.4964395  70.0441666
  63.7485733   5.9471359  69.8163147  69.9087067  64.4753876  86.4288940
  69.9812622  64.7038040  87.3556061  69.4329834  65.2083206  86.0380936
  57.0949440  19.0779743  30.5351887  56.6056519  19.1280041  29.7140198
  56.4244843  18.9485474  31.2059841   6.6164513  29.8991966  81.8188705
   6.7811012  28.9935055  82.0812454   6.1766605  30.2909698  82.5734100
  68.6876221  12.0633488  47.9746437  69.1945801  12.8555584  48.1524734
  68.8181915  11.5165014  48.7493324  47.8111458  39.7242317   6.2087002
  48.6247520  39.2681389   6.4237690  48.0863953  40.6142654   5.9889083
  69.7522049  27.1572018  14.3803616  70.0719147  27.4080524  13.5137091
  68.8625031  27.5082474  14.4182911  60.6757889  39.6103477  51.8818855
  60.8035698  40.3220634  51.2546959  61.2878227  39.8040352  52.5919075
  13.4997396  33.3604240   5.2564716  13.9446402  34.1667976   5.5173521
  13.9916496  33.0507507   4.4959736  69.8406067  30.3792343  79.5137787
  70.6630249  30.5757618  79.0651855  69.6177216  29.4932652  79.2280884
  10.4598112  33.8013687   4.6261368  11.2145271  33.2841072   4.9073420
  10.6668062  34.6951065   4.8992953  54.0112381  11.4980011  58.7192307
  53.6573448  11.7887487  59.5597420  53.8147964  10.5617085  58.6876373
   5.2663226  42.3947182  33.2489433   4.8510337  43.1561699  33.6538620
   4.8620005  42.3333397  32.3835030  74.5517731  15.4799023  76.2511215
  74.0646591  14.6758995  76.4314804  74.5107880  15.9736128  77.0701447
  12.4527111  50.0420341  74.7019577  13.2725420  50.2724457  75.1390152
  12.0740814  49.3546448  75.2500153  25.1646576  38.9454880  71.1568375
  24.8952045  39.7854118  70.7851486  24.7405243  38.2909203  70.6019669
  84.6362228  49.8467293  38.2001419  84.3457184  48.9350319  38.1747208
  84.8973083  49.9896393  39.1098900  14.5143003   0.8679373  42.9725876
  14.8907337   0.8301814  42.0933228  13.6193371   0.5462570  42.8639870
  80.4545593  41.0150108  73.5762482  80.9060135  40.6337357  74.3292770
  80.6899948  40.4466896  72.8428955   4.8037629  52.9776688  22.5630150
   4.1849179  52.4417419  22.0669880   4.9432979  52.4919395  23.3759289
  70.9550476  47.2342300  75.5209808  70.3144913  47.1836929  74.8115005
  71.4908600  47.9977112  75.3059692   8.2858200  17.8657436  47.7226372
   7.3460784  17.9501667  47.5614204   8.3674850  17.0737190  48.2539177
  19.8771343  21.4346542  71.5432434  19.0266342  21.8319035  71.7305145
  20.3426361  21.4600410  72.3792419  32.1204224  61.7547607  58.7276993
  31.6450634  62.5545425  58.9526825  31.4517231  61.1717644  58.3682709
  77.4630966  68.4391098  57.8625450  77.9525452  67.8716507  58.4580803
  78.0166092  68.5037842  57.0842934  63.5015373  32.0781403  69.3035660
  64.0226822  32.8121834  69.6288681  62.5941887  32.3433838  69.4538727
  27.1467056   5.7683682  80.3313217  27.5416508   5.6568136  81.1960754
  26.5745983   5.0077548  80.2293701  26.1753502  49.4719658  16.0744305
  25.5910378  49.1628036  16.7666950  25.6008167  49.9362106  15.4656458
  50.8776321   3.6136684  79.6849823  50.7416420   2.8881726  80.2944031
  51.4572678   4.2144299  80.1533203   9.7831411  39.0389938  52.1235313
   9.2444429  39.6642799  52.6083565   9.9419737  38.3278809  52.7442741
  31.8615341   4.6387377  27.2438583  31.0697823   4.9613185  27.6743240
  32.1791344   5.3853259  26.7359524  15.5378885  60.1541557  56.8735886
  16.4292240  60.1156616  57.2203903  15.2794323  61.0698204  56.9784317
   3.2301548  17.0905247   6.1443977   2.9011698  17.5466175   6.9189811
   3.4085479  16.2005291   6.4482365  71.3454514  54.3872566  10.3768759
  71.0577240  55.2887573  10.5208855  72.2343674  54.4717445  10.0320282
  63.4251976  65.8652115  85.1020050  64.0502396  65.7865448  85.8226700
  62.9777679  66.6960220  85.2626343  60.9584694  67.2402573  57.2773666
  60.7211609  66.3233719  57.1386528  60.6850433  67.6826477  56.4737740
  12.7087097  18.1678448  37.0566826  12.6230803  18.0775814  38.0057602
  13.1376715  17.3591709  36.7769127  40.3146591  69.1892548  27.0115509
  39.6674614  69.0879517  26.3136215  41.1508789  68.9812012  26.5948009
  42.6147690   6.3381314   9.0152369  41.7923470   5.9322515   8.7411633
  43.2938728   5.8120794   8.5929585  64.1134033  14.1916780  20.8699379
  64.1875076  13.4952507  20.2174587  63.7590446  13.7566175  21.6454258
  66.6981888   9.6826677  72.8288803  66.4701538   8.7782373  72.6138535
  67.3717194   9.9180470  72.1907730  47.0359802   1.0847489  13.4443178
  46.8637695   1.6408622  12.6845064  46.1862984   0.6978481  13.6554537
  48.3263245  60.5472946  46.4311523  47.5543213  60.1763611  46.0037804
  48.2304916  60.3039360  47.3519287  81.3500595   3.5714135  89.0050812
  82.2027054   4.0031047  88.9514923  80.7500381   4.1702714  88.5605774
  73.5115356   9.8589430  50.4551849  74.1263046   9.8962440  51.1879158
  73.9264832  10.3798294  49.7676315  68.2641830   5.9983306  61.0075607
  67.5000687   6.5671396  60.9137077  68.1293945   5.3072181  60.3591576
  82.4119415  25.4939079  78.8984375  81.5965347  25.7524300  78.4688950
  82.3986588  25.9569626  79.7360764  63.5593948   3.5572166  77.7731094
  64.0641556   2.9584913  77.2226791  63.2455177   3.0121646  78.4946594
  52.8242302  12.1670485  61.7362137  53.1892357  11.3074598  61.5261841
  53.0358238  12.2977610  62.6605377  69.3316879  17.2869778  76.9297714
  69.4279022  18.2290840  77.0690994  68.8240433  16.9841290  77.6826401
  75.2280045  25.7888927  34.3356323  74.8400650  25.1423473  33.7459641
  76.0051804  26.1003094  33.8716774  16.4192963  55.9728699  78.1095505
  16.7666359  56.4391327  77.3491669  16.1438065  55.1236076  77.7644501
  36.4009552   7.9862790   4.8408208  36.5978355   8.2224646   5.7472897
  36.6098175   8.7732191   4.3374987  50.5700302  47.7089729   7.7797976
  51.4454651  47.5407448   7.4311709  50.0201874  47.8183060   7.0039420
  59.5521202  57.8216248  80.7059250  59.9766693  58.6720543  80.5929413
  58.6658325  57.9495659  80.3677521  62.3754768  46.2397270  16.6873703
  62.8446541  45.4563522  16.9744816  63.0429192  46.9256096  16.6695805
  79.2192078  41.8718758  48.9753761  79.6317139  42.1235313  49.8016548
  79.1150360  42.6955795  48.4990463  84.0515366  33.8115578  80.9530106
  84.2015762  33.3145370  80.1488342  83.1005249  33.9094009  81.0001907
   8.5678787  65.9768295  77.2212372   8.1691246  65.2093201  77.6313019
   9.5096254  65.8441696  77.3296204  51.5372124   8.0385828  72.6785583
  51.2458496   8.0022020  71.7675018  51.2214203   7.2212286  73.0638351
  72.0023651  14.9664116  84.9735107  71.2383194  15.3658266  84.5576553
  72.4235458  14.4685583  84.2728119  67.9107513  16.4398537   4.0571899
  67.6892700  17.3410053   4.2919273  68.8546295  16.4586029   3.8991292
  46.1189194  10.1229725  34.2253571  46.5522995  10.4794350  33.4498901
  45.4908485  10.7986975  34.4806023  23.2912636   4.5884299  57.2199783
  22.9225464   3.7940197  57.6062355  22.6361637   5.2647767  57.3921204
  61.9897385   3.5768306  82.5362015  61.8276596   4.3013902  81.9320679
  61.2606049   3.6134946  83.1552734  27.0187721  34.6787148  18.6799431
  26.8566437  33.9717865  18.0552883  27.7365437  35.1801605  18.2931747
   5.5375013  55.0542603   8.0755949   5.5203218  54.0972137   8.0760803
   6.1465855  55.2832336   8.7776060  35.8625717  47.7951927  17.5166798
  35.3105621  47.9416771  16.7485256  36.5389977  48.4698753  17.4577045
  48.5838089  21.6982403  12.9723225  48.6326408  22.3914318  12.3140411
  47.9210129  22.0028038  13.5921402  73.1579437   7.7244282  72.6280670
  73.5036316   7.9627895  73.4882507  73.9121475   7.3709922  72.1563797
  75.5626221  14.5966587  60.0158195  75.6508942  15.2381983  60.7207108
  76.4630356  14.3612223  59.7920952  30.2890816  40.3113823  80.2792892
  29.4291592  40.0325928  79.9645844  30.9057522  39.7223511  79.8445511
  32.0164108  17.0322628  11.2821960  31.4096642  17.5560551  10.7590027
  32.2689819  17.6080513  12.0039349  44.6625786  36.1091499   1.3031776
  44.2625923  35.5418625   1.9622902  44.9477692  35.5103302   0.6130219
  72.9816589  27.0870991  23.3526936  73.1500854  26.5370789  22.5876179
  73.1230621  26.5067863  24.1006737  43.3301392  61.6784630  23.9824142
  43.3170509  62.5827255  23.6687813  42.4132919  61.4042854  23.9611511
  75.1132355  62.1009979  48.2739754  74.5158615  62.8420677  48.3749161
  74.6863251  61.3836937  48.7424355   9.3172121   2.0826762  54.1980171
   9.8570051   2.3974249  53.4729042   8.4616413   1.9131505  53.8036957
  34.2476921  65.0621490  74.6218033  34.5911789  64.2663651  74.2156372
  33.4160385  65.2194443  74.1747665  20.2562084   6.6118727  60.2174454
  20.4153309   5.9621191  60.9020844  19.3904171   6.9662280  60.4201050
  75.0190735  31.2561226  76.1514435  75.9234848  30.9442196  76.1828156
  74.5421371  30.5623970  75.6959152  69.6414261   6.3123255  83.3973618
  69.9327621   7.0237780  82.8271027  69.8430023   5.5149879  82.9076157
  80.2370834  67.3258743  48.0484200  80.0780563  68.2582626  48.1953392
  81.1448669  67.2821655  47.7479820  76.3901749  25.3007545  25.7373295
  76.0475540  25.7310085  26.5207367  75.6105728  25.0273170  25.2539082
  39.2598038   0.7116561  75.5605469  39.4853249   1.5781698  75.2221298
  39.0717010   0.8580908  76.4875870  28.4446869  51.7254257  86.2292633
  28.7377281  51.8924026  85.3334579  29.2526608  51.5893745  86.7241440
  82.9250717   5.0355959  43.1135025  83.6410294   5.4860945  42.6655273
  83.2284622   4.1320233  43.2014961  54.1707726  70.6745300  71.8062363
  53.5595093  71.3606033  72.0743561  53.8441849  70.3819122  70.9553833
  51.6014061  52.4477310  15.6453695  51.0828781  53.1666870  15.2841749
  52.1857643  52.1917877  14.9317484  57.5659103  62.9347343  59.1641693
  57.8262825  63.7634506  59.5662422  56.6525345  63.0680084  58.9107552
  55.8614082  57.7269287  87.7123260  56.2164536  56.8705444  87.9506149
  55.0984383  57.5273781  87.1698456  31.0799618  65.0900040  15.2831335
  30.2395668  64.6369019  15.3513975  31.7022781  64.5073166  15.7183666
  13.0130367  15.0359068  49.9602547  12.1921062  14.9284744  50.4406319
  13.1333313  14.2039032  49.5025101   4.7416964  28.7942600  22.3267746
   4.8408227  28.4154949  21.4533100   5.2209601  28.1980591  22.9021721
  51.3360100  66.7523499  46.8919334  50.5449638  66.3191986  46.5712242
  51.7819595  66.0829849  47.4108849   4.9521499  25.7986412  19.9952984
   4.2459188  26.3607311  19.6766720   4.5427995  25.2605362  20.6728745
  72.2789993  24.2364693  76.7132797  72.9812546  24.6251755  77.2347870
  72.3111877  24.7064476  75.8800201  79.4296799  14.0168972  65.9123688
  79.1978302  14.4031029  66.7569580  80.0762711  14.6185169  65.5433121
  65.8103333  31.3223763  75.1166306  66.4818649  31.2465687  74.4387436
  66.3012848  31.3530769  75.9377518  44.5091591  35.2795105   6.4738245
  44.7192001  34.8954773   7.3250785  44.8979645  36.1537018   6.5029483
  64.7261047   4.4781742  59.9861450  64.6505432   3.5294230  60.0881004
  63.8352242   4.7699776  59.7927017  69.4987335  52.2275887  81.9684219
  68.5878677  52.5119476  82.0439377  70.0078583  52.9599380  82.3158112
  14.1430712  39.5682564  85.6404419  14.6905823  38.9322739  85.1800156
  14.4007835  40.4148026  85.2755127  53.0301437   1.3933427   7.7322917
  53.1995659   1.2800519   8.6675425  52.5748215   2.2331049   7.6713643
  26.9440250  20.8993397  80.8348160  27.1729298  21.2846603  79.9890289
  27.7751713  20.5781841  81.1845093   4.0202689  10.1626797  73.9344406
   3.8593543  10.3666258  74.8557129   3.1806788  10.3227358  73.5035095
  10.1601744  31.2882442   1.4967699  10.3895998  32.1980247   1.3073025
  10.0013866  31.2728462   2.4405820  41.5117569  39.5075836  22.8166866
  40.8059425  39.4985962  22.1701775  42.3134422  39.5508766  22.2954750
  85.8998108  28.8163662  43.6564598  85.0689240  29.2525997  43.8450356
  86.3076248  29.3592319  42.9817581  12.2825012  45.4203873  42.6064873
  11.5619116  44.7931824  42.6664696  11.8719254  46.2719612  42.7564240
  62.8409653   7.5158558  46.5081902  63.3717880   6.7239294  46.4226875
  63.0510330   7.8520927  47.3794250  83.4637680   4.6635928  62.5972557
  83.9442139   5.4816976  62.7241631  84.1449890   3.9968610  62.5098381
  36.7314682  56.0225983  25.9209251  37.4019775  55.8534164  26.5827637
  37.1972885  56.4765091  25.2186356  46.9856911  59.3469353  11.2336950
  46.9292068  58.5529556  10.7020569  46.0758247  59.5654411  11.4352694
  30.4937305  53.5750847  46.7480850  30.4289703  52.9079628  46.0647202
  29.5873127  53.8293648  46.9212379   1.6372895  17.0196209  22.1615524
   2.0991154  17.6929913  22.6610737   0.7450199  17.3552113  22.0751438
  73.7204514   6.7316451  69.6264725  73.2171249   7.0122676  68.8621826
  73.7137985   5.7756071  69.5798035  69.9391556  37.5534744  14.3075943
  69.1997528  38.0115776  14.7071714  70.1881638  38.1030769  13.5645189
  79.2112350  55.9805756  80.3529434  79.4431458  56.8021126  79.9199066
  78.2541199  55.9687958  80.3474426  79.1930618  39.7080460   6.6716785
  78.4826202  40.2482567   7.0176210  79.0645218  38.8524284   7.0811005
   4.7778974  46.5197487  30.9410305   4.8274674  46.2408257  30.0267143
   5.2374949  45.8342056  31.4258289  24.7663040  15.0698719  81.8394318
  25.3975677  14.7329588  82.4752197  24.0275326  14.4634142  81.8909836
  16.8741455   9.4370394  54.1899261  17.7781162   9.4235926  53.8754654
  16.3437386   9.3487806  53.3980255  82.3744736  65.2893982  64.2570877
  83.3029709  65.4585724  64.4168320  81.9694901  66.1567001  64.2573624
  50.4407616  62.9383202  47.7849426  50.9358635  63.7459373  47.9222794
  49.6070633  63.2284813  47.4148216  21.7032299   5.7619457  52.9184265
  22.1506214   6.5765705  52.6893883  22.3604488   5.0802383  52.7785378
  12.6237316  56.5279427  22.3079166  11.7083645  56.8077011  22.3162327
  13.1198101  57.3355789  22.1742668  13.1251764  16.0132694  10.3357191
  13.6299334  15.9813976   9.5230465  12.6307831  15.1936617  10.3428984
  70.8318939  40.1649475  66.8350143  71.7243423  40.2920265  66.5131226
  70.4557037  41.0449677  66.8516693  54.6141434  53.6644402  16.5359039
  54.7893105  52.7476921  16.3234825  55.4807625  54.0668221  16.5932465
  45.6343231  39.9874649  22.3675098  44.9559784  39.9126778  23.0386925
  45.8990021  40.9069061  22.3958855  73.6997833  24.2669601   3.9679806
  74.4019928  24.4298401   4.5977421  72.8953781  24.3433285   4.4811363
  86.4577713  61.8265648  86.9913177  87.2335205  61.4111328  87.3679657
  85.7256546  61.4626312  87.4890976  29.4533958  20.1036167  14.9005642
  28.8864861  20.0027351  14.1359282  28.9014568  20.5353336  15.5526495
  64.7399063  62.6682281  56.1156960  64.6074219  62.8620758  55.1877403
  63.9664154  62.1638718  56.3678284  14.2318468  47.2684250  48.2724724
  14.1340990  46.9342842  47.3808289  14.4356785  46.4943428  48.7973328
  70.8678970  16.5706501   8.5979004  71.4831238  17.0466309   9.1557274
  70.9871521  16.9534740   7.7287307  64.7885437  51.2903137   7.2623138
  64.6513824  50.6607094   6.5544891  65.4586868  50.8876076   7.8145509
  82.4936066   0.3036882  64.9927597  82.7026520   0.8426400  64.2298355
  82.7811432  -0.5765081  64.7502594  47.2401886  70.5144119  38.3599167
  47.7117729  70.3281708  39.1717987  46.5112839  69.8939896  38.3585968
   3.5304706  48.9302025  35.1851997   2.7521889  48.4478531  34.9061890
   4.2647195  48.3977966  34.8791771  73.9505005   7.3885627   4.8262219
  73.1145325   7.0243945   4.5350647  74.6108246   6.8277235   4.4192004
   9.4424496  15.5552998  48.9687195  10.3720551  15.7749567  48.9069366
   9.4088573  14.6108952  48.8163948  41.9348259  66.8939590  31.5563030
  41.9620819  67.1361237  30.6306438  42.4939156  67.5391159  31.9892235
  55.6010666  33.3478470   4.2168279  56.0252571  33.7061386   3.4371338
  56.1091423  33.6984329   4.9483881  30.4063053   5.7169485  88.0056686
  30.9602242   6.2119622  88.6092987  29.5250244   6.0602508  88.1530380
  78.2708969  40.7828865  34.1977806  78.7965012  41.5499687  33.9707413
  78.8968964  40.1685181  34.5810623  24.1258793  33.7789040   2.8472643
  24.1892834  33.2977715   3.6723254  25.0088291  33.7411995   2.4795554
  72.7798538   8.8935986  26.2680302  71.9727097   8.6252222  26.7070427
  73.2830582   8.0845156  26.1763630  56.1272354  45.2081833  59.2735863
  56.6360855  45.5580254  60.0049667  56.1635437  44.2586632  59.3890457
  63.8307457  46.8272095  50.7238083  63.2069855  47.3614769  51.2154503
  63.3801422  46.6269836  49.9033852  29.0757694  61.3065414   2.6050067
  28.2843208  61.4121284   3.1329198  29.5167618  62.1541710   2.6623366
  11.7275839  41.8295975   4.4253464  10.7941504  41.8196411   4.2136049
  11.9433680  42.7580147   4.5131631   4.1518459  38.4242706   7.6705866
   3.4324067  38.8052597   8.1740589   3.9717126  37.4841728   7.6692243
  25.6417313  14.3464022  22.4139156  25.2335529  14.7541656  23.1776905
  26.4617615  13.9816723  22.7467155  10.6443510  49.7161903  31.4008465
  11.1750793  49.0334969  31.8113213   9.9149342  49.8489799  32.0062790
  27.2963562  43.2629242  86.3851547  27.0350704  43.9803543  86.9624329
  28.1538639  43.5251389  86.0502548  53.8819351  45.2185898  52.6668472
  53.8308830  45.3201981  53.6172676  53.2049217  44.5749321  52.4580727
   7.5134749  50.4471474   5.7869253   6.6497669  50.3144379   5.3962483
   7.4457026  51.2888565   6.2376661   5.6452017   6.9188848  15.8603964
   4.9857736   6.7757139  16.5392838   5.8245225   7.8584995  15.8950319
  10.2606783  42.9444618   1.7169930  11.0857706  43.4113350   1.8492188
  10.4572725  42.2979813   1.0390185   6.8684311  30.5220757  59.9508095
   7.7668252  30.3938313  59.6463852   6.9541750  30.6777744  60.8913612
  11.6551390  49.5673409  15.1624880  10.8776951  50.0800858  14.9413385
  12.3809347  50.0501671  14.7671003  39.6124611  10.3796368  81.4265747
  40.3896141   9.8718061  81.1933975  39.7019539  10.5364199  82.3666000
  23.7622719  69.5868530   8.0408621  23.6922512  69.3961334   7.1054711
  23.5870743  68.7492905   8.4698439  64.7081223  70.3743668  60.5368729
  65.4408188  69.9242249  60.1164513  65.0021133  70.5227890  61.4356308
  20.4886341  60.3160133  67.6215363  19.9125385  61.0799866  67.6478500
  20.4662457  60.0304985  66.7081833  15.3203840  34.5240784   8.7595196
  15.2571898  35.2346458   9.3977432  14.7993002  33.8156433   9.1374445
  27.9656506  11.8300953  77.5261765  28.6219044  11.5268583  78.1535568
  27.2072105  11.2673416  77.6820908  74.3296204  27.0890903  76.3541336
  75.2447510  26.9151878  76.1338272  74.1336670  27.9213581  75.9238281
  48.7477417  14.7190943  69.0832672  48.0768585  15.2792606  69.4736023
  48.3423271  13.8529663  69.0420990  49.6863213  36.5971375  56.1608315
  49.1002388  37.0435905  56.7719116  50.2783585  36.0947113  56.7205505
   4.5811415  24.8174896  87.9170227   4.6403637  24.7887764  86.9620895
   5.4874892  24.9103680  88.2105255  48.8818398  61.7931557  42.3407745
  48.0028954  61.4222832  42.4191399  49.4579735  61.0317192  42.2735519
  69.3305435  40.6017990  47.8998299  68.5574722  40.9590950  47.4628754
  69.1336212  39.6718788  48.0125198  65.4617538  53.3902702  70.5975876
  66.1613770  52.8367996  70.2505646  64.7642670  52.7772293  70.8298035
  59.9046555  44.5584984  47.8718452  59.2282104  44.8253555  47.2494011
  60.3560028  43.8338280  47.4389801  73.4171448  51.6495209  80.6273270
  72.4621964  51.7149353  80.6319199  73.6818466  52.0665169  79.8073959
  34.9231071  54.3299026  31.6117706  34.8120079  53.4358711  31.9351807
  35.6275291  54.6929970  32.1485977  13.0547171   4.3135352  74.0451508
  12.1878481   3.9261785  73.9238052  13.3487129   3.9817019  74.8934860
  70.4127045  51.9294014  42.4487839  71.0274582  52.6618156  42.4922142
  69.8940430  52.0983620  41.6622238  18.2802505  33.6643143  71.9624100
  17.5807648  33.6202812  72.6143417  18.0429306  33.0038338  71.3115082
  14.0527430  10.5030918  78.7275467  14.3305759  11.3152075  78.3038559
  13.5304813  10.0530376  78.0635223  35.8725052  62.3889198  57.3068619
  35.4550819  61.5452576  57.1330185  36.7630653  62.1644592  57.5765915
  65.1073990  52.6805496  88.1227646  64.6233597  52.8792152  87.3212280
  65.8580170  53.2741776  88.1026382   0.7317485  25.3648090  26.3698158
   0.4670883  25.7716751  27.1948299  -0.0635209  25.3642044  25.8371086
  17.9096107  71.2971115  82.5132141  18.2123604  72.2035065  82.4583206
  17.4752693  71.2407913  83.3643417  43.4281349  71.1174545  70.7963638
  43.1256485  70.2191086  70.6632843  42.7672958  71.5107422  71.3663177
  53.9940300  65.4677277  22.0191460  54.7314644  66.0767975  22.0572987
  54.0125809  65.1248245  21.1256676   2.5136213   4.5851912  79.2778549
   1.8644427   4.6768088  78.5804214   1.9960386   4.5308475  80.0812073
  56.3273888  63.1040802   0.3067113  56.5616112  62.3123550  -0.1775899
  55.3707237  63.1252747   0.2827736  56.4134941  67.5418854  71.1023788
  57.3136063  67.2166901  71.0857468  56.4127159  68.2096558  71.7881775
  47.4101830  56.1066895  13.1469479  47.5888252  55.5422478  13.8990936
  47.7731552  56.9571953  13.3941822  37.7768631  62.4235077  69.0147629
  37.4913483  61.5989113  69.4081573  37.8845177  62.2209129  68.0854645
  64.6413879  19.7902622  82.5035248  64.6415482  19.3594418  83.3582916
  63.8742065  20.3623238  82.5237885  58.3577156   6.4596329  84.9309006
  58.7674332   6.7661471  84.1219482  57.9039268   5.6551557  84.6796570
  85.0716400  43.2878151  22.1162090  85.6046066  44.0667496  22.2757053
  85.2325516  42.7278786  22.8756905  76.7865448   7.2359228  84.3093491
  77.3143234   7.2142029  83.5110931  76.9515686   8.1019821  84.6820984
  50.8272057  49.4177933   3.1321244  50.7797966  48.6366501   2.5809443
  49.9993401  49.8720436   2.9755085  57.9258080  68.0862808   4.5541916
  58.5558701  68.7248230   4.2202568  58.4007149  67.2552261   4.5476580
  24.4444847  62.7091904   8.0051584  23.6726589  62.9792328   7.5075684
  24.4853535  61.7601357   7.8874574  61.1789856  64.0115891  78.4010391
  62.0892487  63.7291107  78.4896851  61.2329254  64.9599380  78.2828903
   8.1743584  64.7715149  45.2984047   7.8662057  64.8059769  44.3928185
   7.3988647  64.5331802  45.8063812  28.2452869   7.5493226  15.1934204
  28.4567928   7.4404941  14.2662458  28.3448009   6.6733336  15.5662098
  47.5009727  67.7760468  41.9275208  47.7962608  67.4963913  42.7940254
  46.5720901  67.9756927  42.0439186  84.8071518  49.9067726  57.5120010
  84.0563431  49.5921974  57.0084496  84.7659454  49.4180756  58.3340149
  77.0155182  14.3257771  67.3790741  76.3637924  14.4729013  68.0645218
  77.3456650  15.1997938  67.1709061  49.3088837  52.1098862  18.3775463
  48.4426765  52.4759178  18.5562496  49.9103622  52.8428421  18.5088158
  60.2264099  47.6279411  46.9086990  60.4770813  47.7302437  45.9905891
  60.2271194  48.5191650  47.2579117  12.1233072   5.1519213  86.5036926
  11.7267885   5.9237065  86.9078598  12.7387686   4.8269444  87.1608353
  39.2821388   8.5257635  69.2660675  38.8417892   8.4762602  70.1145248
  40.1869049   8.7546349  69.4787903  28.6448421  58.1090736  11.8311987
  29.1000137  58.9027786  11.5499821  28.3411579  58.3081703  12.7168436
  30.4520683  50.5742531  16.3623714  30.6366215  49.9262848  15.6824379
  31.3054886  50.9563828  16.5670300  65.5061798  36.8297539  74.7381363
  65.5991592  36.1557083  74.0649033  64.8459854  37.4281311  74.3883972
  11.3595581  64.2214813   1.2960736  11.9749889  64.2506409   0.5635251
  11.9017906  64.0106659   2.0561872   9.1266794   6.5967622  26.1175671
   8.1887856   6.6929145  26.2829247   9.1915588   6.4739976  25.1704922
  68.8716965  25.7721615  31.3258476  68.4352646  26.1915245  32.0673904
  68.6275940  26.3070564  30.5705128  16.4642487  -0.1930012  76.2891998
  16.2546139  -0.1351722  75.3570251  16.9531822   0.6086740  76.4749222
  31.9743233   7.2293649  25.6575089  31.6140289   7.5821424  26.4711227
  31.2063293   6.9750051  25.1459236  58.6131325  23.7884216  72.3630905
  57.9411774  23.5215263  71.7358170  58.1361084  24.2840481  73.0287018
  46.4964561  44.4648132  63.3862648  46.4265060  43.5547295  63.0980225
  45.6136665  44.6921043  63.6782417  60.0072899  63.1954956   6.1905060
  59.6377869  64.0536423   6.3985429  59.2558937  62.6726074   5.9108171
  56.8587341  52.5604401  14.0250721  56.1112480  52.0000305  14.2334814
  56.9663620  53.1136932  14.7987356   6.7766709  23.3822556  35.2536736
   6.4906449  22.5582733  34.8593712   7.7324495  23.3471851  35.2150764
   2.7196527   9.8798847  18.2702789   2.4146013  10.5630150  17.6731949
   2.6768146   9.0745316  17.7547169  83.8913574  23.1166611  55.7993164
  84.5865707  23.1124001  55.1413689  84.3539886  23.1565685  56.6363411
  39.0478439  12.7139244  46.5432320  38.2201614  12.6495886  46.0667458
  39.0545921  13.6051731  46.8923187  77.2754593  64.2378235  33.2532310
  76.4614792  64.0669174  33.7270088  77.8958740  64.5047150  33.9315224
  82.0187302  23.9798698  72.8834076  82.7138596  24.1472588  72.2470016
  82.1835022  24.6060905  73.5883331  74.2340622  66.1558762  71.4663162
  74.3046341  66.5438538  70.5941162  73.4455109  65.6148682  71.4247131
  31.4372215  26.1371708  84.5351334  32.2068214  26.4866295  84.0858841
  31.3818340  25.2273674  84.2428589  21.2215919  57.6029968  21.1375427
  20.8447628  57.1320763  20.3942623  21.9296951  57.0372772  21.4454136
  77.6991043  31.5682297  79.6175232  77.5880814  31.8697376  80.5191879
  76.9245529  31.0322647  79.4471130  40.2160034   0.8299906   2.6887939
  39.9306488   0.3913836   1.8872776  39.4081192   1.1606315   3.0815160
  66.0953979   5.0392628   9.5828781  65.2787170   5.4240470   9.9010048
  65.8638611   4.1382017   9.3576889  82.8955688   4.7314053  26.3988266
  83.0979691   5.2712698  25.6347523  81.9733047   4.4991665  26.2904854
  80.8245850  60.1858521  40.1920509  80.1552734  60.6581917  39.6969223
  80.7434616  59.2782593  39.8989220  35.0331497  49.6335640  49.6562119
  35.0085144  50.5866127  49.5706291  34.6379929  49.4595070  50.5104866
  57.0563545  20.9718075  85.7771912  57.9004021  21.1672611  86.1841507
  56.4593620  21.6278725  86.1369247   6.5929499  61.3319893  72.2099075
   5.7704887  61.0019798  72.5716858   7.0093894  61.7895317  72.9402924
  82.6913986  10.5382338  85.4084396  82.2010803  10.2144461  86.1640701
  82.6127396  11.4906845  85.4621201   6.6515789  60.0338898   8.2594528
   6.2436237  60.8996735   8.2744951   5.9302416  59.4324036   8.0747366
  28.2449627   3.8962228  20.5597954  29.1175919   3.8329358  20.1715374
  27.6624050   3.5145001  19.9031773  29.4130287  14.9568558  77.2029419
  30.1930656  14.4327593  77.0210114  29.3562851  14.9782400  78.1582184
  43.7887917  68.0368271  18.9898510  44.5778198  67.7015610  19.4155922
  43.7257843  68.9456024  19.2837849  68.4712601  13.3715715   4.4407983
  68.1478424  14.2606840   4.5861073  68.9733810  13.4292145   3.6279118
  80.9594040  51.9795647   2.1216311  81.4648285  51.4531784   1.5022020
  81.2371292  52.8799706   1.9531949  84.7010651  23.0148296  35.2660866
  85.2390442  22.2416573  35.4364204  84.3760223  22.8887882  34.3746300
  10.8723650  68.0234680  76.0403214  10.8966866  68.4732895  75.1957474
  10.4825954  67.1709747  75.8465042  17.3652897  32.8648567  68.6698532
  17.1122036  32.2522621  67.9792633  17.3952618  32.3314018  69.4640579
  52.2840195  14.3975735  25.8154926  52.6284981  14.5681458  26.6921158
  53.0385513  14.5054789  25.2364655  63.9672852  52.1791229  24.2913380
  64.1868896  52.9199066  24.8563538  64.4125519  51.4323158  24.6916447
  19.8992290   1.6028616  26.8281174  20.1049194   1.1775833  27.6606216
  20.7424889   1.9234203  26.5081387   7.1497040   8.1657190  67.5997086
   7.2176991   7.4090505  67.0174179   7.4468765   7.8412385  68.4497833
  35.7488480  64.6192932  36.9299164  34.8692551  64.7385788  37.2881317
  35.7276459  65.0723419  36.0869865  56.9767876  59.4280281  18.0225410
  56.1031914  59.7914505  18.1674080  57.3153381  59.9114113  17.2689114
  31.9439640  43.0608559  73.7665176  31.1805496  43.3256378  74.2796631
  31.5865154  42.5025330  73.0760498  54.7123489  12.7221231  15.0096302
  54.9507332  13.4760256  14.4701529  54.0211906  13.0487766  15.5856752
  68.1971054  27.1484318  43.2894592  68.7675247  27.5351200  42.6251411
  68.7736435  26.5775166  43.7972946  36.4044838  13.0777311  81.9425507
  37.2153893  13.5554562  82.1170120  36.0213509  12.9322662  82.8075867
  55.0777397   6.0710196  19.9615593  55.1147499   5.7798128  20.8726368
  55.7546501   5.5591540  19.5188179  10.1266327  24.1160870  27.9241467
   9.4937115  24.7156982  27.5290413   9.9718990  23.2803288  27.4839211
  76.7945023   3.9912138  51.6365891  77.0810394   3.2150860  52.1179962
  77.3332596   4.7015810  51.9849434  69.0929413  31.8899288  34.2005348
  70.0188293  31.6627045  34.1149139  68.8930511  32.3839722  33.4054298
  66.8827744   5.2586584  16.5632381  67.3139343   5.6222882  17.3366127
  66.2396851   5.9221539  16.3133526  31.5878143  42.5824852  83.9409027
  30.7912064  42.0810127  83.7671890  32.2889862  42.0613060  83.5497971
  22.8935890  45.5971794  64.3971558  22.8753395  45.8474312  63.4734306
  23.2600517  44.7129059  64.3985443  28.3528156  22.2343349   0.7853845
  27.8801594  23.0356083   0.5600280  29.1242409  22.2439060   0.2187763
  71.4419479  58.2190208   5.1116452  71.2302780  59.1080894   5.3962154
  70.7003174  57.9595871   4.5649109  57.2217712  24.2911453   3.4138868
  56.6241341  24.1046524   2.6898119  58.0711937  24.4276276   2.9942644
  26.0262928  56.0257416  41.0793228  26.0755463  55.1297112  41.4123917
  25.1477890  56.0943565  40.7054901   8.9362202  67.1181946  56.7782898
   9.2768269  67.8480911  57.2954674   8.8329220  67.4768524  55.8968544
  29.3284569  63.7981644   8.5883007  28.5670872  64.3762054   8.5391903
  29.4802608  63.6811752   9.5261173  82.4742279  30.0258236  88.1449432
  83.3307953  30.1932983  87.7519073  82.2008514  29.1864796  87.7748108
  74.7188873  14.6906118  63.4092331  75.2060776  15.4136906  63.0142212
  75.3910065  14.1403990  63.8114166  80.0469437   7.5199895  72.0307541
  80.0100708   8.3668604  71.5861359  80.9787140   7.3771124  72.1969681
  64.9892807   0.4068599  69.6924057  64.2550659  -0.0834490  70.0622025
  64.5821991   1.1563718  69.2579575   9.7792463  13.4691868  84.1885910
   9.3678656  14.1662912  83.6776657   9.8486109  13.8292761  85.0727615
  81.4166336   7.1433697  85.6490326  80.8723831   7.8579950  85.9796982
  81.3339157   7.2000251  84.6970978  28.5982265   5.2254777   5.5143628
  27.9843273   4.8517957   4.8821287  28.7246399   6.1277800   5.2209311
  28.8892193   2.6881502  69.2673798  28.0768452   3.1505382  69.0612869
  29.0635166   2.9066098  70.1828766   7.2380891  33.7003593  82.7574158
   7.6897392  32.9638634  82.3453293   6.3337812  33.6279106  82.4521179
  31.6950188  35.3511353  82.0765610  31.5077419  36.0375671  81.4362717
  30.9751911  35.4069748  82.7050247  79.7349930  24.4866047  35.4798660
  79.6204376  25.4368534  35.4682503  79.5053558  24.2285652  36.3725662
  15.6057158  13.2696934  59.4044342  15.7112627  12.5219955  58.8161812
  14.6621361  13.3239422  59.5559120  25.2601795  13.8914623  29.5014439
  25.5430984  13.1220131  29.9955463  26.0496826  14.4262371  29.4181747
  28.2910023  26.6607685   7.5286989  27.6201382  27.1728477   7.9803071
  29.0461845  26.6841164   8.1163950  59.2178040  71.1659012  64.1733551
  59.2513466  70.7279282  65.0238190  59.6204185  72.0204315  64.3279724
  15.1044207  47.7324562  40.0616112  14.3897047  47.0978966  40.1139908
  15.6910553  47.3778610  39.3935127  41.6669235  12.0405550  88.4210052
  41.0458565  12.3556376  87.7643280  42.5070038  12.4143333  88.1549454
  74.0059586  46.9309311  43.9910355  73.4476318  47.3069420  44.6715660
  74.7430573  47.5378647  43.9235458  67.9820175  60.3035698  59.9846077
  67.8644028  59.4973793  60.4870567  67.8800812  60.0339470  59.0718422
  50.9323425  33.4439316  67.0379181  50.0956192  33.8581467  67.2489929
  50.8558617  33.2069359  66.1136780   1.5948106  14.6545620  79.9358826
   1.7675766  15.5633307  80.1819000   0.8721192  14.3860922  80.5032196
  74.6727448  44.2415810  43.9098206  74.5535889  45.1913338  43.9104004
  73.8087311  43.8919220  43.6919899   6.0033526  57.8288918   5.0399089
   6.8298149  58.2309227   5.3074222   6.1485047  56.8888626   5.1471858
  69.8177795  17.6460056  24.1413345  70.2553024  16.8435287  24.4256554
  69.6227722  17.4975395  23.2160435  51.2087822  53.1450500  64.6834259
  52.0460815  53.5232201  64.4148254  50.7480659  52.9752693  63.8617554
  55.7272758  55.2952232  33.1840820  55.7070236  56.1937714  33.5133820
  55.7902832  54.7532692  33.9705620  21.0520210  70.1622009  74.4303818
  20.2079182  69.7571716  74.6295624  21.3585739  69.7044296  73.6476288
   3.0844440  65.3276138  44.6982536   2.9849494  66.2125778  44.3473015
   2.8687961  64.7530060  43.9637070  57.3331070   5.9020767  41.4314461
  57.0917587   6.0279493  40.5137634  58.2059441   6.2881155  41.5046692
  63.4758759  35.0080032  57.7201958  63.4365196  35.8966942  58.0736198
  64.3129425  34.9711571  57.2573853  43.0548096  23.8948917   7.2272959
  43.3418694  24.2566719   6.3888788  43.8295403  23.4536324   7.5755901
  35.4662819  54.3891678  63.4932823  35.5147591  54.5830383  64.4293900
  36.3758850  54.2487144  63.2303543  79.8373718  53.2934456  55.3091812
  79.2673340  52.5245094  55.3040733  80.0592651  53.4209747  56.2315331
  47.2148781  62.8986626  86.5729446  47.4334335  63.8217392  86.4448776
  47.9421425  62.5495872  87.0881729   9.8345356  42.1031914  87.0248337
   9.9696836  41.7465401  87.9027710   9.0480137  42.6429520  87.1040497
  70.0509415  40.9385986  70.9996796  70.3931274  41.8251114  70.8846588
  69.5975723  40.9643173  71.8423157  31.4091930  33.1201248  32.3102989
  30.6241398  33.6254578  32.0992012  31.8540192  33.6378288  32.9813728
   6.1548815  24.0494499  52.8058395   6.5784063  24.7891788  52.3703384
   6.1869106  23.3420315  52.1618156  66.8533401  57.8152809  76.8104935
  67.3802338  57.0565758  77.0614624  66.1632767  57.4541626  76.2540436
  25.3304138  13.7935696  19.3549328  25.7986050  14.0423546  20.1518860
  25.5830421  12.8828716  19.2031422  80.9441757  49.2658844  80.5868759
  81.4636002  49.4417191  79.8023300  80.2448807  49.9190521  80.5625076
  69.0176010  38.8423195  69.9655991  69.0826187  38.3315887  70.7725449
  69.1871338  39.7439880  70.2385101  86.5802765  10.8032780  39.9347763
  87.2365417  11.3152866  40.4074211  86.2819290  11.3840504  39.2348289
  72.8887558  23.5094166  35.5820389  73.3107834  23.2133255  34.7755318
  72.4310837  24.3121090  35.3321228  79.4460144  48.0913582  50.0683365
  79.5302811  47.3731499  49.4411926  79.7701187  47.7287064  50.8927574
  14.8412418  39.7840691  29.0316696  15.6507578  39.6459694  28.5398941
  15.1281624  40.1557846  29.8657761  56.2955513  33.6252365  14.1577454
  56.6354485  34.0477905  13.3689804  55.8813210  32.8229027  13.8400793
  13.1511240  55.2625427  70.7569122  14.1054583  55.3365440  70.7564087
  12.9067850  55.3092804  69.8326035  18.0675907   5.4396691  53.0574455
  18.9724617   5.5269513  52.7577400  18.1204643   5.5314536  54.0087662
  32.4194832   9.2472973  46.1462898  33.3308983   9.1417265  46.4190750
  32.4708748   9.7282343  45.3202782  21.8071499   6.5698862  39.1224670
  21.0286598   6.3460212  38.6124992  21.6828575   6.1211176  39.9587631
   6.4853311  30.6673737   4.4805355   5.7588134  30.2487888   4.9422607
   6.1049652  30.9627934   3.6533225  68.9612274  56.2131729  36.9606895
  68.6490707  56.3795547  36.0712471  69.6274338  56.8840446  37.1101303
  78.3467636  20.6736088  16.4308224  78.8179169  21.3041534  15.8861542
  77.5895996  20.4198780  15.9030418   2.4669926  40.1757774  48.9265671
   2.5517111  41.0790787  49.2316971   2.9139969  40.1659470  48.0802078
  25.4570942   1.9031624  11.9029703  24.9680061   1.0808721  11.8735762
  25.2655964   2.2649395  12.7682323  66.7739868  51.7655220  31.9450722
  66.4268723  52.6059837  31.6461334  67.6496277  51.7179184  31.5613880
  65.8374023  11.7087374  81.0892792  66.1052704  10.8427315  80.7818527
  66.2983856  11.8209362  81.9206314  10.9245787  46.8253517  80.2717972
  11.3916740  47.5145454  79.7994995  10.0377731  46.8472824  79.9121780
   9.1815996  10.3409805  62.6453018   8.5331249  10.4787626  61.9548492
   9.1931410  11.1656761  63.1310768  32.7272110  17.6058483  75.7767410
  33.5678062  17.3097935  76.1259995  32.1296539  17.5643616  76.5233536
   3.4381547  37.0207939  83.8759232   2.6842868  36.6702843  84.3503265
   4.1794090  36.5008125  84.1863937  57.2770958  65.1539154  19.3836060
  56.7820358  64.8685303  18.6156845  57.4421730  64.3491211  19.8748169
  71.4563751  39.4955482  56.5990791  72.3080444  39.7928352  56.9192429
  71.5457687  38.5452118  56.5276413  25.5339680  61.3067818  51.4312859
  24.8213425  60.8035545  51.8251877  25.0939178  61.9560814  50.8826523
  84.6783066  52.0350304   3.5561888  84.7483063  51.2852249   2.9653203
  83.8013458  51.9621239   3.9328182   7.6427841  61.1385880  11.0773134
   6.9301391  61.0885925  10.4402351   8.4361219  60.9966774  10.5608759
  54.4929657  44.6948738  55.4077530  53.8145142  44.0595360  55.6363983
  55.1196442  44.1974335  54.8823357  57.9425812  56.2244835  82.9813843
  58.2096405  56.8591156  83.6463318  58.6114883  56.2952957  82.3003769
  58.0104942  51.5106964  56.4789124  57.7775993  50.8488693  57.1300507
  58.4733391  51.0235481  55.7972260  57.5878525  28.2596073  89.0473328
  56.7926865  27.9726372  88.5983353  57.8975716  27.4797344  89.5078735
  70.5545883  59.1003952  57.5751839  71.1855469  58.3807678  57.5913544
  70.9578934  59.7845955  58.1094551  11.8632669  23.4206028  74.8492126
  11.8983831  24.3635807  74.6886139  10.9310808  23.2061348  74.8136368
  38.8823814  53.7973557  22.9102917  38.0376663  54.1965561  22.7021542
  39.0249672  53.1599464  22.2105675  76.5226059  44.2286873  34.4074287
  76.1400452  43.6022339  35.0217896  77.1801682  43.7238350  33.9289284
  58.3038673  58.1137962  84.9789276  58.2600632  58.8336906  84.3495941
  57.5873222  58.2857895  85.5898361  24.7485504   5.4234586   8.5194712
  25.4724827   4.9100537   8.8780375  25.1708736   6.1751213   8.1036854
  16.6099472  11.3911009  57.7303391  16.3898067  10.5143452  57.4155884
  16.5751839  11.9420443  56.9483643   4.3118782  26.8072414  52.2777405
   5.1413274  26.4470978  51.9638290   3.8863943  26.0750179  52.7238846
  75.1420441  66.2726135  59.9191475  75.6108093  65.4540329  60.0816956
  75.6849899  66.9452438  60.3302574  45.6619339  37.7929192   6.9982324
  46.2826729  37.4023895   7.6133733  45.9195023  38.7135582   6.9501085
  82.5855789  47.6796722  72.6334229  82.9013443  47.0182076  73.2490387
  83.1009903  48.4605026  72.8356247  51.9505844  63.1823921  75.9546890
  51.2336082  63.5690575  76.4573441  52.5488510  63.9114685  75.7911072
  37.8764420  33.2884712  75.1754379  37.5239716  33.9327354  74.5615082
  38.8180428  33.4600945  75.1883774  54.6681747  56.0995674   8.6400776
  54.7199173  56.7663383   7.9552617  55.2096138  56.4434471   9.3505840
  28.0917702  50.0834656  29.4925423  28.3538704  49.4998398  30.2045250
  27.8268795  49.4949493  28.7856369  23.3061333  13.9478168  27.2220440
  23.6124306  14.8545933  27.2089653  23.7195358  13.5665159  27.9966011
  60.4422646  19.5308037  65.7523041  60.0154228  20.3599224  65.9681778
  60.3892403  19.4754143  64.7981796  79.7354507  31.3566265   5.6667280
  80.2127838  30.6084976   6.0254679  80.1233826  31.4963570   4.8028889
  35.0114174  25.0069351  23.7689991  34.5265808  25.8227711  23.6441879
  35.0059853  24.5908184  22.9069958  81.5954208  27.0291443  60.2549553
  81.5324173  26.1963062  59.7873650  82.4807358  27.0331211  60.6188774
  83.1001816  57.9289360  43.9100342  83.9697647  58.1634140  44.2341957
  83.2698288  57.3949547  43.1339455  71.2612762  45.5413742   0.6951412
  70.3545151  45.2428169   0.7649545  71.2675552  46.1101837  -0.0746948
  74.8761215   4.5392613  62.2576103  75.2422180   3.7356546  61.8882599
  74.7298203   5.1060061  61.5002289  49.4160156  58.5966339   4.3678145
  49.0854759  59.2895393   3.7961006  49.0553894  57.7899971   3.9996874
  33.1707306   4.5005417   0.6050507  32.6545792   3.8546307   1.0873553
  33.0405960   4.2721982  -0.3153604  49.2436562  62.6081772  80.4890366
  48.4323502  62.2495689  80.8487778  48.9710197  63.4010582  80.0272598
   3.0731575  15.4191542  88.5351105   3.6922467  15.8713169  89.1082687
   2.4307854  15.0351696  89.1318893  28.6366730  59.0226898  14.5420408
  29.1838322  58.2400589  14.6078930  29.0865192  59.6752815  15.0786915
  27.0690956  25.8417473  15.4229059  27.6533871  25.6618385  14.6863813
  27.3104038  26.7222424  15.7105341  22.7245255  52.7902946  15.8848848
  23.0535564  51.9794426  15.4969473  23.3772659  53.0217896  16.5456200
  46.3314514  42.6801262  38.3848686  45.7482986  43.1234283  37.7687149
  46.4358788  43.3016663  39.1052971  46.2495003  33.8777847  88.8866043
  45.3157959  33.6684227  88.9110489  46.4410591  34.0101318  87.9581528
  44.4931068  25.7366371  19.7104263  45.3044930  25.2344208  19.6351948
  43.9752884  25.2594166  20.3587761  39.6355972  64.5585022  74.8170013
  39.8328209  64.5345917  73.8806458  38.7179184  64.8270187  74.8617020
  34.9069214  54.4872475  72.9255600  34.7813225  53.6661835  73.4012756
  34.0208473  54.8218384  72.7871704   0.9945426  47.0765228  55.5850639
   0.1115268  46.7318344  55.7181244   1.1399742  47.0049095  54.6416893
  63.5856247  65.3863754  52.7376404  64.1635895  64.6260529  52.8016624
  63.7960091  65.7763901  51.8891945  39.7911873   8.7933388  28.0242634
  39.5492401   8.1953087  27.3171196  38.9912796   9.2871952  28.2045021
  13.6081915  35.3564720  22.6496754  12.8852749  34.7429276  22.5185776
  13.9303675  35.1624489  23.5298977  57.1909523  16.1729298   2.6031692
  57.1505127  15.4022894   3.1694827  56.3536377  16.1735134   2.1393416
   5.9389462  16.2008743  71.1523819   5.6980453  17.1212234  71.0467529
   5.7772064  16.0156021  72.0774460  52.8486748  63.8833847  28.4075069
  52.8491974  63.1770134  29.0534706  52.5401611  63.4702377  27.6010571
  51.9484711   4.6107411  34.6096001  52.5968971   3.9103706  34.6821022
  52.1910095   5.2335672  35.2947960  12.6188335  31.8679600  51.9747124
  13.0439377  32.5985756  51.5255814  12.0784807  31.4546375  51.3013535
  62.7442703   7.9937673  49.1494408  62.9220314   8.2519741  50.0538559
  61.9279900   7.4962549  49.1984291  28.5992489  46.3861008  75.9866104
  27.8904324  46.8257637  75.5170288  28.9114437  45.7171669  75.3772659
  69.7364731  55.7690849  79.9204102  70.1083908  56.6304131  80.1101990
  69.2236328  55.5527649  80.6991501  15.6699123  50.9387131  71.4846802
  15.1213446  51.5054131  72.0270462  15.2061129  50.1015549  71.4675980
  54.6258163  10.2736235  88.5419540  54.7970276  10.1530428  89.4759598
  55.3134346  10.8709011  88.2475510  19.4422016  67.3758621   6.1626177
  18.9432373  67.7203979   5.4219689  19.8102398  68.1518707   6.5852065
  42.1339684  26.6689911  15.3290110  42.0846024  26.2713451  14.4597168
  41.2364464  26.9423275  15.5186787  55.6032066  65.8620987  14.8963356
  56.2072144  65.8983841  14.1546555  55.1558990  66.7082443  14.8825598
  50.4988213  20.3525333  22.7510834  50.8368187  19.5724106  22.3113136
  51.0879440  20.4827538  23.4941883  45.4163589  19.4793987   5.9501452
  44.4878197  19.4053001   6.1705050  45.4843330  19.1070290   5.0709682
   6.4216332  54.8383598   4.2225614   7.0814476  55.4128914   3.8342452
   6.8890786  54.3699188   4.9141469   4.1001744  61.5638542  87.2382355
   4.7696457  62.2348824  87.3715210   4.2591739  61.2396355  86.3517685
  58.7830353  12.8622112  65.3777618  59.5092087  13.0885372  64.7966614
  58.9643555  11.9621239  65.6483078  61.2777252  31.8725739  58.7006836
  60.9296265  31.4513054  59.4865532  61.7527428  32.6361313  59.0286674
  28.3525982  16.5808964  22.7421303  28.3154182  16.8367424  23.6637554
  28.1497383  15.6454430  22.7448750   8.8985577  12.1527863  24.0332222
   8.6024590  11.3120070  23.6844425   9.7810650  12.2616606  23.6788788
  12.5620728  67.7125397  89.2093506  13.1752176  68.4003677  88.9501495
  13.0995264  66.9227524  89.2693863  49.0904694  11.7424698  84.1194992
  49.4215698  12.3596373  84.7719574  49.3420906  12.1247740  83.2788086
  82.0916748  39.5267334  11.6595230  81.8736572  38.5952721  11.6924000
  81.3350983  39.9351006  11.2387381  42.9351997  18.0640526  20.2427235
  42.1437836  17.6333332  19.9196529  43.0108795  17.7751484  21.1521397
  57.0792084   8.1550503  12.2837334  57.4746399   7.8771172  11.4575262
  56.5648880   7.3998837  12.5690966  27.3158722  16.5912724  77.4218140
  27.7576675  17.4386139  77.3664856  27.9890003  15.9541292  77.1827011
  55.2625771   0.9634694  37.9663925  55.5446358   0.5189735  37.1669579
  56.0681152   1.0877427  38.4682846  43.7084465  43.6160927   3.5889094
  43.9002953  43.0444412   2.8455088  42.9178352  44.0892181   3.3294549
  52.0488319  69.6234283  79.5494156  51.9914551  70.3055344  78.8803329
  52.9036026  69.2175446  79.4049835  42.5396385  53.0400734  60.7887421
  42.4020119  52.1271210  60.5361290  42.6556091  53.0109253  61.7384453
  74.8524780  33.2711105  78.4229431  74.9668579  32.4202843  77.9995651
  75.0265884  33.1031265  79.3490601   4.0199337  28.3920231   3.2755682
   3.7904718  27.4627380   3.2727032   3.9037066  28.6646214   4.1857400
  81.1284637  71.4414444   1.9154596  80.8392715  71.5153809   1.0059911
  82.0596313  71.6616364   1.8893503  78.7361069  48.5278358  16.6670570
  77.8558884  48.1521072  16.6503220  79.0937958  48.3386879  15.7995815
  39.5503082  50.9683113  61.4684448  40.0914459  50.3202820  61.9195061
  40.1495323  51.3972931  60.8575935  56.7625275  26.5455799  78.3340073
  57.1546669  25.6904373  78.1573868  57.3352928  26.9405460  78.9914093
  19.7189827  34.2260971  16.3646526  20.0287151  35.0646400  16.7069149
  20.3133125  33.5784912  16.7436085  74.2824402  58.7219620  33.2701797
  74.6801758  59.0554085  32.4659081  73.6111374  58.1095200  32.9693413
  81.7235794  47.6602249  66.8070679  82.2997894  48.3848534  66.5639038
  82.1316605  47.2804565  67.5851898  42.0659332  40.3648186  84.6695328
  41.4759331  41.0108643  84.2812653  42.9211502  40.5610924  84.2870331
  70.8149185  38.8113213  11.9570742  70.8061981  39.7002487  11.6021605
  71.5782013  38.7913780  12.5343304  42.8389091  64.0070877   3.9584248
  42.3091927  64.3725967   4.6669707  42.8515854  64.6927490   3.2906344
  50.6932144  57.7955055  17.6537724  51.5106125  57.3172188  17.7928085
  50.6119308  57.8593025  16.7021656  40.9103661  15.9754753  80.2813416
  40.6370277  15.6749697  79.4146118  40.9219475  16.9300346  80.2112427
  73.2196274  42.1139565  39.2946701  72.4090576  42.2260513  38.7980270
  73.6346054  42.9762688  39.2736282  32.8751373  20.9016609  86.2435989
  32.1607018  20.3161926  86.4946823  33.6084824  20.6363907  86.7986298
  21.2350159  32.0230942   7.1315784  20.4313869  31.7781563   7.5902901
  21.8310299  31.2898598   7.2844305  54.3056107  61.0610199   9.2633314
  54.3406677  62.0095329   9.3871145  54.6978493  60.7010078  10.0588026
  60.5593910  12.9846649  75.0929642  59.6449623  13.0094385  75.3748169
  60.9263420  12.2203465  75.5372620  27.7268562  52.9020309  29.8118668
  27.1077881  53.2889977  29.1928005  27.7836895  51.9828720  29.5508213
  37.1871567  32.8780251   0.6892622  37.7386551  33.6603813   0.6891149
  36.6864891  32.9380684   1.5028696  68.0177689  68.0138931  48.5894661
  68.0237961  68.2408142  49.5193596  68.9299393  67.8051910  48.3879395
  18.1422653  16.6818867  25.0796185  18.9273891  17.1918354  25.2790298
  18.4321651  16.0391140  24.4322910  28.2856064   6.0048056  44.9263649
  28.7254944   6.7942700  44.6109695  27.3648224   6.2562199  44.9983406
  19.4210148  39.2095184   8.3403034  19.4068527  38.6772919   7.5448399
  19.9970531  39.9436455   8.1270666   1.6094685  56.6072578   5.1375971
   2.0865581  55.8413239   5.4569111   0.9398185  56.7667427   5.8027024
  56.6440811  26.1805592  71.0349274  56.0929298  25.4870548  71.3975754
  56.0259018  26.7979298  70.6438522   5.9911752  34.0991974  56.6782684
   6.5663576  34.8562775  56.7888412   6.4122705  33.5760727  55.9961739
  52.6519585  31.1774311   0.7890470  53.1987534  30.8063240   1.4815242
  52.3073120  31.9877338   1.1643649   3.8683071  21.7269821  29.9040375
   4.4175277  21.1275063  30.4092274   3.0028448  21.6558495  30.3067131
  39.6898270  69.8733063  87.2314529  40.2933960  70.2278900  86.5786133
  39.1163330  69.2892914  86.7352142  47.2016907  10.3872242  13.1861753
  47.6272850  10.4837589  14.0381041  46.3209839  10.7385263  13.3172302
   5.9239244  37.2804070  46.7349586   5.0518370  36.9175529  46.5799370
   6.4323273  37.0182228  45.9674835  37.2293434  43.0352440  18.2013302
  37.2765732  43.7012863  17.5154839  37.6047440  42.2513885  17.8002319
  37.3706017  27.1696701   4.3334799  36.8785858  27.5707016   3.6170132
  38.1902161  26.8833714   3.9303665  74.4093094  21.4651794  15.4271317
  73.6961670  21.5524960  14.7946529  74.4001083  22.2893925  15.9137745
   6.1083846  33.1051674   7.0370913   5.7371430  33.0948830   7.9193082
   6.6348367  32.3071632   6.9894543  44.7186470  56.8490028  18.9746552
  43.8534775  56.8242378  19.3834305  45.0975761  57.6782990  19.2660522
  58.0642433  26.0215473  52.2099457  57.8713951  25.9214725  51.2777290
  58.2779350  25.1369343  52.5066338   4.1972728  16.4857616  18.4183426
   4.5135846  16.6104965  19.3131161   3.2787135  16.7531662  18.4495640
  62.8677406  54.8368835  80.0509644  63.1451340  55.4771271  80.7062302
  62.0443001  55.1853104  79.7092361  25.2706280   4.0208759  21.8131466
  24.8953915   3.6992948  20.9933815  26.2145214   3.9021180  21.7073479
  20.3321609  54.3782959  75.3261032  20.6952934  53.9526901  74.5494308
  19.3876667  54.3934135  75.1714096   1.8895549  52.7964592  62.4469833
   1.3542386  53.5181580  62.7768669   1.3421234  52.3757973  61.7839661
  61.0104523   7.8361301  78.7974014  61.8194847   8.1093321  78.3648911
  60.7922630   8.5642004  79.3792419  84.5007019  55.1487846  78.9027481
  84.4300232  55.5044632  78.0168991  83.8538513  54.4437523  78.9300842
  80.6734619  53.4136734  83.2039032  81.0472794  54.2138176  82.8347549
  79.7472839  53.6188126  83.3317108  74.1766129  11.6393871  20.3179264
  73.5344467  10.9696159  20.0828323  74.5151825  11.9516068  19.4788074
  52.2506218  34.7138786  61.8649025  52.9612083  34.0914536  62.0194473
  52.4713478  35.1269302  61.0300980  13.7906780  14.0880413  87.2553558
  14.3161688  13.4164419  86.8205566  13.9821739  14.8919449  86.7723389
  57.4577789  63.6009827  56.2827721  57.5810547  64.1054153  57.0868759
  57.7671127  64.1805801  55.5866356  50.9082794  31.1212101  87.7881622
  50.6899872  30.2012444  87.6390228  51.5076675  31.1072254  88.5343323
  73.0076218  66.8922348  15.1269989  73.4531631  66.0886612  15.3953161
  73.6970215  67.5562057  15.1163425  74.6393509  69.0369339  73.0155106
  74.3361893  68.1898422  72.6887589  73.8673172  69.6010513  72.9709778
  38.5781860   1.0754855  83.4884186  39.1886826   0.3597967  83.6653671
  38.8898430   1.7968197  84.0350266  40.2468491  59.1518478  29.1964931
  39.8680077  58.5643845  29.8504028  40.3199234  58.6159248  28.4067612
  16.6491585  66.7189331   7.8015847  17.2273331  65.9883652   7.5819960
  16.7381039  66.8182297   8.7494564  28.2862434  62.2229805   5.6288109
  28.1728573  63.0652657   6.0691910  27.4422550  61.7833176   5.7318163
  19.9314556  46.5865784  64.8691559  20.6370411  45.9751129  64.6582260
  20.3578224  47.4430389  64.8995209  22.4141655  32.5767059  83.8314209
  21.8858356  32.6675339  83.0384140  22.8020172  31.7043438  83.7621994
  11.3307390  33.3444061  89.2355423  11.2187271  34.2892914  89.3398438
  11.3106012  33.2038803  88.2889252  68.8464355  66.5918732  85.2473755
  68.1482391  67.1744003  85.5463867  68.9559021  66.8051834  84.3206863
  14.8745680  62.5663490  45.6783104  14.1133642  62.0298500  45.8995972
  14.5031557  63.3826942  45.3438454  34.2470970  54.0108528  55.2879066
  34.9600754  53.5575523  55.7378082  33.4658661  53.7919846  55.7958488
  29.8052464  51.1435051  67.8483124  29.1513157  51.1363792  67.1493454
  30.5051842  50.5749512  67.5272675  31.2003841   2.6779804  56.9451561
  31.4701519   3.5959675  56.9176521  31.9997311   2.1875870  56.7533531
  30.4673824  57.4076538   8.9792023  31.0681705  56.7674408   8.5978737
  30.7595291  57.4997597   9.8860636  34.3763313  34.8578339   7.7791786
  33.5095253  34.4671097   7.6686478  34.8575745  34.2258835   8.3132915
  54.1423264  24.4564381  20.4885750  53.5002899  23.9550934  20.9912395
  54.6727638  23.7926044  20.0479012  48.1677551   9.1292009  69.2022781
  48.7336884   9.4577456  68.5037003  48.7186470   8.5153971  69.6880722
  73.6078033  40.2949486  62.5194435  74.3727722  40.6056900  62.0352020
  72.8647766  40.5044556  61.9535370  54.6952744  36.3538818   8.4271965
  55.1106720  35.9020004   7.6927042  53.8485985  36.6400414   8.0844345
  50.2501450   8.6018305  88.7013397  50.1671753   9.4795809  89.0740356
  51.1014099   8.6069374  88.2636795  75.4076157  69.0471725   3.5362694
  75.7843628  69.6810608   4.1465731  76.0863113  68.3798676   3.4347472
  69.8349686  28.5473423  76.6809998  69.6654663  29.2233448  76.0248642
  69.6641388  27.7230797  76.2253265  53.3991356  50.0732765   2.7045898
  53.2695961  50.6282120   1.9354988  52.5148544  49.9045563   3.0298817
  45.7804070  60.8687401  25.2970009  44.8865128  61.1575241  25.1131706
  46.1282616  61.5314407  25.8937054  38.3540344  47.7416191  24.5733490
  38.9958725  48.4413872  24.6941738  38.7030678  47.0067673  25.0777283
  21.2491646  29.0901508  60.9738121  22.1910572  29.0462284  61.1385574
  21.1423264  29.8443012  60.3940926  21.9310265  24.1677685  78.8474350
  21.0975323  24.5438728  79.1303940  21.7652245  23.2262173  78.8003082
  49.3981667  46.0184021  84.8383255  48.4620628  46.1018257  85.0199509
  49.5239868  45.0880051  84.6518860  22.1491318  20.8918400   0.0785606
  23.0595207  20.7264824  -0.1665506  21.9249268  20.1711941   0.6673182
  66.1558609  22.1263866  83.0840836  66.0787125  21.3892097  82.4784012
  67.0931549  22.1879749  83.2682648   3.4954100  50.7499237  13.1367350
   3.1510696  50.0614471  12.5678234   2.7785389  51.3798141  13.2113380
   1.0378063  17.1885300  81.0546494   0.2219002  17.6454697  80.8503571
   0.8962483  16.8248005  81.9286652  41.5820656  46.7341309  64.5471497
  42.3046608  46.9732170  65.1276093  41.9453621  46.0539017  63.9801102
  25.3057175  22.8780117  21.4792290  25.2024765  23.7719288  21.1529026
  25.8016968  22.9755573  22.2920761  80.2092972  71.1888962  38.7583694
  79.7050247  71.9973831  38.6673088  80.1691742  70.7827835  37.8925209
  73.0417480  12.9840479  70.2913284  72.2790909  12.8482552  69.7290649
  73.1926117  12.1318455  70.7002563  10.4201469   5.7124796  71.3268204
  10.6838131   4.9312701  70.8405838  10.1659555   5.3835092  72.1890259
  61.8350029  26.8468456  35.5475044  62.5987282  26.3355560  35.8149719
  61.9188004  26.9231987  34.5970421  76.4177017  34.8063660  35.6568947
  76.6711807  35.5123405  36.2515182  76.6580811  34.0044365  36.1209717
   0.9800695  65.1179886  75.5525818   0.2371289  64.5761719  75.8184814
   1.6107056  65.0269470  76.2668915  23.5076923  47.7614746  25.4817543
  23.0982933  47.0564995  25.9833851  23.8935986  47.3229904  24.7234421
  52.0713921  31.2520676   5.2279549  52.5400124  31.6406479   5.9666238
  52.3957939  31.7262344   4.4623427  58.9217529  41.7056808   6.6065602
  59.8173714  41.8669815   6.9033518  58.4536324  41.4321289   7.3953977
  66.8434677   2.1638093  42.1390839  67.7602234   2.1212800  42.4110565
  66.3475494   2.0359130  42.9477501  70.3878479  63.2988091  33.6821289
  69.5162964  62.9064217  33.7337227  70.9683990  62.5663948  33.4753380
  21.5799980   6.6239309  57.8854370  21.2815170   6.6663508  58.7939186
  21.0321541   7.2584972  57.4234581  23.5767765  30.4177952  13.5415010
  23.8961105  29.6769943  14.0567379  22.6389198  30.4537811  13.7295456
  81.2864075  22.5772572  67.5267410  81.6111603  22.3823261  68.4058151
  80.4012070  22.9131927  67.6674500   4.8716369  33.0574989  85.4385452
   4.9369469  32.8656082  86.3740311   5.2116909  33.9481010  85.3524094
  61.3517036  15.3511009  50.4716949  61.8557777  15.2028408  51.2717972
  61.2763977  16.3032742  50.4090385  65.5217133  27.0769539  32.5004120
  65.2327271  27.9502563  32.7651062  66.4046936  26.9972401  32.8612823
  29.2807083  58.0944405  65.9022598  29.9150734  57.7994614  65.2489624
  29.3783226  57.4766998  66.6268997  10.5671358  50.8034668  65.3567505
  11.0208044  50.0090179  65.0752029   9.7301989  50.4919853  65.7013550
  36.8099937  23.1855888  22.0617676  35.9817467  22.7062206  22.0406780
  37.2592659  22.8534012  22.8389645  20.1350746  68.5096054  84.1066589
  20.3663826  68.5995941  83.1821976  20.3949947  67.6165466  84.3327484
  53.7351761   9.5172224  62.8470688  54.0939293   9.6244326  63.7280006
  54.4679680   9.1844320  62.3288994  55.8227005  12.2299557  73.1661911
  56.0161934  11.5401106  73.8009338  56.5377846  12.8578377  73.2694092
  81.8365555  31.8349915  84.0617599  81.7371445  32.2149048  84.9346924
  82.7756195  31.8865662  83.8836288  79.1833191  59.2380829  44.9412613
  78.2731705  59.1434097  44.6603622  79.5176620  59.9726105  44.4265633
   2.0419230  40.5570869  58.8679962   1.1768184  40.6707268  59.2615852
   1.9085535  40.7432899  57.9386024  78.3262863  47.1807747  39.5550270
  77.4839630  47.6173820  39.6818695  78.0983887  46.2695389  39.3707809
  19.7847519   2.2347915  12.5913019  20.6044903   2.7194088  12.6882877
  20.0569592   1.3244491  12.4754925  84.1569138  11.5456381  72.1648865
  83.8039017  12.3496952  72.5458145  85.0942917  11.7158899  72.0723495
  13.9213085   2.9815147  61.2091599  13.8400803   3.5413063  60.4369774
  14.8129787   3.1333818  61.5223579  77.5578384   2.2536709  79.4954910
  77.3894730   3.0856502  79.9378662  78.3895569   1.9521205  79.8609161
  57.2841530  51.0972633  47.9022408  57.4543266  51.9433403  47.4882011
  57.3675346  51.2685699  48.8402863  15.8850956  24.0270367  13.3924494
  15.0130157  23.6929207  13.1825094  16.3424988  23.2785740  13.7756166
  74.0109024  65.2471313   8.4367857  73.2381134  64.7838974   8.7599764
  73.9714508  66.1040955   8.8613863  83.7031937  64.3424072  43.3768997
  83.6985931  64.8644104  44.1792221  82.9218750  63.7934990  43.4438095
  25.5665207  58.7757492  81.1706314  25.9919949  58.6096725  82.0118408
  26.2716522  59.0865402  80.6028061  42.3986015   1.8946480  29.5954552
  41.5540543   2.0991201  29.9969101  43.0460892   2.2241037  30.2187119
  27.8450642  45.1194534  83.4110184  27.5951176  45.0796089  82.4878845
  27.5650349  44.2781067  83.7714996  56.9550209  11.0779295  76.7100372
  56.0877228  11.4493961  76.5486755  57.0016937  10.3178234  76.1301270
  82.0911865  54.7816620  45.9486885  82.9990311  54.7022514  45.6558571
  81.6421509  55.2139511  45.2222443  61.2278786  27.4395409  77.1132736
  61.4768639  28.2471695  77.5626907  61.5754128  26.7403889  77.6670227
  25.0313377  26.9976196  73.6547241  25.4161034  27.5002174  72.9366837
  25.5652905  26.2047901  73.7051849  47.4319344  39.9008636  71.5407639
  47.1846581  40.4639397  70.8072586  48.3184853  39.6081009  71.3297119
  12.0600843  31.6804733   6.9182324  12.3877783  32.2874336   6.2545681
  12.8407927  31.4092083   7.4010782  32.0330162  34.9250336  69.3458710
  32.8985710  35.1105118  69.7100754  32.0810585  34.0102959  69.0680618
  82.7460556  47.6974449  26.1648979  82.5656815  46.7922707  25.9112167
  83.5014114  47.6363258  26.7496471  71.8254929  21.7103596  84.0737000
  72.2934341  22.1812115  84.7633057  72.2939072  21.9353046  83.2698135
  24.3537292  18.4425983  11.4120941  25.2558041  18.6087914  11.1384630
  23.8389359  19.1096897  10.9579906  50.4196320   4.7118878  87.9881973
  50.8652191   5.4125419  87.5119934  51.1277733   4.1994896  88.3783417
  28.7566872  53.4273376  65.1605225  28.3857479  53.6256676  64.3006973
  29.6545601  53.7560310  65.1156235  41.0905228  60.8131218  70.9903488
  41.9945908  60.5240364  71.1141586  40.8542938  60.4943314  70.1192627
  65.2414169  13.3825121  51.0295868  64.8226776  13.5874920  51.8655701
  65.0254440  12.4633121  50.8725510  83.8695450  48.3865776  84.6405487
  84.5794678  49.0247841  84.7108078  83.0924454  48.9125671  84.4516296
  40.5466919   2.6897345   5.9877234  39.7853966   2.7426538   6.5655284
  40.1805954   2.4848812   5.1273508  46.2073174  15.8759298  70.1833954
  45.7063560  15.6286945  70.9606628  45.6257591  15.6757526  69.4499435
  55.3129997   3.1496570  35.6276169  55.4414635   2.5622981  36.3724251
  54.6940613   2.6876416  35.0622101  69.6214294  24.2411461  80.9044342
  69.4546890  24.4345074  81.8269501  68.8522110  24.5793400  80.4459991
  74.1725769  71.8266220  32.5318108  73.8910217  70.9132233  32.4802666
  74.8088760  71.9214783  31.8230419  12.5407352  13.9701900  57.7970543
  11.6264639  13.8553247  57.5379295  12.5750113  13.6554527  58.7003822
  67.1458282  28.9345360  73.2372742  68.0643768  28.6662464  73.2145233
  66.8602524  28.8887367  72.3248138   9.3635101  48.0782318  17.4714832
   9.6187305  47.7165108  16.6228065   8.6145439  48.6414375  17.2763386
  67.4831924   1.7813853  35.6718407  66.6782379   1.5034592  36.1089211
  67.2993546   1.6715512  34.7389030   2.8178220  68.9781570  20.7306843
   2.8117237  68.0795670  20.4009399   1.9566379  69.0915604  21.1328449
  44.6839905  47.2150726  63.7993317  44.2873840  46.3465080  63.7320518
  44.5947723  47.5877113  62.9221687  41.7914314   0.0211409  86.3358459
  41.3059311   0.7137844  85.8877716  42.3783684   0.4868880  86.9315109
  77.3216934  38.6198502  13.1145267  77.3292465  38.4407158  12.1742687
  78.2463531  38.6484680  13.3603306  67.6724548  67.3042526  68.3335114
  68.3379211  67.1235275  68.9973831  68.0875244  67.9332428  67.7433243
  46.7467804  44.8907356  28.1350327  45.8681831  45.2542419  28.0247402
  46.9903870  45.1208801  29.0316486  63.8381577  54.2733650  54.3686295
  63.7944794  53.3445778  54.5959625  64.7195206  54.3921089  54.0146179
  20.1258526  11.5821161  73.8442001  19.6730900  11.0995617  73.1525497
  21.0447025  11.5795288  73.5759811  27.7863846  14.8323278  50.0070572
  28.4223366  15.5189571  50.2078972  26.9402943  15.2798843  50.0145569
  76.7398911  57.2004013  47.7552681  76.0123215  57.1857681  47.1334419
  77.1015930  58.0834274  47.6799622  84.5814362  61.2382317  18.6855259
  83.7630539  60.7565269  18.5653687  84.9440536  61.3181686  17.8032837
  82.1997528   9.0384874  65.1267471  82.7309265   8.7825661  65.8807983
  81.8665314   9.9070253  65.3522186   1.9595122  41.7896729   8.2646341
   2.3871126  42.1833725   9.0251541   2.4282243  42.1512871   7.5124531
   7.3478785  24.4289017  67.3734512   7.4236317  24.9517136  68.1716766
   8.1954441  23.9915562  67.2922516  28.7888184   3.4380784  49.3091850
  29.1153374   3.8136747  48.4915390  28.6700573   4.1910949  49.8880577
  32.7628822  19.5613289   8.7478704  32.0235672  20.0468712   9.1137819
  33.3169098  19.3636742   9.5029993  46.0054245  54.3554153  42.0244217
  46.6172638  54.5978966  41.3293762  46.5575790  53.9753647  42.7077370
  53.4590263  71.4328690  56.5008278  53.4653778  70.8181534  55.7671318
  53.0342026  70.9529190  57.2117462  74.8434753  62.4977722  25.7247334
  74.0695801  62.5464630  25.1635380  75.0739288  63.4111366  25.8947029
  13.8821287  58.8628082  21.0227757  13.6320171  59.0610046  20.1203365
  14.7912874  59.1548347  21.0889816  13.8219614  63.6279526  67.8092194
  14.1822309  62.8308144  68.1978226  13.0276203  63.8026047  68.3139496
  37.0853348  60.2293243  38.8336868  37.9858627  60.4500122  38.5958328
  36.8562431  60.8605194  39.5158501  10.8111391  64.8145828  44.6522102
  10.8148556  64.2613831  43.8710670   9.8835840  64.9388885  44.8532562
  80.0008469  43.4785652  55.8757515  79.2517395  43.1181450  56.3502731
  79.7857056  44.4034882  55.7555046   2.3254254  48.9617119  79.2661743
   2.6820581  48.1643372  78.8747177   1.4160790  48.7426872  79.4695206
  50.8309097  47.9048691  17.2754631  50.5503502  48.4564667  16.5452156
  51.5918388  48.3576508  17.6390724   5.2751966  14.6942348  12.2523117
   6.0549049  14.4058704  11.7778301   5.4258933  14.4122200  13.1545258
   9.9641609  48.1271667  22.8874073   9.7060633  48.7475128  23.5691605
  10.7173948  48.5376854  22.4627399   1.3961251  13.0759697  19.1854858
   0.7549120  13.7469063  19.4198399   2.2008181  13.3495121  19.6257992
  33.3782692  54.9206505  11.4395971  33.3691101  55.6783600  12.0244265
  34.0333939  54.3341103  11.8177700  37.8223152   4.3568511  14.6062946
  38.0520744   5.2526584  14.3593664  37.4689064   3.9706695  13.8049221
  13.3939848  56.6260681  58.2340355  14.1094770  56.9521790  57.6881828
  13.3470669  57.2452698  58.9624710  69.9871902  12.2781448  45.7880211
  70.2319946  11.3708534  45.6060181  69.4731445  12.2304392  46.5940704
  41.6978188  68.6047058  66.7684326  41.4081497  69.3940659  66.3110199
  42.3820839  68.9104080  67.3638763  59.9654884  55.8254509  11.9769392
  59.1597481  55.3492432  11.7763300  59.9356689  56.5961494  11.4100513
  17.1617279  67.1967697  32.1382523  17.2588348  66.2580338  31.9783077
  17.3671513  67.3040009  33.0669785  36.7778091  39.9809570  68.0628815
  36.5095673  39.4589729  68.8190613  37.1487885  39.3443604  67.4518585
  77.5475006  57.0843468  86.3513412  76.7702332  57.6317444  86.4628983
  78.1242599  57.3376160  87.0720596  40.2941208  36.0794563   5.1216755
  40.6642189  36.0606728   4.2391186  40.6672783  35.3114433   5.5542731
   9.8255787  39.5446815  16.1627541   9.8634844  40.1749535  15.4433432
   9.7720566  40.0844078  16.9514637  45.7062454  48.6396217  88.0157166
  46.1494064  48.0579033  87.3981018  45.3538055  49.3434639  87.4710846
  73.7786484  30.6907330  35.0033379  73.8984146  31.6107903  34.7680054
  72.8950272  30.6501312  35.3691101   3.7666788   3.1695309  18.1245480
   3.4147031   3.9801402  18.4923210   4.1861172   2.7325549  18.8657322
  68.2215805  47.8590317  77.9784088  68.2132187  46.9570847  78.2988052
  69.0477371  48.2198448  78.3001328  75.0124283  40.6056252  40.4948692
  74.2346344  41.0909958  40.2197685  75.2221375  40.0456810  39.7473946
  27.9934635  59.8686752  51.1542358  28.2929478  59.6881905  52.0452805
  27.0843735  60.1492920  51.2593307  29.0807228  58.1740150  78.4785538
  29.3231335  57.6305809  79.2283173  29.8480453  58.7249908  78.3240356
  33.3047600  48.1546822   1.1782447  34.2262917  48.3804703   1.0516354
  33.2329483  47.9558907   2.1118169  25.0000172  50.8313255   3.7615929
  24.2695122  51.0295029   3.1756577  25.1047421  51.6226044   4.2899313
  35.8449554  55.0680008  44.1569557  35.7480240  56.0016365  44.3444710
  35.2953835  54.9199562  43.3873558  79.7157288  13.6988029  87.6903687
  79.7230759  13.6171846  86.7366791  80.1736298  14.5212650  87.8638992
  33.1855812  50.6650162  22.9096184  33.3263588  49.7195969  22.8586082
  32.3027496  50.7947464  22.5631924  67.9439926  63.5713844  48.9151421
  67.7396851  64.2886276  49.5151825  67.8879471  62.7834816  49.4557877
  69.1022415   6.4803443  18.3058472  68.4493790   5.9971752  18.8123550
  69.7544174   5.8220716  18.0658951  82.2957840  23.0429745  64.4038010
  82.1610184  22.5470390  65.2113342  81.9966049  22.4559422  63.7094498
  47.3216248  54.9092903   0.1791672  47.4281616  54.5136185   1.0442252
  48.0252228  55.5558586   0.1232278  23.5543098  11.1082182  82.6258926
  24.1662025  11.2009249  81.8956680  23.4776573  11.9910812  82.9877014
  25.5705948  71.3289108  14.3983498  25.9471893  71.6891403  15.2012463
  24.6881332  71.0558624  14.6492281   9.2529545  33.2012253  58.1230164
   8.3079672  33.3157692  58.2235603   9.3535309  32.7778473  57.2704506
   3.1232333  10.2250109   6.4249463   3.1573517  10.6838655   7.2643032
   2.5577536   9.4700079   6.5875340  14.7461996  55.1949768  60.2882500
  15.6003752  54.7761078  60.1825943  14.3658047  55.1881447  59.4099083
  61.1659584   4.0082364  39.4324989  62.0796165   4.2468238  39.2758560
  61.0251884   3.2312222  38.8915176  79.4134674  40.4492340  67.2718124
  80.2374496  40.2640114  67.7223358  79.4502029  39.9171257  66.4769897
  54.3476105  47.1204147  36.9769592  54.1861801  46.5640717  37.7389641
  55.2236328  47.4776649  37.1225090  22.8493366  37.9059067  20.8570652
  23.5751400  38.1572914  21.4282455  22.5974407  37.0334587  21.1597443
  83.4165726   7.1933403  59.9562149  84.0597839   6.5302052  59.7056961
  83.6517868   7.4280849  60.8538818  20.1434307  65.2756729  69.9609451
  19.3798599  64.7909317  70.2743378  20.7256222  64.6030655  69.6075363
  78.0625229  50.9842262  63.6070251  77.3555450  51.6269684  63.6645164
  77.8838882  50.3675461  64.3169708  48.8172340  69.7719193  52.9018517
  49.4888306  70.3360062  53.2852516  48.8717842  68.9590302  53.4043159
  34.2369881  48.3624649  45.9441071  33.6228828  48.5955391  46.6403694
  34.2120476  49.1073494  45.3434792  82.3848343  10.8182859  70.1361618
  82.7765579  10.9689560  70.9964447  81.4691925  10.6110220  70.3228989
  68.7268295  67.1340408  18.5807343  68.1657944  67.5602493  19.2286720
  69.6173630  67.2916946  18.8942890  73.7835541  35.9904747  36.1186295
  72.9898605  35.4873695  36.3007545  74.4963226  35.3607407  36.2264404
  83.9686508  12.0243292  46.5101395  83.3166962  12.6396313  46.8456841
  84.0760193  11.3826218  47.2122192  12.3613672  68.9099960   8.9056997
  13.0526152  69.5442505   8.7156067  12.4149427  68.2758484   8.1907063
  14.8450155   8.7329159   3.0397897  14.5886517   8.7948742   2.1196427
  14.1014233   9.0964098   3.5205963  43.7412491   9.2205925  87.4218826
  42.9310150   9.3085918  87.9238892  43.6841774   9.9033127  86.7534027
  61.3348427  25.1822948  79.6045837  60.5978737  25.1974850  78.9939499
  62.0543327  24.7999916  79.1021805  29.6796856  47.3591881   9.4697161
  28.9719563  47.9080963   9.8074389  29.2377472  46.7039261   8.9297628
  12.5957489  53.7372284   4.9483924  11.9277782  54.3809814   5.1842566
  12.9110470  53.4009018   5.7872629   4.5096631  35.2690697  26.3568630
   5.2406569  34.9511375  25.8269596   4.4036245  34.6073074  27.0402794
  30.1601219   2.1519732  66.8633652  29.8252964   2.5428095  67.6704407
  30.2345390   2.8867002  66.2543716  72.2063446  50.4948387  71.7799911
  72.3060989  49.5939980  71.4721451  72.0594635  50.4111137  72.7221375
  18.4702168  41.8578453   1.3710607  19.3029842  41.6341667   0.9554901
  17.9068909  41.1030731   1.2001334  83.5265198  69.8250580  71.7401810
  83.3627243  70.6367035  72.2204208  82.6814270  69.6034470  71.3490982
  50.6192513  20.5716381  19.5218620  50.1660042  21.4146843  19.5305138
  49.9195099  19.9243927  19.4343090  65.0251007  55.3681793  23.5956516
  65.4633942  54.8881912  22.8929844  65.6088638  55.2764931  24.3486786
  30.0690460  66.8098373   2.7386522  30.0678501  67.7195206   2.4408038
  30.9902744  66.5510406   2.7142656  39.4907417  45.6804962   4.8378906
  39.8895149  46.5442963   4.7327275  38.9578819  45.7574348   5.6293273
  51.5938950   4.2551556  29.3209229  51.6608620   4.6365848  30.1962852
  50.8922653   3.6082237  29.3945866  39.8982315  61.6621170  21.1932049
  39.3903160  61.0662537  20.6425667  39.6121368  62.5361176  20.9276752
  37.0039444  18.3247757  77.8715591  37.8202438  18.1600723  77.3995819
  36.8838730  19.2729454  77.8187561  71.1440353  36.9886627  31.9402084
  70.7224045  36.1595573  32.1661224  71.5089874  36.8418121  31.0675812
  30.0303078   7.4579535  63.4317360  29.1068935   7.3109589  63.2269630
  30.3858700   7.8762674  62.6476288  81.4324188  54.5144997   1.4408243
  81.7517853  54.9511147   2.2305133  82.0249252  54.8079071   0.7486661
  50.5532036  64.7527618  37.2708588  50.8630295  64.0370407  36.7159042
  49.6000404  64.6651611  37.2648125  33.3410950  10.9325285   3.3793342
  32.8801193  11.0676632   4.2072659  32.7610092  10.3646593   2.8721316
  33.6916847  45.3077049   6.3822064  32.7989616  45.1733818   6.7003841
  33.9721107  44.4426956   6.0832915  35.2947578  65.1538696  34.2060928
  36.1802292  64.8010406  34.2937508  35.1501083  65.2059021  33.2613182
  23.1145992  70.9160538  46.1722984  22.5292797  70.8940735  46.9293671
  23.4306870  71.8189850  46.1400642  81.8777084   1.1382341   4.6061263
  81.5255585   1.7310368   5.2700601  81.6442871   0.2638030   4.9177628
  51.1458282   8.3284397  12.9114017  51.8702812   7.7204447  12.7639389
  51.4488182   9.1567469  12.5394621  26.8703918  63.1849251  48.4168053
  26.0269737  62.9667511  48.8133888  26.7771320  62.9285011  47.4993172
  47.8204079  54.9328423  40.1866455  47.5441170  54.5329895  39.3620186
  47.9069519  55.8643341  39.9839935  39.6477661  55.6824493  34.9497337
  39.9064865  55.6364822  34.0293083  38.7719040  55.2969475  34.9718704
  80.1816406  38.8337975  54.0611763  80.1205750  38.7013054  53.1151619
  79.6787872  39.6317863  54.2242241  20.7035179  68.9557190  37.5299339
  20.2083969  69.4379425  36.8677025  20.4546108  69.3636856  38.3592949
  51.1777191  47.5523911  71.3302307  50.8897896  47.8258095  72.2011871
  50.9624100  48.2929955  70.7633286  29.5423908  38.6795197  70.2024536
  29.5632572  38.0881348  69.4500885  28.9496212  38.2562027  70.8234711
  58.5708160  63.7661095  39.6524887  58.7222366  63.0215149  39.0703545
  57.7153206  64.1055756  39.3895874  48.5184708  57.3782082  39.1683922
  48.3672676  58.3054962  38.9853401  49.4706230  57.2821922  39.1479492
  60.6131897  68.2952423  45.1456413  60.1747894  67.5344009  45.5266418
  59.9959793  69.0157700  45.2725754  59.0291290  66.7472916  71.8492203
  59.4482498  66.1732254  71.2081146  59.5401115  67.5560379  71.8167038
  78.4142227  38.3197289  10.1487331  78.9308929  39.1231804  10.0874996
  77.9817963  38.2476158   9.2978296  80.4897156  22.7178555  20.6981125
  81.0378952  22.0920715  21.1715298  79.8690567  23.0363617  21.3535290
  72.4195251  11.0098257  66.0902863  71.8936615  11.8093977  66.0706635
  73.1235580  11.2013292  66.7098846  80.3983307  50.3314934  48.9391479
  80.1253357  49.4384117  49.1491737  81.3055725  50.2422447  48.6473083
  24.2604198  50.4023743  69.0899582  24.3145332  50.6209717  68.1596222
  23.4070644  49.9798698  69.1874771  48.7585411  34.8907166  67.8701553
  47.8182144  35.0383377  67.7690125  49.1373177  35.7693520  67.8977127
  45.9959297  62.5167084  36.2195816  45.0995483  62.7971001  36.4042778
  45.9556656  61.5604744  36.2345467  29.8933945   8.3203373  66.2082977
  29.7391167   8.0355768  65.3075562  29.1865349   8.9402761  66.3879013
  21.0532665  70.1610947  26.4085331  20.9059525  70.9459229  26.9363365
  21.1879787  70.4915771  25.5203514  56.6308632  27.2709789  20.2822456
  55.6825256  27.3485165  20.3865471  56.7447243  26.8587036  19.4259186
  45.7253914  18.0102444  75.2557297  44.8031731  17.8506031  75.4563828
  45.7907677  17.8796844  74.3097305  62.7350159   6.0369005   6.6046014
  61.9646263   6.4412270   6.2055354  63.0905113   6.7146506   7.1795001
  26.9111996  71.1517410   0.1348981  26.1668739  70.6522751   0.4706712
  27.5360565  71.1669235   0.8598498  43.4560928  40.6026344  61.4660378
  43.3341751  39.6613541  61.3421059  43.0734482  40.9988289  60.6831932
  46.1765289  45.0316772  85.7218323  46.6978798  44.7078590  86.4563828
  45.3505020  44.5521240  85.7845917   9.6827879  69.4431915  42.7965927
  10.3723392  69.1875610  42.1838951  10.1089048  69.4351959  43.6536751
  77.8062439  43.9879265   8.9706097  78.5662994  43.7588997   9.5054836
  77.9315186  44.9132690   8.7601919  64.0361786  15.9622116   5.4691930
  63.5669479  16.5286160   6.0817599  64.9091339  15.8682957   5.8504615
  47.1712837  58.9015465  27.6855278  46.2692528  59.1046982  27.9331284
  47.3937035  59.5612602  27.0286121  16.7648811  39.0709381   6.9361839
  16.4938316  38.4915047   7.6482344  17.6756554  38.8309059   6.7655787
  47.5451050  39.5034904  26.6764774  48.2914200  39.4135704  27.2690659
  47.9287987  39.8008041  25.8514824  29.0605679  14.5435638  80.4963913
  29.2377968  14.5402565  81.4370346  28.1548214  14.2429657  80.4222565
  25.3640614  17.7067528  22.8146000  24.8926144  17.3952599  23.5872211
  26.2163296  17.2737484  22.8633461   1.0625528  13.1039696  75.5081100
   1.2993469  13.0240250  76.4321060   0.8087822  12.2183161  75.2483978
  49.4155807  45.7484245  78.7525711  49.9315186  46.5144806  79.0039673
  49.9157486  45.3451271  78.0430527  45.3653450  13.9654303  15.7270498
  45.1959801  14.1536074  16.6501617  45.1361084  14.7754707  15.2715082
  61.8959122  49.1930428  18.1326275  62.8385239  49.0931625  18.2658234
  61.5074234  48.4611778  18.6118813  67.5936890  61.8573189  17.9332371
  67.9165726  61.6586609  18.8121643  68.3294449  62.2898483  17.4998684
  75.3829803  40.9940872  46.7811394  74.6630707  40.3650780  46.7331390
  75.6464691  40.9867897  47.7013321  17.2205620  26.1406269  12.6697826
  16.7138443  25.3777180  12.9480600  16.8442459  26.8704891  13.1616383
  48.4578133  46.7749214  22.7477932  48.6857071  45.8507729  22.6465492
  49.0264130  47.2311707  22.1275005  53.3276787  37.8737297  79.8450775
  53.2133560  37.0043793  79.4611664  54.1679230  37.8255920  80.3010406
   8.2370501  31.9086571  80.5023117   8.5907068  31.4779129  79.7240982
   7.5565624  31.3135815  80.8170395  57.1229095  42.0170326  30.7892132
  57.5689011  41.1718445  30.7345867  57.6401367  42.5973206  30.2306671
  30.1477718  42.1157990   8.0471525  30.7818680  42.2069550   8.7583799
  29.6516171  41.3276291   8.2681742  12.5676975  49.2924423  55.7638931
  12.7970514  48.4022484  56.0307007  13.3364658  49.8158913  55.9902344
  80.5083237  45.8732185  47.9315529  81.1163864  45.9670372  48.6648254
  79.8970642  45.1924515  48.2128906  12.4631634  70.6222534  75.9807053
  11.5914793  70.2437134  76.0951996  12.8106661  70.1914749  75.1997452
  29.6636486  51.8514061   4.5400767  28.9535885  52.4917221   4.4948955
  29.3433151  51.1026497   4.0371075  40.4229240  21.8299713  82.5220795
  41.0223618  21.7625885  81.7788620  40.2037888  22.7605438  82.5694351
  51.2272453   5.3072114  77.0277100  51.8222313   5.9851131  77.3481293
  51.3159790   4.5928993  77.6586685  86.3782806   2.8167424  30.2280407
  87.3071289   3.0333786  30.1471176  85.9702225   3.2222745  29.4630146
  58.1325340  15.5251799  54.2636452  57.6286163  14.8118725  53.8718643
  57.7606392  15.6281862  55.1396141  21.8727493  34.8596001  25.5034180
  22.7471428  34.8482361  25.1141376  21.2789650  34.7410507  24.7620678
  10.9031420  70.8397446  45.5747566  11.0507994  69.9465790  45.8857193
  10.1903772  71.1691818  46.1221771  60.0224609  57.8279152  53.8813019
  59.6222229  57.0219307  54.2075348  59.3787956  58.5098076  54.0735283
  16.6909981  21.5076046  14.6800051  16.1474457  20.9933968  14.0830355
  16.4412003  21.2042236  15.5528126  74.1473541  21.9200954  27.3495560
  73.4630585  22.5868683  27.4076881  74.1552353  21.6647720  26.4270706
  45.7611694  30.4479084  68.1860275  45.5446892  31.1065598  67.5260696
  46.5981445  30.0847874  67.8964691   3.2528081  27.2448826  44.8309860
   2.6631200  26.6027031  44.4358826   4.1282802  26.9573650  44.5719223
  48.0333710   4.8059554  86.3938370  48.1316833   5.7358718  86.1893311
  48.7911491   4.5996408  86.9410400   0.7144261  32.6283493  23.0928249
   1.4117694  32.5867119  22.4384460  -0.0116664  32.1436806  22.7002468
   4.8883157  70.8578796   2.3338122   4.7447100  69.9115982   2.3215506
   4.0083146  71.2333145   2.3634505   3.7373486  11.6594534  39.1010017
   3.6877961  11.7192068  38.1469574   3.5634406  10.7378941  39.2926216
  83.6235352   6.0143027  86.8660507  82.8792496   6.0921521  86.2692108
  84.1948013   6.7462106  86.6332474  37.2333794  25.7032604  80.0555191
  37.1946259  25.6970177  79.0991287  37.7716026  26.4656315  80.2684479
  75.6312485  43.2947044  59.4880333  75.0874634  43.4797478  58.7223396
  76.2426071  44.0299797  59.5309639  52.1342506  17.4271755  84.8030548
  52.5183945  17.1097698  83.9857941  52.7522583  17.1528816  85.4805984
  35.1334000   1.1157564  29.7689953  35.8918839   1.6926197  29.8593273
  34.3834419   1.7096292  29.7356415  28.7543869  49.5833817   3.2826021
  28.1410637  49.7624168   2.5698519  29.6029377  49.4878693   2.8500865
  15.1452703  37.4704704  60.8461342  15.1439209  36.7476997  61.4736977
  14.3536367  37.3366165  60.3249512  31.1740971  66.1272049  18.2724667
  30.4377098  65.5356903  18.1172962  30.8424244  66.9915161  18.0291824
  13.5315437  36.0643616  56.2222633  12.7316389  35.7038841  55.8395844
  14.1342449  36.1474342  55.4832878   8.5644379  20.7287998  51.3246536
   9.3538780  20.3791142  51.7378540   7.9313865  20.7995167  52.0391273
   8.1033487  22.1223869  62.1596222   8.5031919  21.4212723  61.6450424
   7.2873735  22.3211117  61.7003555  78.7339478  13.3603544   4.1790776
  79.0328751  12.5530806   4.5976281  78.1073151  13.0689278   3.5167849
  54.7286491  60.5199852   6.7658434  53.7969894  60.7049675   6.6474357
  54.8747940  60.6188889   7.7066364  46.8555145   1.5262916  43.4032059
  47.7327118   1.7648191  43.7029800  46.2665977   1.9286091  44.0416031
  80.6872635  39.2139320  49.1792908  80.1140747  39.9082489  49.5042648
  80.2318420  38.8667641  48.4122810  58.1964989  70.9900589  10.0425434
  57.2901077  71.2963028  10.0725660  58.1430702  70.1226349   9.6413612
  53.2044716   3.8094940  88.4783020  53.9507294   3.8869984  87.8838882
  53.2081032   2.8913286  88.7488403  32.7739410  22.2683544  79.8012695
  32.9018097  21.3352776  79.6302414  33.6360245  22.6586018  79.6572266
  71.2747650  66.3021240   6.3347211  70.5163116  66.1179962   5.7805743
  71.1524200  65.7427292   7.1017561  60.8040428  41.1261749  88.7454071
  59.8965797  41.3272591  88.9741135  61.3156967  41.8178406  89.1649780
  12.3963499  66.7399445  73.1888123  13.1403141  66.2542725  72.8326263
  12.3429298  66.4599915  74.1026001  59.0466576  16.8905067  15.1953926
  59.9358368  16.5608501  15.3254633  58.7660637  17.1726170  16.0659752
  66.1087875  51.5732193  64.2746658  66.2616730  52.3360023  64.8323593
  65.2771149  51.2136688  64.5833511  50.5280075  68.2171707  13.3047199
  50.3855705  68.0968475  14.2435846  49.8910980  68.8845596  13.0494366
  42.5267067  51.9344864  51.3831100  42.4941406  52.8035469  51.7829971
  43.4357948  51.6550140  51.4911957  15.2596006  48.2363701  71.8867035
  14.6859236  48.1936722  72.6517487  16.0018711  47.6756973  72.1123352
   4.6530180  19.9533844  13.6081839   3.8405454  20.4240608  13.4222164
   5.0056243  20.3828926  14.3875561  69.0808640  23.7587109  27.1462975
  68.5197372  23.2759171  26.5394382  68.6583710  23.6531639  27.9987011
  82.5127335  21.1614323  69.7077484  82.3104858  20.9089069  70.6086121
  83.4691544  21.1665287  69.6694107  60.4386177  69.0421371  71.2824097
  61.1040382  69.2521896  71.9376373  59.9101639  69.8373260  71.2142639
  86.1946335  29.9467030  35.8016396  86.5728455  29.2850285  36.3807526
  85.6571655  30.4902306  36.3777847  69.8920593  13.9251280  15.4728184
  69.4060211  13.4077406  16.1149330  70.7624207  13.5271969  15.4539461
   6.0992422  40.1872711  46.9498596   5.2270818  40.3743591  46.6026344
   6.1121378  39.2372131  47.0658379  15.3182993  12.2384968  86.0539322
  15.4169073  12.7551289  85.2541809  15.6339645  11.3666458  85.8163071
  76.1955719  22.4864883  66.0703659  76.9539948  21.9872437  66.3733215
  75.8063660  22.8398647  66.8702927  21.6114445   2.1656394  19.3717728
  22.2664700   2.7265279  18.9563484  22.0269432   1.8722318  20.1826382
  81.2158432  70.8675995  60.3745346  81.0520554  71.8024521  60.4988823
  80.9416809  70.4647369  61.1984100  12.1446075  54.0685616  10.5463476
  11.9043894  53.4795456  11.2616024  13.0069914  54.4038315  10.7915430
  21.6795311  30.4227371  79.9084854  22.5875206  30.5099354  80.1986389
  21.7276211  29.8569870  79.1378784  73.1513824   4.1143265  15.3270969
  73.7002792   3.3336577  15.4012566  72.6872253   4.0028300  14.4974222
  23.2956448   0.2425846  74.8789749  22.3410015   0.2883478  74.9318237
  23.5759258   0.0471409  75.7731094   8.6995335   4.3771667  28.1456280
   8.9282169   4.9251146  27.3948364   9.2374620   4.7152405  28.8615685
  32.5781975  71.2020950  76.2903290  32.0540619  70.5324097  75.8509598
  33.4322319  70.7901306  76.4212418  71.8632431   3.4475343  87.4408875
  72.1678848   3.7280691  88.3038635  71.4753494   4.2337151  87.0565872
  50.6841965  44.6952400  88.0156174  51.2213783  44.5760498  87.2323761
  51.0658417  44.0998688  88.6606750  79.5888901  23.8959656  87.0426331
  79.8480759  24.5774212  86.4224167  80.2172546  23.1885986  86.8976669
  11.1664724  65.6692810  83.4739532  11.7515593  64.9158020  83.3953171
  10.6443634  65.6518326  82.6718750  62.2213249  52.4738197   2.5742311
  62.8405724  52.0270233   3.1514127  61.3968353  52.4723854   3.0604908
  70.4601974  11.2316265   8.2562342  70.3013382  12.1678820   8.3763313
  69.6823196  10.8081961   8.6193361  65.6197281  63.5755844  60.1447525
  65.9861450  63.8489685  59.3037796  65.9949646  64.1861115  60.7793274
  65.0138321  17.8289337  39.2849541  64.7465973  17.2847176  40.0256577
  64.2721252  17.7924156  38.6809998  58.5905724  24.8590088  64.2725525
  59.4566498  24.7698421  63.8748207  58.1891747  25.5946350  63.8099861
  27.2545490  47.8497620  -0.0147344  27.3583679  48.5962181   0.5754014
  27.3903255  47.0833130   0.5423600  21.7765827  59.8062363  14.6498270
  21.3544636  60.5334778  14.1924810  22.6430016  59.7412949  14.2481623
  53.5697327  35.0618095  14.2260313  52.7188911  35.4892654  14.1281509
  53.9240074  35.0271797  13.3374796  11.7550650  40.0064735  72.4523697
  12.0272903  40.8250504  72.8671646  12.5204916  39.4360657  72.5229874
  69.5415268  30.3104210  10.6660414  69.1739502  30.1154747   9.8040009
  70.1890640  30.9957333  10.5009003   9.4116144  53.2686615  44.6077881
  10.2583885  53.7118835  44.6603012   8.8129320  53.8378944  45.0913010
  71.5231094  43.7558861  50.7383537  71.5100479  44.4695435  51.3761253
  70.7347794  43.8903008  50.2123299  34.4933281   2.5782957  72.6179504
  33.8716049   1.8674096  72.4619598  34.3245277   2.8504913  73.5199738
  23.6687222   3.7478600  52.6494751  24.5701847   3.4324691  52.5852661
  23.3172741   3.3121653  53.4259338  31.4024982   5.0277724  39.8575478
  31.0506077   4.1572957  39.6713333  32.2851334   5.0135164  39.4874382
  41.0281906   9.5924587  88.7813873  41.1224747  10.5356445  88.6481857
  40.9192963   9.4938526  89.7272491   4.6712050   9.0125294  40.0147324
   4.6453819   9.6453047  40.7324791   5.1097002   8.2469616  40.3860245
  15.5828209  57.8564873  55.6951561  15.5434456  58.6943054  56.1563911
  16.5017490  57.5946579  55.7521477  71.7405319  15.6698055  30.3894691
  71.5821075  14.7577934  30.6331234  71.2758942  16.1792698  31.0533867
  35.4954262   7.9393187  86.8610840  35.3860016   7.4197092  87.6574860
  35.7607002   8.8041801  87.1739349  18.1556339  42.4226875  20.8184528
  17.2087688  42.4091568  20.6788254  18.4766121  41.6467819  20.3589172
  10.2810459  70.3335495  30.0678787   9.7343044  70.2794876  30.8517036
  10.3051205  69.4381332  29.7304249  28.1469479   2.7246473  41.6514931
  28.5060616   3.5721064  41.9143295  28.7055321   2.0818598  42.0885735
  49.9258041  44.1124039   8.8419991  50.0426178  44.7799110   8.1659689
  49.3437920  43.4660454   8.4423513  64.3770294   7.6826062  72.2289886
  65.0664062   7.4844880  71.5951538  63.9267921   8.4439182  71.8630371
  28.2866459  13.9393120  23.3756924  28.6302586  13.0557051  23.2437706
  28.3200035  14.0702667  24.3233051  42.6233521  21.7896385  15.3132429
  41.9013596  22.2551098  15.7354898  43.3795815  22.3648758  15.4292307
  37.4327621  30.2807007  11.3307066  37.2177429  29.9400349  12.1990080
  36.6147652  30.6643867  11.0146437  50.0091591  34.4766235  75.6648636
  49.4256668  34.7276497  74.9487915  50.3229828  35.3079491  76.0207367
  15.9657364  30.4525318  81.6942596  15.4667130  29.6400051  81.6105423
  15.7131233  30.9687061  80.9287643  48.7577820   9.4811583  43.6609116
  48.2329559   9.0345707  44.3252525  48.3893433   9.1878386  42.8275757
   8.6714735  56.2754745  30.7269268   9.0752430  55.4382477  30.4983463
   7.7598433  56.1854439  30.4493351  47.5285606  47.9465714  71.2881927
  48.4043541  47.6603050  71.0288239  47.2180672  47.2613068  71.8800049
  54.8640099  45.1479034  50.0655632  54.5074425  45.6944733  49.3653069
  54.4204407  45.4530449  50.8569946   4.8665485  56.8635139  35.3824348
   5.5271001  56.1710052  35.4007034   4.5478158  56.8667412  34.4798660
  14.0832767  39.6196632  75.1124802  13.7518396  38.7640991  74.8397293
  14.0094614  40.1657372  74.3298035  45.1639671  26.8218746   7.8150830
  44.9105339  26.0442448   7.3177953  46.1162262  26.8627129   7.7269444
  15.6718121  20.5447025  24.0827541  15.9470348  21.3795719  23.7039700
  16.4470692  20.2234173  24.5431709  32.9377937  48.2128448   7.4153309
  33.5132256  48.4617310   6.6920276  32.6908073  47.3079758   7.2244396
  65.0711365   7.9973907  24.7020702  65.4189529   8.8372002  25.0020256
  64.1798782   8.1960678  24.4149780  67.7405167  22.8465443  37.3976707
  68.1934204  22.9951839  36.5676041  66.8124542  22.8273945  37.1640625
  23.7217598  35.2191467  16.3042297  23.3934040  34.7211037  15.5556536
  23.8348560  34.5664139  16.9951591  81.1430969  39.2500801  86.7320786
  81.6801682  39.8887291  86.2631226  81.7709351  38.6118927  87.0708618
  76.9725494   8.0522070  69.0671234  76.7123718   7.4079080  69.7254639
  76.3274078   8.7543268  69.1510544   7.0397053  27.2413826  87.5030975
   6.9663787  26.8857899  88.3887711   7.9331675  27.5814095  87.4547348
  74.8039169  66.3129272  63.8532600  75.1570129  65.4294891  63.7479591
  75.5180283  66.8103485  64.2518234  18.3761253  64.0457458  43.7498550
  18.3735447  63.0964127  43.8722878  19.0670910  64.3605347  44.3327026
  35.8909836  68.4315720  42.9661331  35.6572647  67.5634766  42.6374664
  35.4389305  68.4989548  43.8071671  41.1912766   0.1538338  15.4954414
  40.7688828  -0.4173248  14.8538876  41.2462807   1.0042231  15.0595007
   3.6711590  49.8412704  47.1833038   3.7301919  50.7787132  47.3675613
   2.8793023  49.7507706  46.6532021  33.5839233   5.7915726  23.4901085
  32.7774582   5.5244017  23.9310951  34.2739754   5.2976460  23.9329338
   5.9367137  40.5973625  51.5758820   6.1985192  39.7279205  51.8788071
   6.5941253  41.1874313  51.9444733  82.8298721  19.2125969  88.8102798
  83.1009827  20.0781536  88.5044327  82.9849548  18.6350498  88.0628738
   1.6131237  55.2266960  17.7372456   2.0709805  54.5510178  17.2371845
   2.2757778  55.8995934  17.8932304  50.5877876  53.7934265  27.3146305
  51.3704720  54.2606506  27.0224972  49.8973503  54.0879822  26.7206955
  68.6922913  59.5891533  49.1500740  68.4900818  58.6550217  49.0976639
  68.9853973  59.8205757  48.2687302  26.0685787  47.2000237  33.0067825
  26.4592724  47.9060593  33.5216599  25.7560959  47.6291008  32.2102394
  14.4814939  20.9378948  70.4181519  14.1349545  20.0642643  70.5995712
  14.0211277  21.5103588  71.0318146  49.9269180  19.2769642  12.8754053
  49.2107582  19.8940907  13.0254049  50.0704918  19.3020267  11.9293661
  38.9920845  48.0238571  15.2247372  38.9647102  48.9573288  15.0147133
  38.2630768  47.6461678  14.7326689  83.8212204  47.1896629  38.0414200
  83.5702667  46.7144623  38.8335266  84.1113663  46.5081902  37.4350815
  62.3035469  55.5165672  26.4701729  62.2989464  56.2199440  25.8209648
  61.4451714  55.5725403  26.8900394  65.2548218  66.3685455  69.4714890
  65.9205399  66.5205688  68.8007050  65.7525482  66.1255493  70.2521667
  66.5049362   7.1595068  28.5260220  66.7559433   6.5677934  27.8167267
  66.7410507   6.6888947  29.3254013  70.5483627  33.0957870  55.9522285
  70.4821701  32.2204132  55.5706863  69.6714020  33.4666977  55.8542595
  73.1264267  34.5192032  32.6455574  73.0308380  33.9295349  31.8976383
  73.8236160  35.1222038  32.3875694  26.6952248  21.6466770  51.5611305
  26.9514370  21.5624332  50.6427155  26.7693367  20.7595119  51.9128113
  45.8552513   4.2676983  65.6490707  45.4747658   3.7456300  66.3554077
  45.2346725   4.9850245  65.5203934  65.2888107  20.2030621  55.4497223
  65.9023743  20.6448174  54.8626785  65.6918411  19.3519096  55.6209984
  67.0964813  24.3182297  70.3058624  67.1275482  24.4607887  71.2518768
  66.2358932  23.9290447  70.1504288  31.2873840  64.6556931  30.5000095
  31.0809422  65.0987167  29.6770020  31.4269238  65.3662109  31.1260471
  81.0452957  59.8440742   4.8180079  81.8367081  60.0217896   4.3097620
  81.3241043  59.9217682   5.7304010  73.8526611  22.0209827  75.7176895
  73.1832199  22.5539894  76.1466141  73.3583832  21.4079666  75.1735153
  58.4334831  65.5988235   6.5417562  57.6671257  65.1963501   6.1331677
  58.1150551  66.4385681   6.8729253  57.4546165  53.8653908  86.8667374
  56.9474564  53.3802223  86.2158585  57.7783661  53.1939392  87.4672089
  23.8973713   5.6954226  78.0294266  23.4234219   5.3544555  78.7879410
  23.4273643   6.4950485  77.7929459   1.2605813  17.5757942  51.9395447
   1.6873482  17.1551113  51.1931381   0.3256520  17.5253849  51.7405548
  30.7992287   0.7724989  30.8833637  29.9463863   0.4313346  31.1526165
  31.3286629   0.7501276  31.6805038  26.2106514   7.7512145  43.8564796
  26.6063900   7.2974629  43.1123466  25.6922588   8.4522352  43.4614182
  38.7097702  27.7470188  24.0879459  38.9392357  26.9039268  24.4788113
  38.6262589  28.3417645  24.8332863  24.2959023   2.7157004  24.1525745
  24.3737602   3.3889897  23.4766655  24.9687939   2.9419515  24.7946491
  17.8131523   7.9676666  43.8547211  16.8702545   8.0267782  43.7008247
  17.9860992   8.6186285  44.5348434  37.1665192  65.8258667  75.2309265
  36.3642082  65.6637192  74.7347107  37.0635681  66.7155685  75.5686646
  83.0675507  48.5358276  63.9429703  83.3594513  49.3362617  64.3792496
  82.6785126  48.8385086  63.1224442  33.4540977  13.6782570  83.5786057
  33.0883904  12.8613482  83.2392654  32.6970367  14.1585302  83.9139099
  20.9784641  70.9330139  79.1415863  20.4658775  70.4273529  79.7723007
  21.3243980  70.2786789  78.5346298  84.2671967  52.7034302  48.5833359
  83.8692627  53.5696678  48.4966621  83.5639954  52.0934372  48.3605042
  16.3343658  27.0804176  17.0712700  16.4485073  28.0026340  17.3008747
  17.1274757  26.8546734  16.5852127   6.5080371  55.3560944  14.8922310
   5.7725296  54.7441101  14.9193754   6.4364095  55.8529472  15.7072392
  29.7389812  51.1359482  74.6933289  30.1522713  51.5572853  75.4469223
  29.1558609  50.4801331  75.0755768  64.7760696  33.9533424  73.6394882
  65.3478317  33.4294472  74.2006073  63.8966599  33.6180344  73.8139343
  57.0389175  25.0526657  74.4109268  57.3874626  25.8423405  74.8246460
  56.9549599  24.4238644  75.1277161  76.5943985  25.8214779  75.8724060
  76.2531738  25.0279045  75.4600372  77.5445328  25.7488613  75.7819061
  65.9558640  67.5152588  76.4025803  66.4171219  68.2442780  75.9878540
  65.2711105  67.9317474  76.9259186  34.4324417  30.9499931  23.1726589
  33.6357765  31.1978817  23.6418171  35.1396141  31.1202049  23.7948875
  70.5229111  41.8315887  45.3977165  70.4774323  42.7171516  45.7581940
  70.0189972  41.2970352  46.0113602  64.5886917  45.0206451  64.0595856
  65.4973755  44.9121895  63.7789345  64.5780563  44.7061501  64.9635849
  13.0813131  36.7691307  58.8947144  13.2556152  36.3375053  58.0583229
  12.2902880  36.3425179  59.2241287  11.2468996  54.1525993   0.9509566
  11.1514282  54.3767738   1.8766254  11.6025944  54.9447174   0.5481398
  75.6605835  55.4914703  63.6476097  75.8220978  55.7028542  62.7281189
  76.3869858  55.8999786  64.1184540   3.8135417  12.2270918  67.2561722
   4.3243303  11.4686813  66.9730835   4.4039426  12.7116699  67.8330994
  10.9941282  11.4159040  69.2374496  11.0472355  11.2314873  70.1752167
  11.9061432  11.4776812  68.9534760  84.6602173  37.8167076  39.9203377
  84.9144287  37.7579269  38.9993820  83.8190002  38.2732506  39.9079323
  12.8837519  10.9721565  25.8373737  12.9668331  10.1345997  26.2932549
  13.7779198  11.1924887  25.5763226  36.7333221  12.9300900  45.0327072
  36.6667595  13.1012621  44.0932922  35.8926659  13.2177830  45.3887405
   7.5397892  53.6083527   6.2472010   8.3855429  53.6000252   6.6953793
   6.8943801  53.5662460   6.9528255  75.8863907  58.5564232  68.2001038
  75.8594208  59.3500977  67.6656952  74.9767990  58.2604103  68.2353897
  79.5051498  34.7466736  25.0366459  80.0590744  35.3034325  24.4894485
  80.0305099  34.5817261  25.8196030  16.1784439  66.4971771  35.0341911
  16.3833351  67.3112030  35.4942055  16.5934162  65.8137207  35.5604172
  45.7937775   0.9962916  29.2954407  45.1433945   0.5514519  29.8389034
  45.8912506   0.4320508  28.5283928   4.6238408  59.9006157  60.3208122
   4.9600792  60.7928123  60.4054565   5.1660171  59.3828621  60.9159660
  69.1363983   2.6814895  54.8824768  68.5657730   3.3424602  55.2745743
  69.9538879   2.7476146  55.3760071  77.3465118   2.1066155  29.0244198
  76.9622879   2.9265625  28.7141171  78.2893066   2.2251077  28.9089508
   5.5469060  21.5433197  88.6526794   6.3005681  21.9922924  89.0356293
   4.8102770  21.7935658  89.2103424   2.9801123  41.1189003  42.4627533
   3.5642371  41.8740082  42.5323563   3.4368243  40.4189758  42.9293938
  72.5942993  15.6519585  61.8829651  71.8846741  15.0361280  62.0657768
  73.3038940  15.3792305  62.4646187  22.8639259  58.3562737  54.1874275
  22.6089153  58.1486816  55.0863762  22.3078060  59.0968895  53.9456635
   2.9373980  47.5729294   8.8977089   3.3381727  47.6061897   8.0290861
   2.9244900  48.4841309   9.1905804  19.7256908  64.5288315  50.6444893
  19.7380581  65.1001129  51.4124184  18.8565845  64.1279526  50.6581612
  53.9230614  68.0644760  77.8770218  54.5556679  67.4139786  77.5722427
  53.4332123  67.6172104  78.5671158  81.8719101  32.7754097  10.8555679
  80.9302521  32.9031181  10.7406158  82.1497726  33.5152016  11.3956928
  22.1741199  71.7512207  59.3918419  22.2034016  70.7955551  59.3462753
  23.0520782  72.0044250  59.6769905  40.1214180   9.2053099   8.1942825
  39.4388161   8.8087368   8.7355919  39.7335663  10.0220308   7.8800063
  26.0325603   8.3941669  82.9395142  26.5343380   9.1866798  83.1302414
  25.1442070   8.5967617  83.2328033   7.3105607  53.3046875  30.8952198
   6.7958426  52.6387100  30.4393978   8.1010914  53.4013786  30.3642368
  33.4791718  56.6719360  56.4420357  32.8559341  56.9996300  57.0904388
  33.2704659  55.7415466  56.3580627  19.9374332  37.3242531   0.4251196
  20.7480602  37.4149857  -0.0757608  19.7695961  36.3820114   0.4405230
  63.9920197  66.3808060  15.1801338  64.0668259  67.3350754  15.1771746
  63.1442680  66.2057495  14.7715902  37.8720093  27.0320740  10.5247850
  38.0304909  26.2428074  11.0426416  38.5189056  27.6615257  10.8434534
  52.5928993   1.9674489  11.9335413  52.3124466   2.8463845  12.1885920
  51.8126526   1.4247112  12.0470448  29.1621761   3.0668457  10.1774349
  29.7010841   3.4911299  10.8451128  28.7909107   2.3030741  10.6190758
  29.5431499  62.1344757  68.4685364  29.8332539  61.4515305  67.8638382
  28.9277115  61.6915131  69.0526962   3.1261668  33.0521088  28.0307865
   2.6427429  32.9197350  27.2153053   2.4875779  33.4432259  28.6269932
  25.5713158  70.4704666  45.2736435  25.5819454  69.9114914  44.4966850
  24.6849613  70.3781052  45.6230392  23.7267933  58.6388855  84.7656784
  23.5309696  59.5744858  84.8160858  24.2294235  58.4562721  85.5595551
  17.4368744  29.1703091  19.1422882  17.5299473  28.2851067  19.4944019
  16.5972042  29.4771118  19.4844284  10.1069994  19.5597019  43.5701599
  10.3193140  20.2010765  44.2482414   9.3148870  19.1272240  43.8891411
  40.1704330  52.2729378  88.3508530  40.4254494  51.9439621  89.2128067
  40.5231438  53.1622467  88.3199310   7.1838946  45.0313683  13.3835363
   8.1186113  45.2302704  13.3290024   7.0849466  44.5724449  14.2177019
  22.2991009  45.1708450  77.8588791  22.5781631  44.2592087  77.7735596
  21.7267838  45.3176193  77.1057968  80.1780701  38.4714661  14.8983488
  80.9765167  38.5376549  15.4221191  80.1301575  39.3040199  14.4284649
  76.2755966  33.0477448  48.0744591  75.8628693  33.8186684  47.6851425
  76.4512863  33.3019257  48.9804153  38.1820908  27.5247555  20.7102242
  37.9649239  27.7527714  21.6141491  38.1850586  28.3619194  20.2461338
   5.8732963  64.1852112   1.1038343   5.8849506  64.7923737   1.8437361
   6.2735310  63.3851089   1.4442388  56.6920128  16.6179028  61.3760681
  56.8125954  17.2483273  62.0861740  56.3395844  15.8382521  61.8052216
  62.3710632  33.5240173  19.0617847  61.4158401  33.4705048  19.0315342
  62.6580238  32.6186295  19.1807804  48.5874825  61.4215317  24.4285030
  48.4628754  61.7679100  25.3120899  48.0185242  61.9594727  23.8779221
  16.2636261  18.9670238  64.5699615  16.0664482  18.5180187  65.3920059
  15.9091272  18.3918839  63.8918953  36.6887512  42.4031563  59.6016541
  36.6901779  43.1369171  58.9869766  35.9355965  42.5675163  60.1690826
  31.5296955  48.5816002  52.4574471  32.1527061  47.9444923  52.1078949
  31.7768650  48.6785812  53.3770828  77.5944901  25.6343441  88.6648636
  77.8962097  25.0420513  87.9761124  77.2932663  26.4127960  88.1963501
   6.1334281  60.2023544  32.8775787   5.4076819  60.7707024  33.1354713
   6.5667000  59.9785042  33.7012291  68.3225632   4.2342496   4.7601571
  68.9703979   4.3016238   5.4615889  67.7244568   4.9652534   4.9155002
  58.8298187  66.8420868  77.2656708  59.5277405  66.9082718  77.9174042
  59.1706810  67.3071823  76.5016479  44.1691475  60.6640434  43.7370949
  44.4750252  61.4859352  44.1207237  43.4415855  60.9203949  43.1703758
  19.0020733   5.0384841  77.3983154  19.6142578   5.3979893  76.7562714
  19.4352112   4.2508636  77.7273712  63.8445740  35.0227089   8.3486738
  64.3220825  35.6952095   7.8629189  64.5057983  34.3626404   8.5568123
  74.3603287  20.2895412  85.7159042  74.8253326  19.5203381  86.0450363
  74.9919281  20.7242107  85.1428604  64.3433685  46.1048813  13.7837219
  65.0366364  45.7310905  14.3276844  64.8080063  46.6187057  13.1231718
  39.2348404  67.3722458  44.4640656  38.4638405  67.0276260  44.9146461
  39.9596481  66.8358231  44.7852058  22.4216194  64.9582138   1.2822627
  21.5826111  64.4987030   1.3161718  23.0636463  64.2715683   1.1018543
  70.9414825  17.5182285   6.1112919  71.4219284  18.3342323   5.9714975
  70.6659088  17.2493896   5.2349262  61.5844383  29.9174137   6.1202521
  60.7027893  30.2464733   6.2953176  61.9699059  30.5665493   5.5318065
   2.4441798   8.7859592  53.8824348   1.5507402   9.0634184  53.6799164
   2.3951850   8.4570580  54.7800217  24.0033398  29.3559475  60.7703056
  24.5150528  28.5903931  61.0316658  24.6461372  30.0619640  60.7026062
  75.9861755  59.7591324  45.8503113  75.7211304  60.6768761  45.9114037
  76.6737061  59.6640053  46.5094681   1.2109011  44.1930656  29.7599335
   1.3142983  43.8465881  28.8736515   1.1153380  45.1376724  29.6381836
  66.2446594   3.0721388   6.2719650  66.6920395   3.4572728   7.0254598
  66.7995377   3.2947712   5.5244527  80.8263245  63.6315002  80.6110687
  81.1232376  63.6434135  79.7011566  80.5570374  64.5330429  80.7869644
  23.2333088  54.4609947  47.9129143  23.1751270  53.5559731  47.6066742
  22.7712708  54.4603539  48.7512169  38.0829391   6.1312938  22.6431675
  38.4412842   5.7819366  21.8272190  38.6156654   5.7301669  23.3298492
  36.5890121   2.7923157  45.1258278  36.7185364   3.4458826  45.8130722
  35.7971725   2.3227620  45.3880119   2.2765946  22.5427132  18.1281853
   2.9094214  22.1804733  18.7483006   1.9558823  21.7830887  17.6420307
  11.2366209  37.6184196  27.3759403  10.8017550  38.3748055  27.7696514
  12.0127459  37.4790878  27.9185696  24.0049038  59.0637283  47.5701523
  24.2421036  59.0554199  48.4974594  24.0834503  59.9818382  47.3110504
  20.8294353  29.9589500   3.3123453  21.6708012  30.2228012   3.6847947
  20.9193039  29.0181980   3.1602304  61.2619019  55.1786003  53.3375778
  62.1252670  54.7684212  53.3884277  61.1238136  55.5546494  54.2069168
  48.9383011   6.9152870  76.2098923  49.2955894   6.1955538  76.7300491
  48.4164009   6.4851861  75.5324936  67.3738098  15.1601963   0.8817356
  66.7815247  15.3779697   0.1620110  66.8072891  14.7738171   1.5495701
  43.5898438  57.9015656  48.2531090  43.1523056  58.1752739  47.4469566
  44.5205116  58.0445366  48.0809212  42.2707367  69.8244934  46.1359138
  41.3714790  70.1477280  46.0803947  42.7897835  70.4789581  45.6684685
  23.9910984  22.3641491  71.7181549  24.3624077  21.9011154  72.4691238
  24.3169537  21.8849583  70.9562912  70.3274307  10.7317133   0.3204125
  71.1893616  10.9597511  -0.0278744  70.5065231  10.3833485   1.1937959
  44.7137070  29.1545677  70.8983231  45.5804291  28.8930454  71.2091827
  44.6565742  28.7913589  70.0145569  36.6096153   8.9885340  51.5327606
  36.4870834   9.8322182  51.9679794  36.7788544   8.3733120  52.2462692
  14.2696419  56.6813622   6.0889320  14.6467924  56.2243919   5.3371563
  14.7703323  56.3615837   6.8394547  75.6712875  64.3583298  10.3185692
  75.1997681  64.5694656   9.5127649  75.8689117  63.4248199  10.2428379
   8.9915228  35.6671906  32.7441673   9.7582474  35.4830589  33.2868080
   8.4162779  36.1827660  33.3094139  65.1022415  55.8858223   6.6386204
  65.7794189  55.5170975   6.0714312  64.7888947  55.1415634   7.1525540
   3.0142021  42.8653374  11.0706034   3.7089019  43.5062370  10.9193621
   2.8755126  42.8814201  12.0175657  11.9898062  34.7375069  19.5404358
  12.5098562  35.5192947  19.3544521  11.2085342  35.0692329  19.9829350
  47.0455589  17.3269138  11.7424059  47.2258797  16.9613152  12.6084623
  46.7633629  18.2250271  11.9155750  41.0057297  33.8721237  12.3190556
  41.7572784  34.0818787  11.7646103  41.3296165  33.1981201  12.9165897
  27.1262112  70.2461319   9.7096729  26.7379837  69.4687805  10.1112175
  26.3766956  70.7606583   9.4101429  79.8722305  28.9683971  37.7163506
  79.3900375  29.7565327  37.4662132  79.2883911  28.5127888  38.3228073
   7.1592846  36.9494324  49.2192039   7.7015409  37.7373314  49.1817169
   6.8430209  36.8334885  48.3232307  51.0549431  69.8379822  29.9507904
  51.2927666  70.0559006  30.8520031  50.9129982  68.8914413  29.9627342
  58.4814148   4.9294176  75.7408752  58.8592758   5.1168919  74.8816223
  58.3804855   3.9776680  75.7556458  15.4779787  12.3450718  13.6787739
  14.5353889  12.3281202  13.5130396  15.7939911  11.5031214  13.3509197
  58.9874802  38.5298538  24.4366531  58.6309776  39.4056206  24.2877769
  59.9103661  38.6787376  24.6424427  30.9327602  67.0527344  36.8874397
  30.0010471  66.8653412  36.7733116  31.3542976  66.1936340  36.8655281
  81.9012299  14.6109047  45.7476273  81.8931961  13.9555645  45.0499916
  82.8128967  14.8986778  45.7954292  26.9211483  24.2999096  51.3668022
  26.8500652  23.4815197  51.8581429  26.0175667  24.6007671  51.2705917
  36.3995705  22.8345604  13.1237183  35.5388031  22.7172985  12.7217712
  36.2188072  22.9031639  14.0611877  24.2621231  46.2984734  17.7636585
  24.3128395  46.3446846  18.7183971  23.7509308  45.5082932  17.5889282
  74.8497467  70.7779770  62.6557922  74.2712631  70.1488266  63.0867958
  74.4984818  71.6337814  62.9016533  54.6988373   6.8328571  17.5775681
  55.5178146   6.9599319  17.0986538  54.9715767   6.6814952  18.4825191
  60.5579071  31.5553513  51.4091568  59.8184891  32.0437355  51.7710571
  60.2164230  31.1651154  50.6045876  60.4836082  48.0169220  27.2870197
  60.5332718  47.1830482  26.8196640  60.2162971  47.7784462  28.1746597
  55.6351891  19.1976337  88.6263657  54.6979103  19.0095882  88.6751328
  55.9045601  18.8533115  87.7748260  85.7381897  23.8175621  73.3573456
  86.6561966  23.5763321  73.4810257  85.2479630  23.1442471  73.8291016
  73.2718353  11.2518740  79.1298676  73.0755539  10.7082939  78.3668289
  72.9567719  10.7408657  79.8754120  37.0457802  39.6905289  79.6212997
  36.2104797  39.2243690  79.5867004  37.0150108  40.2926483  78.8778305
  66.8292694  50.1951675  76.9517441  67.4250946  49.4700623  77.1400223
  65.9551468  49.8249397  77.0744705  50.4164619  14.8968983  83.4975891
  50.2614899  15.5355844  84.1935043  51.3385468  15.0119524  83.2678986
  43.9914589  64.8193588  37.4357033  43.4099655  65.5706253  37.5527382
  44.3966026  64.9610596  36.5801277  60.9747849  51.8700256  44.4821320
  61.8746262  51.7789650  44.1687202  60.7707977  52.7970467  44.3586197
  71.7053070  62.8594513   5.7249441  72.4245148  62.3854599   5.3074379
  71.6280212  63.6696472   5.2211218  42.7564049  16.7497520  22.6941032
  43.2388115  16.1210346  23.2309742  41.8499832  16.4434681  22.7228584
  16.9306374  54.2740555  16.2903442  16.1695595  54.4401398  16.8465881
  16.6622391  54.5732422  15.4216194  21.6050167  48.5935135   4.6303296
  21.3239841  47.8560066   4.0887227  22.5128212  48.7496033   4.3700290
  63.3532791  63.5787239  61.4609184  63.1180496  64.5055466  61.4173088
  64.0725327  63.4845238  60.8363953   7.6537437   8.2022190  58.0295067
   7.1331191   7.4450278  57.7614708   7.1299481   8.9586191  57.7654419
  73.0019226   1.5918065  63.0209656  72.1949844   1.5029709  62.5138245
  73.4362946   2.3586860  62.6475410  84.6936722   0.4398486  18.2045650
  84.0416870   1.0819575  18.4853401  84.4990158  -0.3412881  18.7224121
  21.3299103  39.1464691  84.4694138  20.8557034  38.4394760  84.0317764
  21.9246159  38.6991692  85.0714722   7.1899972  14.1514378  23.4659424
   6.2628064  14.3535728  23.5912018   7.3542137  13.4096727  24.0482216
   7.4350548  24.5470295  22.2936554   7.8046508  24.6479416  21.4164734
   7.6181588  23.6370697  22.5274830  50.2135887  58.3484802  79.5460434
  51.1000977  58.0928497  79.2911072  49.9492836  58.9881363  78.8848190
  62.3148613  43.9455643  76.5553665  61.6660080  43.3825798  76.9775925
  62.1479683  43.8424950  75.6184845  47.1147003  42.6850204  20.0406609
  46.8550072  43.1775589  19.2620754  46.9279137  41.7724876  19.8201466
  77.4383850  37.8361130  26.8915672  76.4937973  37.8921623  26.7472095
  77.8240128  38.0707588  26.0474892  68.7209167  10.9635229  14.1151094
  69.0664444  10.7065935  13.2602253  68.4395981  11.8707829  13.9969101
  21.9324169  29.4654064  16.7730827  21.2519112  28.9430046  17.1976261
  21.7519016  30.3639202  17.0493412  44.2649002  27.7968884  84.5671387
  44.1929398  26.9805069  85.0616837  43.7066612  28.4137096  85.0405655
  83.2917023  28.3406067  36.6584167  82.5445786  28.4279556  36.0664711
  83.6466827  29.2267895  36.7284470  79.8576431  15.5658722  68.2775116
  80.7264786  15.9516459  68.1655502  79.2549591  16.2343979  67.9518051
  12.8342085  41.0244942  53.7712212  13.4460287  41.7592697  53.7263336
  12.4789019  40.9542084  52.8851929  26.0334530  13.3345947  48.1684341
  26.6216164  13.6389256  48.8595772  25.4052792  14.0481977  48.0570793
  60.4814644  35.8821907  48.6604500  59.8336525  35.1849098  48.7622948
  60.8277855  36.0180511  49.5424004  67.9144440  32.6685410  36.3734665
  68.6520233  32.8160973  36.9654427  68.3205490  32.4524918  35.5340424
  47.8165665  10.6314154  41.0420532  47.4551277  11.1242943  40.3053970
  48.7258377  10.9242239  41.1030540  19.7757702  19.0138683  17.9378014
  19.5685883  18.5538692  18.7512569  19.6183186  19.9366302  18.1376743
  11.8607759   6.4943757  79.9381485  11.1595850   6.6026034  79.2956161
  11.9830856   7.3684239  80.3087082  61.2393799  25.3464870  84.4368134
  61.1487656  24.9831829  83.5558853  60.5048866  24.9753304  84.9256821
  81.6746368  19.9513493  41.6432037  81.3015823  19.3271885  41.0207214
  81.1684036  20.7529259  41.5111465  66.0781555  35.8215294  72.1269760
  66.5194550  35.4093590  71.3842773  65.5577164  35.1188583  72.5163879
  12.4422808  53.0231323  31.1860523  13.1862526  52.4377861  31.0442390
  11.6833229  52.5228004  30.8862476  83.7699890  24.6603565  40.7362289
  84.6618576  24.6419621  41.0832977  83.8672714  24.9908905  39.8431931
  25.1242638  26.5875187  84.1306458  25.1610012  25.9366550  83.4297485
  24.3754959  26.3223419  84.6647415   6.3763809   9.8146572  27.9226933
   7.1981053   9.5466986  28.3340321   6.6458535  10.2922974  27.1381702
  26.4110012  16.1058960  74.0389404  26.8557053  16.8456898  74.4526749
  26.9545288  15.8936281  73.2801590  53.6955795   5.7802801  55.9851685
  53.0530930   5.1007013  55.7811661  53.1697884   6.5549822  56.1841965
  23.2122974  55.7381897  85.8870010  23.7377682  55.5803070  85.1026611
  23.8528538  55.8036766  86.5952606  50.4292107   1.5269300   4.2986870
  50.9623451   1.4452182   5.0894613  50.9013329   2.1581931   3.7556963
  16.1907883  19.1077995  28.6963902  16.0947056  19.9154129  28.1916504
  17.1250381  19.0621147  28.8996620  30.3089657  67.7801514  13.8533993
  30.3014526  67.2529068  14.6522703  29.6834221  67.3455429  13.2737055
  67.1019440  50.0508575   2.1430521  66.3100281  49.6948395   1.7401091
  67.7739334  49.3902245   1.9750440  80.2979431  18.6176472  22.2160301
  80.1288528  18.9840565  23.0840073  79.5854416  17.9938908  22.0764065
  83.8930511  57.0201340  70.8294067  83.2658539  57.6852646  71.1130447
  84.0093918  56.4583893  71.5956573  20.1194820  53.2461243   7.7115459
  20.4025898  53.9916840   8.2409096  19.2118549  53.0956726   7.9757619
  15.6285753  20.3254147   9.0654058  16.0396652  19.6126041   9.5544243
  16.2147121  21.0715885   9.1915045  36.6011734  67.5725403  88.0551682
  37.3651581  67.6961365  87.4918900  36.1835060  66.7785416  87.7214661
  41.5899544  39.2252159  80.9225159  41.4421196  38.2893295  81.0584946
  40.9687767  39.4685745  80.2361145  82.5848160  26.7238960  42.3443489
  82.1072693  27.4423313  41.9295769  82.7906876  26.1265182  41.6253281
  61.7420998  32.1933403  26.0529594  61.1776772  32.1761017  25.2800713
  61.1418648  32.3363190  26.7847404  69.5119400  31.6061954  45.7958984
  68.8978729  31.7078323  45.0686951  70.2302170  31.0884285  45.4322701
  31.6728687  54.5342484  64.9690475  32.4514618  54.9348450  65.3557587
  31.3864651  55.1604424  64.3041534  13.0319643  40.0365562  27.0507107
  13.2004185  39.3059578  26.4556637  13.8503819  40.1444054  27.5352650
  19.0844936  10.2123165  30.2418423  18.4678288   9.7175779  29.7022209
  19.8060818  10.4227381  29.6491661  20.6303368  51.3311806  34.2914391
  19.7808609  51.4924469  33.8808098  20.4511433  50.6713409  34.9613152
  68.1194077  22.1065998  87.1634598  67.2157745  21.9594154  86.8841248
  68.0545044  22.7827320  87.8378983  28.9056568  59.7475891  40.4603577
  28.4170532  58.9336967  40.5831528  28.3103542  60.3122826  39.9674416
  45.3654747  33.7653885   8.7615032  45.6935806  33.1678848   8.0895157
  45.8372498  33.5148506   9.5557899   8.6235857  41.3253784  66.7325439
   9.1377506  40.5949974  67.0766525   8.1743555  41.6836929  67.4980774
  80.5816803  36.9103851  11.1755209  79.7756042  37.4184418  11.0841255
  80.6437988  36.4111977  10.3611593  40.6721230   3.9970510  32.4823570
  40.9744682   4.3469582  33.3204422  40.7489128   4.7321997  31.8741703
  62.1643066  55.1083870  87.1607819  62.1597137  54.8662949  88.0868530
  61.2966309  55.4820099  87.0065918  20.6647072  53.8977699  79.9602509
  20.7058563  53.5922661  80.8664551  20.0741844  53.2818794  79.5264359
  62.6222420  46.4914780  63.0504456  63.3124962  47.1275101  62.8627243
  63.0889587  45.6702843  63.2055168  22.7407684  22.2432461  13.3389025
  22.3417797  21.4844704  13.7646933  22.5957832  22.9649620  13.9507351
  67.5515900  70.0178452  54.1175423  66.8020706  69.4478531  53.9456215
  68.1019897  69.5151901  54.7180710  43.0614548  63.2902641   8.9850941
  43.1937981  64.2270050   8.8393593  43.1741676  63.1764145   9.9287920
  18.0475578  56.7694740  12.3906355  18.6902752  57.4370728  12.1509352
  18.5552559  55.9606171  12.4556055  46.8198357  60.6535950  61.8204346
  45.9955902  60.3023186  62.1572723  47.4965782  60.2011909  62.3240089
  30.8026199  49.8101997   8.0607653  30.1926212  49.1622086   8.4132490
  31.4944477  49.2902603   7.6517801  48.6390915  52.0964317  66.5999985
  49.0277138  51.5432549  67.2776413  49.3582420  52.2731590  65.9935226
  56.3735046   2.7008281  70.0101852  57.0360565   3.1765223  69.5092163
  55.6085358   2.6788251  69.4352341  69.4788742  54.3914986  14.7872591
  69.7255249  53.6308784  14.2610865  68.5556107  54.2491531  14.9959507
  49.0823822  21.9343662  83.8522873  50.0034828  22.0130615  84.1005173
  48.6023407  22.3068542  84.5919113  25.7554226  42.8458977  79.4601822
  25.0875206  43.0519218  78.8062057  25.3621311  42.1564865  79.9952240
  25.9840584  63.4722824  70.1565857  26.8974133  63.6136551  70.4056396
  25.5484715  64.2989426  70.3642426  51.3256683  33.2528687  16.4743538
  50.9129486  33.9380417  17.0001221  50.8661385  33.2853088  15.6353006
  56.5805588  22.5805149  20.3331165  57.4637604  22.2118568  20.3498859
  56.4784126  22.9171886  19.4429207  56.3587341  55.5073700  19.1442757
  55.7212448  56.0512047  19.6069679  55.8977737  54.6845551  18.9807968
  53.8332520  53.8155975  87.4900055  54.6376686  53.9869232  87.9796906
  53.9688187  54.2491341  86.6474457  10.5712061  14.2956753  69.5951538
  10.8504620  13.4617367  69.2172775  11.3527365  14.8473444  69.5619431
  14.6801052   6.8614593  48.0539742  13.7976217   7.1361661  48.3029556
  14.9774942   6.3197293  48.7849464  28.6562939  62.5597992  87.7085266
  29.5968781  62.4881172  87.5460663  28.2955112  62.8894424  86.8854828
  13.2277803  10.6207361  58.3582077  12.4085464  10.2065611  58.6294022
  13.2356291  11.4600430  58.8183556  56.3532372  13.6084251  11.7544613
  56.2213020  13.8884382  10.8486919  56.7832603  14.3529825  12.1751108
  14.8683033   5.7353044  36.1090927  14.3321609   6.1899657  36.7587585
  14.3427820   5.7542114  35.3092804  76.2643433  38.8747253  53.4905052
  75.5324783  39.4247589  53.7699165  76.8444366  39.4705734  53.0164948
  35.4878807  45.7200470  68.4647751  35.5365448  44.7695618  68.3625717
  34.8794250  45.8519211  69.1918411  46.2389259  58.3771515  52.1134300
  46.9938469  58.4023628  51.5254745  45.5108223  58.1012840  51.5566597
  67.5455780  30.6925240  12.5024548  66.6746597  31.0705547  12.3807278
  67.8487854  30.4989758  11.6154165  10.2954206  17.7200947  71.9802856
  10.2589846  18.3703575  71.2788162   9.7344542  17.0070114  71.6752319
  83.1124802  10.6891527  26.1918125  83.8695297  10.9483242  26.7171173
  83.0234909   9.7489052  26.3475266  12.0433493  64.1810150  20.4181156
  11.1688137  64.0413361  20.7813091  12.2064991  65.1163712  20.5394535
  24.0754910  45.0903702  61.8323135  23.8596725  44.3337402  61.2871857
  25.0292950  45.0660019  61.9090843  38.0246201  21.9101562  71.2689514
  37.3213425  22.2943363  71.7924423  38.6143227  22.6416912  71.0863724
   3.5327535  41.8627319  51.0289879   4.2852077  41.3330231  51.2925262
   3.9157004  42.6765175  50.7013702  83.7601624  37.9721184  71.3503189
  83.9314575  38.5567169  72.0886459  84.2499084  38.3554306  70.6226807
  49.1711273   8.8628702  34.2194862  49.5945091   8.1675367  34.7229652
  48.3624420   8.4659090  33.8959427  34.8716660  67.8648529   6.5300264
  34.1202774  67.8424454   5.9374480  34.9024506  68.7686768   6.8436961
  85.0728989  38.9504242  24.2596893  85.7390518  38.2994232  24.4802895
  84.8491516  39.3572807  25.0967312  42.7112503  10.5999842  12.3955469
  43.1958694   9.8242922  12.1132717  43.0937653  10.8259850  13.2433910
  63.2618713  56.1609573  67.8266144  62.5847702  56.6900711  67.4049530
  63.8167076  55.8631744  67.1057053  54.4452095  41.6371307   8.9836445
  53.6255951  41.9942360   8.6416836  54.3007851  41.5672951   9.9273052
  53.1810226   3.2796860  42.6318054  53.5614738   3.5023515  41.7821541
  53.9016457   2.8813345  43.1199188  23.2127285  37.6977615  16.1093807
  23.3695354  36.7594719  16.2154770  23.9052792  38.1157074  16.6211681
  37.2885056  60.3419266  88.5899124  37.3941422  61.2533340  88.3171310
  37.5861015  60.3281479  89.4995728  68.6311646  46.9286232  55.3825111
  69.2233047  46.2963982  55.7898102  67.7552490  46.6215363  55.6163750
  12.3375692  43.7515144  81.2237091  12.3208132  42.8600540  81.5719147
  11.8109131  44.2595978  81.8407288  57.0168457  60.7581406  66.6738129
  57.7264061  61.3019142  66.3316650  57.2057991  60.6782494  67.6087723
  57.4024010  68.1575241  10.0767717  57.4948006  68.1525345   9.1240549
  56.6810074  68.7639618  10.2442713  10.4527903  54.6825333  37.5024757
  10.1548758  54.9284439  36.6266861   9.9962997  53.8621750  37.6891899
  86.5733643  40.1934395  60.7537270  86.4365234  39.2817497  61.0112724
  86.4793243  40.6888618  61.5673294  18.4043980  21.7899189  76.3234558
  17.7856522  21.6094303  75.6157761  17.8521881  21.9954834  77.0778046
  10.4629707  34.8294907  36.4836731   9.6862164  34.2792091  36.3833122
  10.3288946  35.2836533  37.3155365  49.5395927   6.7277093  59.7748489
  48.8483200   6.6628709  59.1159286  49.2796631   6.1079683  60.4564552
  83.6572342  47.5053520  55.8425407  84.1611786  47.7385406  55.0628624
  83.9752731  46.6348114  56.0817871  75.3472443  11.8334160   8.4689207
  75.1442032  12.3712406   7.7035761  76.2541122  11.5581923   8.3344831
  16.4447670  35.3569221   0.2736794  16.4651890  34.4048424   0.3704478
  16.7986965  35.6891632   1.0986530  38.6341591  53.0485764  73.7605057
  39.0432091  52.5382919  74.4594498  38.3750839  52.3972931  73.1086273
  70.4830856  24.1124020  88.5404129  70.3952637  24.2833481  87.6026993
  71.4220657  23.9823914  88.6732559  68.5932770  70.3303986   9.9981432
  68.4316559  69.7630539  10.7519512  68.7776718  71.1887360  10.3795652
  43.7423439  59.1677513  37.1231461  43.3362007  59.5890846  37.8806114
  44.6055679  58.8956604  37.4346733  59.8183212  18.5177479  74.2150421
  60.3953438  18.1206474  73.5626678  59.8181992  19.4501953  73.9987717
  52.6780968  14.2609234  67.1172180  53.3710098  14.9113464  67.0029602
  52.8897057  13.8283310  67.9444504   6.2484636  34.8627892  76.4804382
   5.3841424  35.1319656  76.1694336   6.8624845  35.3079491  75.8964462
  78.0897217  50.8750687  75.3559265  78.8858795  50.4321938  75.6495819
  77.3800125  50.4121056  75.8011322  75.7999115  35.8844223  56.1885643
  75.3902817  35.8742867  55.3235016  76.2461014  36.7301292  56.2323990
  52.6674995  47.8581238   1.2374790  53.1998482  48.4076385   1.8126919
  53.2284851  47.1094475   1.0349636  56.4088058  16.5810699  51.4712334
  57.0710678  17.2414703  51.2674942  56.3658104  16.5720253  52.4274216
  76.4857941  48.2294121  41.5561714  75.7254791  48.5258408  42.0564499
  76.4906845  47.2788467  41.6685753  49.2278824  61.1826859  60.6696014
  48.6500053  60.8753357  61.3680458  49.7141914  60.4032936  60.4007454
  65.0159760  31.9053421  11.6569281  64.5963287  31.0478458  11.7264099
  64.4418488  32.4934311  12.1476021  39.1583099  19.7311249  20.0692577
  39.6537437  19.7415447  19.2503128  39.2614899  20.6146107  20.4228649
  53.3595505  32.9095650  77.8872375  53.2088127  31.9644470  77.8710785
  54.3123322  32.9998894  77.9041443  14.5893917   0.8031549  40.2275925
  14.6827316   1.7306098  40.0099983  13.6928196   0.7225394  40.5530014
  56.5870743  43.4939995   7.9049616  56.5152321  42.5765266   7.6416836
  57.3626099  43.5223618   8.4652901  51.8051414  50.2282639  20.3924141
  51.8867912  50.2237244  19.4387131  52.6289978  50.6049919  20.7015476
  78.8346252  60.0532608  13.0325375  78.4698944  59.4128723  12.4217138
  79.7536697  60.1317940  12.7767591   2.5171757  18.0180798  15.0296679
   3.0117381  17.2370548  15.2779398   3.1867566  18.6645794  14.8062172
   9.6585007  16.0921307   0.4099648   9.8286133  15.6428900   1.2378999
  10.3948326  15.8479061  -0.1507501  47.8121643  65.5772476  11.7001057
  47.1050835  66.1587601  11.9795799  48.3951416  66.1378784  11.1881886
  68.0323410  37.9553337  86.2156601  68.2628021  37.1869125  86.7378159
  68.8277740  38.1575241  85.7230682  65.7931824  65.2248459  16.8360996
  65.2884064  64.5840302  17.3368835  65.1655197  65.5893707  16.2120838
   7.4023428  48.9622459  30.9489174   7.2886386  49.2686157  31.8486080
   6.7024660  49.3936691  30.4587345  10.5771656  18.7089119   7.6772156
  10.4776850  19.6206360   7.4031849   9.8362989  18.2556705   7.2748199
  24.6628914  47.5424652  73.2547836  24.3862534  48.4413414  73.0766754
  24.9732018  47.2155914  72.4103394   2.6964393  28.1715412  27.7477646
   1.8317339  28.3349514  28.1243458   3.1493537  27.6458054  28.4070835
   3.9245970   7.9140725   4.7609553   3.0605361   8.2953539   4.6052136
   4.4918313   8.3341627   4.1144252  55.2775230  22.5573254  15.7358875
  55.6463966  21.7054558  15.9693003  54.4622078  22.6100521  16.2345982
  30.1894722  36.2018776  79.8744888  29.2691479  36.0003433  80.0436707
  30.3740845  35.7884598  79.0311432  85.1966858  35.7230873  74.3438110
  84.9692535  35.5653305  73.4274979  84.3643799  35.6571236  74.8119431
  71.4254913  65.1796188  39.8182335  71.2108002  65.5407867  38.9581795
  71.3462677  65.9225616  40.4165649  30.8665218  61.9671555  52.5501938
  30.8291893  61.4249153  53.3381119  30.9730816  62.8599014  52.8786545
  14.6457233  58.8791962  76.5533752  13.8519926  58.7767715  76.0282745
  14.3580971  58.7293854  77.4539642  78.7742004  17.2473392  26.2615013
  79.1421051  18.0211468  26.6882286  78.4649429  16.7000313  26.9833374
  42.5314751  65.0391922  81.7644653  42.9809113  64.9173965  82.6007690
  43.1318169  64.6739655  81.1145172  24.0684509  54.7078972  35.2382469
  24.1809044  55.3894539  34.5756264  23.1656818  54.4104996  35.1251297
  33.4881248  45.8546104   3.2649317  33.0657845  46.6045876   3.6837316
  34.4065742  45.9200897   3.5264616   5.4365869  71.2575912  77.2788467
   6.1963925  71.8382721  77.3205719   5.5197878  70.6984100  78.0512543
  62.5468750  33.6031799  80.2415771  62.2906685  34.4160690  80.6772385
  61.9214973  33.5091362  79.5230408  15.3072624  53.6935463  76.6746902
  14.5903749  54.1212883  76.2063522  15.6021690  53.0024910  76.0816422
  70.6395111  55.9356194  54.8703804  71.5870438  56.0622139  54.8215523
  70.2727356  56.8021965  54.6950264   5.3865528  68.4513550  27.9518204
   6.2872729  68.7658615  27.8742371   5.4319506  67.7536621  28.6055737
   9.0166721  16.2335243  77.8951340   9.8696127  16.6450443  77.7559433
   8.8243265  16.3879242  78.8200150  61.9626923   4.4360542  59.8828278
  62.0986633   4.2202206  58.9602432  61.1831436   3.9398804  60.1325150
  21.8076439  49.7076073  59.3563423  21.8046227  49.2728271  60.2090950
  21.3370934  50.5279617  59.5040855  15.0903769  56.9066772  18.9130020
  15.7894735  57.5338020  19.0979614  14.2828512  57.4082413  19.0250931
  65.3182449  40.7441978  31.0720615  64.4764938  41.0439682  31.4153118
  65.4476166  41.2565575  30.2739487  49.4778061  36.8086090  25.9058838
  49.6195412  37.2006416  25.0442257  50.0908966  37.2663422  26.4810600
  30.2105064   0.1782469  18.5669270  30.8465443   0.8150861  18.2411633
  30.4982567  -0.0124503  19.4597130  53.9020233  52.1636314  52.2879410
  54.4905052  51.5649071  51.8281021  54.4555321  52.9071426  52.5267906
  41.9090614  69.8458633  63.3666267  41.4060822  70.2842484  64.0529709
  42.3446426  69.1208878  63.8148575  64.1095505  30.9437237  41.2008629
  63.3519402  31.1259232  40.6449356  64.4424057  31.8079376  41.4428864
  49.8574486  59.4256134  76.7351761  49.2834129  59.7525787  76.0424957
  50.1912079  60.2146873  77.1620255  31.7062073  44.7577209  82.2105865
  31.9242840  44.2739563  83.0072327  31.1701164  44.1503563  81.7007370
  34.7744370  61.9288750  67.0820923  34.8684120  62.8548164  67.3057709
  35.5760994  61.7152443  66.6046753  45.5391541   0.9793832  81.0846939
  45.1020126   1.4408350  80.3690109  46.3057213   0.5764171  80.6769791
  56.8650017  64.5441589  10.4599667  57.3775063  65.1527481  10.9921227
  56.3649750  65.1061325   9.8680277  26.6001205  24.1161633  89.0411072
  25.6440048  24.1337681  89.0831223  26.7975731  24.0460815  88.1071243
  17.2351303  59.5884361  39.7282219  16.3472385  59.9400597  39.6630898
  17.7056465  60.2243690  40.2671432  52.2305450  39.1837997  69.2581100
  53.0210304  38.9890213  69.7615280  52.3567772  38.7256317  68.4272156
  26.6835327  27.9232368  80.0043030  26.5375385  28.7442093  80.4743271
  27.5890388  27.6886921  80.2074738  31.4812603   7.9704661  59.0059052
  32.1043663   8.6647167  59.2203484  31.7704220   7.2202635  59.5253410
  58.5388641  43.7628632   2.5912375  57.7657356  43.5789566   3.1247957
  58.4502220  44.6851845   2.3510244  10.0707121  25.1422882  39.6919022
   9.6740265  25.4115810  38.8634377   9.6538820  24.3051605  39.8961105
  67.1489334  45.5577049  20.5413513  67.2370834  45.1979103  19.6587372
  67.6347656  44.9489517  21.0977840  56.3628044   5.6375771  12.8182564
  56.4926720   4.7167521  12.5914364  55.7166862   5.6215076  13.5243082
  17.6508446  24.6690693  20.9125214  18.5549011  24.9651356  21.0186348
  17.1206532  25.4359016  21.1295414  75.9758224  34.2146149   7.8561420
  76.6490631  34.6957016   7.3749633  76.4257889  33.8874474   8.6350670
  79.6269760  57.5075836  25.8193436  79.8920288  57.5064240  26.7391129
  79.1609955  58.3359070  25.7054157   1.1529831  24.5361500  58.7560730
   0.9280624  25.4514694  58.9229050   1.7742381  24.3120537  59.4489326
  36.5751305  66.2235260  56.6493111  37.0737457  66.8444443  56.1181984
  37.0705872  66.1544800  57.4653931  53.7281418  68.9250946  61.8995094
  53.8662987  68.5300140  62.7603569  54.3617058  68.4876633  61.3307533
  32.2992821  51.3093185  32.4384422  32.3011589  50.5593224  31.8436871
  33.1878777  51.6608849  32.3833847  31.9534569  53.1714592  82.5739288
  31.9511909  53.2253304  81.6182480  32.2870445  54.0215034  82.8609467
  47.2040482  17.2844391   1.1244351  47.6450806  17.2030392   1.9700689
  47.1032372  18.2277069   0.9966995  27.7338753  27.0293427  47.6421776
  28.1725693  27.1712322  46.8033409  28.3486023  26.4967957  48.1468925
  55.1312065  36.0371666  83.9319992  54.8256683  35.1880684  84.2512283
  54.3728752  36.4114609  83.4835892  33.7725525  51.5917892  68.1185989
  33.4687614  50.7022972  67.9376221  33.4453011  51.7824364  68.9976807
  44.4445839  31.6418209  16.7679329  43.7124748  31.8106213  16.1748409
  44.3457260  32.2935371  17.4619980  66.4373169   1.5024873   1.7195876
  66.9182968   2.2921057   1.4718051  67.0491714   1.0115767   2.2681108
  46.2954788   2.6621430  25.8188629  45.6610451   1.9797001  26.0379524
  47.1085701   2.1871028  25.6472626   2.6163976  55.5405045  42.3138733
   3.2939942  55.2301483  42.9145164   2.2684307  54.7439194  41.9131241
  36.6163940  46.6993904  14.2275190  36.7341461  46.1065331  13.4853010
  35.7346535  47.0539665  14.1132936   4.1633978  49.9342232  19.1492767
   3.5569305  49.2583275  18.8466301   3.6478820  50.7406769  19.1387939
  67.8176880  61.7431946  31.5446358  67.5590744  60.8474579  31.7614441
  67.2229538  62.0003204  30.8400726  21.9208298  39.8905296  80.6179123
  22.3349571  39.1684303  81.0904541  22.0190544  40.6447029  81.1991196
  73.8260651  24.7294216  25.2975197  73.1277008  24.9525700  25.9129238
  73.5320129  23.9167786  24.8859634  66.3163528  14.7105732  16.0278931
  66.6770477  15.2217216  16.7523651  67.0837784  14.3497400  15.5839453
   9.3708649  40.3397369  81.1540604   9.9146767  41.0840683  81.4118805
   9.8831282  39.5708160  81.4042130  27.5879822  58.2726936   4.9840508
  27.0284405  58.0006599   4.2566299  27.8937340  57.4522476   5.3708544
   6.6976867  54.3469200  57.5183525   7.4787469  54.5391464  56.9994850
   6.0544896  54.9955254  57.2322807  15.4868174  41.1799316  78.3589172
  14.6464663  41.4802895  78.7050781  16.1325150  41.7627716  78.7584229
  69.0765152   9.5112734  57.1516609  69.7995529   9.4421892  57.7751007
  68.6661682  10.3522816  57.3530235  17.5733814  10.9380713  20.7186432
  18.1734276  10.1962748  20.7955647  16.7394600  10.6071615  21.0522690
  85.3744431   2.4377861  65.1652756  84.6668396   2.8820038  65.6323929
  86.1288452   2.5083067  65.7501984  42.9670906   3.8134704  48.7862358
  42.6702042   3.3172302  49.5490189  42.2030563   4.3257651  48.5215874
  38.0278168  69.6559753  58.6520805  37.3363800  70.3109360  58.5562630
  38.3599319  69.5265884  57.7637177  15.8772736  11.6700754  89.1060410
  16.0053291  12.0083866  88.2198257  15.7785387  12.4521551  89.6490250
  84.3125000  11.6860476  76.8510666  83.6581650  12.3839903  76.8203049
  85.1524353  12.1431570  76.8086548  83.3337555  41.6240234  77.8557434
  83.0740891  42.5005150  78.1395950  84.2282410  41.7321129  77.5325699
   5.8165979  42.2100372  77.5185318   5.5802565  41.3414764  77.1929932
   6.6476669  42.0769768  77.9744415  36.1234589  31.1972637   6.4644470
  36.1423988  31.6254349   7.3203344  37.0379791  31.1858845   6.1820388
  69.2362823  36.7741737  66.3216324  68.5771408  37.4624710  66.4110870
  69.7848663  36.8651733  67.1007462  86.2614059  69.0813904  50.5755005
  85.9007568  68.3380890  50.0921135  87.2082520  69.0084534  50.4555130
   2.7698038  58.8258705  38.8295860   3.3038471  59.6181793  38.8868790
   2.7302439  58.4982071  39.7280884  39.3873749   5.0224390  60.2146339
  39.8073692   4.1684532  60.1119423  38.4640465   4.8600340  60.0214386
  48.1161232  57.8972626  88.0865097  47.7510147  58.0632286  88.9556351
  48.2980766  58.7679405  87.7328949  74.4866638  25.2474136  80.8421860
  75.3451614  24.8447990  80.9730301  74.3172455  25.1510372  79.9050369
  82.8817902  17.7801170  53.6536674  83.7900620  17.5082607  53.7854958
  82.6980820  18.3658218  54.3881264  61.3496971  38.5472565  83.9543991
  61.3849869  38.3311958  84.8862305  60.6951561  37.9487610  83.5943832
  49.2854996  70.0922394  41.5191193  49.7177849  70.6942444  42.1248894
  49.4461899  69.2240448  41.8887863  15.6707468  10.1682386  22.6195221
  15.9725151   9.4400759  23.1626129  15.5233335  10.8835058  23.2383060
  52.6264114  41.5529709  20.2813320  52.7206726  41.4609375  21.2294235
  53.1016884  40.8049469  19.9196587   7.5958433  68.3577347  12.8497038
   8.4267654  67.8957977  12.9611444   6.9658694  67.8423767  13.3534651
  85.4955826  19.2721100  25.7922497  85.4089508  19.5905037  26.6907768
  85.2897873  18.3389530  25.8479195  70.4166107  34.8345833  63.4829521
  69.7249527  35.3780632  63.1054955  70.9877014  35.4545517  63.9365273
   5.7060099  32.0559769  37.5256844   5.1787834  31.2583733  37.5714340
   5.8792219  32.1753540  36.5918846  26.3491974  64.2195816  30.0494156
  26.9786568  63.4989662  30.0764160  25.6400566  63.9399796  30.6283588
  23.5749416   8.2736607  37.3998756  24.1566277   8.5100069  38.1223793
  22.9320679   7.6835289  37.7931824  85.9178848  18.2994785  21.9250584
  85.2876129  18.2252560  22.6416359  85.3849106  18.5088768  21.1580334
  68.8993073  48.4251595  29.3490601  69.5986557  49.0254288  29.0905743
  69.3548279  47.6861572  29.7523041   7.2002640  48.3969345  55.2724190
   6.6489305  48.8473549  55.9122505   7.8534184  47.9375992  55.8002777
  14.4371147  24.7466774  16.5862961  14.9154243  24.0815182  16.0913048
  14.7997236  25.5786037  16.2819195  62.1613617  49.2532806  10.9847422
  62.4515800  49.0589981  11.8759546  61.9275017  50.1812325  11.0059423
  63.6904678  66.2425461  80.8204727  64.1041260  66.1669846  79.9605865
  63.2228508  67.0771484  80.7888031  25.2218494  63.5166397  43.6351509
  25.5805626  64.1988525  43.0675735  25.3052139  63.8726959  44.5197411
  56.3903542  31.1602020  12.4145985  56.6032524  31.7626839  11.7019129
  56.8598404  30.3551979  12.1960077   0.9560992  18.5648708  87.8703918
   1.3196965  17.8064251  87.4134598   0.6572791  19.1455250  87.1705551
  28.8315926  57.7527924   0.9089426  29.2099304  57.4169197   1.7215188
  28.2350521  58.4461441   1.1911460  23.9319572  61.5360718  56.7749176
  24.4635849  61.4597855  57.5672455  23.5429821  62.4089012  56.8305931
  46.3003616  30.0075703  10.4908419  46.2542152  30.4167137  11.3549614
  46.3877640  29.0719719  10.6731873  74.8942871  32.8068008  37.8038940
  74.6707535  32.8775864  36.8758583  75.7787170  32.4407768  37.8099823
  19.3562717  41.1003304   4.2064300  19.9768467  41.4907074   4.8218350
  18.8137474  41.8334732   3.9159131  14.4035511  13.5022535  74.1941376
  13.8297234  12.7404642  74.1127090  14.1952133  13.8682556  75.0537109
  18.3362999  44.4516830   5.9142456  18.2938137  44.5408401   6.8663368
  19.2715416  44.3857231   5.7213607  34.4330864  26.2606506  80.7984085
  34.4183235  26.8469391  80.0419159  35.3315697  26.3128090  81.1243515
  54.1170197  53.2890472  82.8481903  54.6971741  53.8422737  82.3251266
  53.3319969  53.8210297  82.9784470  59.1343307  53.0705910  29.0989742
  59.6729889  53.0735245  28.3077297  58.2342033  53.1123810  28.7760906
  17.9671421  57.3471718   6.2287793  18.9193573  57.3470078   6.1312156
  17.8043861  57.9052734   6.9892159  54.8685875  61.4064827  18.9201984
  54.1822510  60.7414780  18.8660030  54.4388657  62.2170029  18.6470184
  67.7885818  22.6094379  60.2003479  67.1299591  23.0850925  60.7065086
  67.2883453  21.9583206  59.7083702  59.1143341  22.4112492  66.4495621
  58.4365425  23.0474014  66.6779099  59.5786057  22.8097572  65.7134476
  48.8753128  34.2210350  25.3403378  49.5481644  33.6365509  25.6894474
  49.0590363  35.0677757  25.7471638   6.6082983  63.9598427  78.3752899
   6.3060942  63.8511124  79.2770004   6.0751638  64.6752625  78.0286255
  86.8047028  24.6318741  61.6499710  86.7646866  25.0914822  62.4886551
  85.8904037  24.5463486  61.3798599  61.1612434  28.5328941  51.4157639
  60.6714325  28.9938049  50.7346764  61.7210083  27.9220448  50.9364319
  74.2925720  21.9309425  39.8827019  73.8270340  21.0957756  39.9274063
  74.6060486  22.0784779  40.7750015   6.8248658   4.4822950  11.3778009
   6.1274734   3.8341708  11.4768505   6.5400105   5.2240939  11.9114904
   8.7399817  25.3289089  37.2677841   9.1265135  25.8206425  36.5432014
   8.7228909  24.4226799  36.9600677  80.6375046  31.4453697  79.7958603
  80.2964478  32.3001060  79.5325470  79.9038773  31.0216503  80.2413712
  58.9831276  25.7955647   8.3841877  59.2558060  25.7998390   7.4666591
  58.0746803  25.4947491   8.3626728   1.5960007  35.3288231  64.0690231
   1.9095852  35.3760033  64.9721680   2.0119302  36.0719185  63.6319427
  49.1003113   8.2921848  54.7404633  49.3950958   9.1073036  54.3343658
  49.8994370   7.8936324  55.0851212  75.4745026  19.4451256  79.7238312
  74.7621384  19.7683125  80.2754822  76.1613388  19.1948643  80.3417816
  48.0017014  45.3552666   5.8761635  47.1594238  45.7710381   6.0603819
  48.5533028  46.0660591   5.5494471  56.7784653  56.1622009  37.5881767
  56.6420860  56.8784027  36.9679413  55.9362373  56.0668678  38.0329208
   2.2933455   1.7807564  78.7555923   2.4083409   1.9191532  79.6957321
   1.3445746   1.7536360  78.6317749  73.6473236   5.3127584  40.8462601
  74.0434647   5.9035759  40.2057571  74.3658752   5.0806785  41.4345284
  22.7051315  59.0670319  37.0398254  22.9800472  59.0460320  37.9564590
  22.2618408  58.2296906  36.9034843  79.7519836  40.6375847  13.5292149
  80.5291748  41.1741066  13.3731689  79.0521698  41.0858803  13.0543213
  64.1277084  46.7595177  28.8554344  63.7219009  45.9510117  28.5425892
  64.2184677  46.6321220  29.7997665  60.5731201  31.3829193  41.9080505
  60.0654640  31.6132965  42.6861534  61.1757011  32.1170845  41.7891846
  80.7576675  26.1525707  65.2204285  80.4375229  27.0504055  65.3077698
  80.0276413  25.6752644  64.8261414  17.3750801  67.7612381  40.0137672
  16.8608685  67.1275406  40.5140114  17.6137333  68.4333267  40.6521797
  60.3401451   7.1514668  15.8134651  59.6414490   7.6430006  15.3816624
  61.1464310   7.5835314  15.5315933   5.4377365  52.2430038  72.8795090
   5.6843042  51.3380241  73.0704269   4.4902382  52.2664299  73.0134125
  70.1340179   5.5239263  29.9117298  70.1303253   4.7159543  29.3985043
  69.9982681   5.2350745  30.8141537  73.9372940  55.4175262  65.5877838
  73.1039658  55.7493744  65.2536087  74.5247803  55.4413033  64.8324509
  55.5059204  11.2143145   7.9754748  55.3162270  10.7373247   8.7833910
  54.6998520  11.1483326   7.4634891  28.2771721  49.9814034  18.0883465
  27.7711029  49.7623749  17.3059444  29.1647911  50.1344452  17.7643986
  67.6333389  13.1577482   7.3169727  67.5707321  12.8367891   6.4173636
  66.9712219  13.8468046   7.3720613  43.0644379  13.5236912  63.5704803
  43.1777039  13.5008335  64.5206757  42.1161919  13.5017948  63.4417114
  21.4910545  32.5600967  74.6039276  21.7093334  31.6947575  74.9500198
  21.7640400  32.5271988  73.6870728  66.6149368  62.9313011  67.5644684
  66.9436111  63.6706352  67.0530090  65.6976624  62.8485870  67.3036880
  32.4689674   1.8446977  75.0618134  32.3211288   1.0175923  75.5203629
  32.3289871   1.6349677  74.1384201  16.0561066  51.6650696  38.9936371
  16.2100468  52.4825974  38.5201607  15.2985964  51.2747765  38.5576553
   3.6025639  59.1897354  53.9839516   3.3535202  58.5859070  53.2842369
   4.5596986  59.1873016  53.9730339  58.7296715   6.1345487  58.9449883
  59.1603928   6.2893863  58.1043129  58.8879471   5.2084785  59.1282234
  32.3261604  10.3226538  43.2344475  31.6461487  10.8148298  42.7744713
  33.1132965  10.4493284  42.7047348   9.8279161  12.8007431  53.7231903
   9.8083887  11.8446045  53.7638016  10.7107658  13.0346603  54.0097046
  60.1961937  15.0926208  22.1915741  59.9928894  15.1283026  23.1262550
  59.8495483  14.2483072  21.9031258   4.8783913  37.5837746  14.2891893
   5.1040802  37.9717064  13.4437284   4.6593494  38.3316345  14.8450327
  66.3501968  38.4130898  76.9530487  66.0380783  37.8535767  77.6642151
  65.8105469  38.1683731  76.2013016  64.3990936  47.1401024  31.9075432
  64.9999847  47.8686256  31.7513027  63.6118393  47.5512886  32.2644615
  45.8065796  38.3318787  75.6149445  45.0931244  38.1753807  74.9962997
  46.3356972  39.0146904  75.2025909  25.1188908  70.3082352  63.9309082
  26.0649338  70.1977539  63.8358841  24.9312592  71.1440506  63.5037804
   4.2743387  16.0566254  15.5659275   4.0961418  15.5501671  16.3583775
   5.1268311  15.7407303  15.2664299  61.4043503  56.8802490  39.5855560
  60.9285545  57.0420189  38.7708893  62.3110199  57.1110382  39.3832703
   3.1301785   1.3032763  84.8510284   3.7348726   2.0116572  85.0718765
   2.2753401   1.6175410  85.1455154  38.5488739  60.8037834  23.3115234
  39.2099304  60.9800491  22.6420708  37.7418251  61.1747246  22.9547215
  76.4533310   2.5433416  17.7397861  77.0933456   2.7407424  17.0559387
  76.5346909   3.2676489  18.3602638  74.8996735  38.3257561  17.9736500
  74.1528244  38.9230042  18.0154495  74.7173462  37.7667656  17.2183247
  37.1418495  64.7718582  43.2933044  36.5334091  64.7020264  42.5576706
  37.8362350  65.3491516  42.9758301  77.0898972  38.9520721  77.1576309
  77.0730667  38.8854713  76.2028961  77.4160614  39.8352470  77.3303986
  53.7671356  31.6982307  86.7858658  53.2530785  31.2457485  86.1171036
  53.2848778  31.5504284  87.5993805   2.5592146  48.7701607  57.2739220
   2.9617229  48.2954063  58.0011292   2.1502674  48.0888634  56.7402306
  48.5276794   6.5392513  30.9722004  47.8314171   6.6210837  31.6239319
  48.1091003   6.7734532  30.1438446  55.0819283  26.3102264  10.3417063
  55.0873566  26.2829895   9.3849096  54.1540794  26.3381252  10.5752621
  58.1223145  53.3126526  79.8624420  58.5336952  53.5255013  79.0247726
  58.8517189  53.2543488  80.4795303  26.1569271   6.8893895  12.1314459
  26.9590168   7.2481780  12.5111208  26.4315071   6.0680752  11.7236719
  57.4918938  24.4745789  24.9542065  57.9419823  25.2229538  24.5623035
  56.9751015  24.1043129  24.2386246  20.0453434  51.5465050  72.0468521
  19.1204071  51.7277985  71.8799438  20.3798695  52.3518867  72.4414139
  66.3871841  13.3323574  22.6757908  67.1221848  13.3251352  22.0626335
  65.6242294  13.5305538  22.1327934  85.0752869  51.3619881  54.2813263
  84.2834244  51.6147614  53.8066750  84.8260651  51.4075546  55.2043877
  18.6952591  34.6844902  13.8127365  19.0963593  34.5507011  14.6714869
  18.2382698  33.8632317  13.6312685  71.8933563  47.9280739  31.6587543
  72.8066711  47.9148903  31.9449501  71.4089890  47.5360832  32.3853683
  53.5014687  43.6807098  75.6227417  53.2386513  43.8369141  74.7156830
  54.3994331  43.3553467  75.5592728  25.3159637  68.4218979  38.3386917
  25.1410198  68.9390335  37.5524368  24.8069420  68.8515244  39.0261116
  68.9157410   8.2223749  63.8806305  69.6304626   8.5403681  64.4322510
  69.2534103   7.4149532  63.4929657   7.2252173  29.0211754  10.9180241
   7.0376811  28.4328518  11.6494179   6.8897319  28.5611954  10.1485434
  76.1615524  11.9843378  14.0590143  75.8514633  12.7990294  13.6635952
  76.0859909  11.3348646  13.3599386  70.1426392  41.4402008   6.7025399
  69.9038467  41.1291161   7.5757170  70.5647888  40.6880493   6.2874579
  14.9699192  38.1080017  22.6842690  14.6342907  37.2923813  22.3123131
  14.4647808  38.7951546  22.2496567  79.2371826  46.3525963  66.1733170
  79.9877930  46.9063339  66.3882370  79.6219254  45.5081062  65.9386978
  74.4091415  34.6719780  49.7959175  74.7626114  35.4896317  49.4455833
  73.7438507  34.4070549  49.1607552  25.6311588  54.8681717  72.8853607
  26.1786823  54.7682915  73.6641235  25.8883667  54.1421776  72.3170242
  56.8983650  60.3156242  71.9591904  56.4528503  59.9864578  71.1785507
  57.0540581  59.5362587  72.4926453  10.4949875  55.7672043  67.2444077
   9.8597927  55.3689156  67.8394852  10.3375177  55.3376999  66.4035950
  15.4851370  40.3852921  62.9963264  14.6852522  40.3442154  62.4721832
  16.1300316  39.8932800  62.4881287   6.4951086  43.3910370  64.4914780
   5.8769464  44.1156273  64.3962097   6.5059400  43.2073822  65.4308319
  31.1418190  59.0940361  29.0443439  30.6851559  58.3665543  29.4667873
  32.0195045  58.7555046  28.8674412  44.8550911   9.8868980  25.8682899
  44.2836227   9.1692219  26.1414146  44.2582779  10.6137028  25.6899529
  19.4344101  66.3256912  75.3777161  18.6111107  65.9247360  75.6563644
  19.5819111  65.9822159  74.4965286  58.3659019  56.2400208  20.8585644
  57.8996468  55.6759872  20.2415504  59.2677498  55.9196930  20.8414631
  44.0841331  32.2987099   3.7964184  44.9387779  32.1103554   4.1841516
  43.8120003  31.4699192   3.4023628  63.8927574  10.5423107  31.8503647
  63.6590767  11.2572832  32.4423447  64.8434677  10.4656162  31.9310055
  23.3451309  13.7907887  10.5123367  22.4891224  14.1752548  10.3234739
  23.9534931  14.2745609   9.9536848  70.7562790  66.6129837  31.7617722
  70.7673340  67.4574280  31.3111897  70.3748703  66.0073471  31.1261902
  41.3523712  55.4781265  70.1091843  40.9979286  55.1249695  70.9251938
  41.6574059  54.7090225  69.6278687  19.0587482  47.6240463  59.1588898
  19.4683037  47.0196114  58.5398941  19.7291813  47.7753410  59.8251152
  14.3021507   1.5994434  49.0811958  14.1045895   0.9211311  48.4353676
  14.9028873   1.1775749  49.6955032  41.6590958  67.4319611  80.7174149
  41.0743217  66.8061371  80.2900848  42.0770416  66.9299927  81.4171143
  39.3222542  47.3817787  60.6190987  40.1216621  47.8797798  60.4482956
  38.8922310  47.8558235  61.3308525  16.6756954  12.8953304  51.2499199
  15.7493238  13.1357746  51.2339134  16.7491589  12.1826220  50.6151886
  73.8545990  42.1318932  32.4257469  73.2351379  42.3034363  33.1350288
  74.0032120  41.1869507  32.4608536  24.2841949  55.3755951  67.0678329
  25.1115265  54.9000854  67.1429672  23.8131504  55.1655846  67.8742065
  48.8233337  56.5392380   8.6172867  49.3688622  57.2080307   8.2033424
  49.4351158  56.0210762   9.1402206  11.5343275  56.2486382   3.3540287
  11.3418970  57.1613998   3.5686679  12.4663429  56.1483994   3.5477555
  69.6744766  23.8691063  74.3819885  69.5796280  23.2251244  73.6801910
  70.5979691  24.1193428  74.3542328  81.5502319  51.1286888  71.4604568
  81.5775757  50.9225388  72.3947983  82.2989655  51.7085304  71.3211060
  29.6209545   2.8196385  38.9066467  29.9575138   1.9251825  38.9605751
  28.9716892   2.8739300  39.6078873  40.7398605  67.9289246  41.1900444
  41.0527229  67.0663681  41.4627037  39.8218689  67.9472656  41.4605751
  40.4167557  39.1692352  15.6528473  41.3638306  39.0596046  15.7380829
  40.3039856  39.6476440  14.8314829  27.6215096  68.4311295  35.0592422
  27.4699974  68.8107376  34.1936951  28.0786438  67.6087265  34.8834038
  41.3442955  54.6798248  30.6685619  41.7463341  54.2074394  31.3975716
  42.0840378  54.9776840  30.1391335  38.8888702  71.0034256  68.4493561
  38.0213165  71.2013245  68.8020859  39.3742218  71.8242340  68.5326157
  72.7216873  21.3815250  32.2248077  71.9173965  21.8069878  31.9275970
  72.4579239  20.4831905  32.4239540  17.0418415  20.7350445  20.7885361
  16.9262276  19.9778900  20.2144432  17.9135456  20.6182804  21.1663284
   5.4345813  19.5327053   6.5373578   5.7174277  19.8850555   5.6935105
   4.8441772  20.1988773   6.8893094  14.9590225  16.9854107  30.6873398
  14.7146587  16.7616997  29.7893028  15.0531931  17.9379368  30.6797218
  18.4473400   4.4984875  37.6290359  18.0660400   3.6276875  37.5170135
  17.9975433   4.8605042  38.3924866   0.8699617  56.2958374  45.3682671
   1.7095006  56.7154388  45.1802750   0.9054585  55.4655991  44.8932076
  51.0820427  17.7293949  21.5220566  50.3224144  17.4867821  20.9925900
  51.8072472  17.7649384  20.8983173  52.1921120  38.4079552  15.9521294
  52.5477486  38.6090279  15.0864925  52.7272301  37.6797256  16.2676678
  31.7738781  16.5408115   5.0038280  31.1470375  17.2641563   5.0125351
  32.3990860  16.7573357   5.6955404  81.3583679  28.1134434  18.0495872
  80.5711441  28.6574020  18.0245399  81.0288010  27.2147827  18.0442638
  61.8633804  61.2633018  51.1352615  62.6120071  61.5934830  50.6385002
  61.5978508  60.4703140  50.6695442  11.6298246  61.6598167  81.6407928
  12.4628134  61.6291580  81.1702347  11.3631935  60.7435608  81.7157059
  72.9284973  58.1316528   9.0348196  72.9918823  57.4363823   8.3799810
  72.0060959  58.3872032   9.0242996  16.1814289  40.6051407  83.3093109
  16.9757309  40.8713837  82.8462448  16.1438656  41.1824455  84.0718994
  21.1784172  51.5865631  21.6974983  21.4860611  51.2144661  20.8709831
  21.3388329  50.8991928  22.3440437  66.7465744  58.6726036   2.4021838
  66.6321259  59.5950813   2.6305850  67.0454407  58.2604599   3.2127697
  29.1683006  43.9598503  74.2634888  28.9323521  43.1818047  74.7686691
  28.3488083  44.2370262  73.8538055  22.3077774  27.9325542  24.7650795
  21.7423725  27.9464149  23.9928379  23.0207443  28.5341969  24.5507469
  49.5079918  52.3127975  49.2218781  48.8601379  52.8536987  48.7702827
  49.8215828  51.7052422  48.5519753  56.3393326  48.7500420  31.9309845
  55.9417191  49.5312843  32.3154297  57.2445145  49.0050774  31.7525635
  74.2539291  18.4800625  47.4473991  74.6395950  17.6514282  47.7317581
  73.5700836  18.2258205  46.8277664  24.2950783  67.5168152  21.7240868
  24.8635921  67.4599609  20.9561062  23.8669109  68.3690262  21.6425648
  61.6774330  27.4767914  26.0679092  62.2595406  26.8633652  25.6194763
  62.2598610  28.1589737  26.4020252  47.7370872  60.2672234  54.1567955
  48.1288681  59.6053009  54.7265282  48.3489189  60.3457069  53.4248543
  86.1292343  60.0421829  70.8647232  85.7606430  60.9254303  70.8803253
  85.9615250  59.7283287  69.9761276  75.9498978  18.3071480  27.0077705
  76.3092194  17.7409077  26.3247719  75.1713867  18.6973286  26.6103859
  81.5799408  18.2489910  65.2694778  82.2227783  18.8500900  64.8930740
  81.5448532  18.4854927  66.1963348  44.6991272  66.9072571  72.7275009
  45.3112717  67.5668793  73.0537109  43.9017677  67.0470581  73.2382889
  73.2849960  19.4281521   3.0460789  73.2895737  19.0511169   2.1662745
  73.9987335  20.0659027   3.0370741  58.8364182  71.1936722  71.3614960
  58.7161636  72.1391068  71.4505081  58.5060730  70.8317490  72.1837616
  20.3439789  59.3714600  49.0045280  19.4313927  59.6229553  49.1465416
  20.7420692  60.1376762  48.5914078  70.9144897  43.9993973  38.9409485
  70.2335739  44.6719704  38.9256859  71.0981216  43.8655357  39.8707848
  14.0001516  20.7969017  16.5884991  14.7877932  20.8996868  17.1226234
  13.3051062  20.6113148  17.2199268  18.4943123  25.9978027  24.3650112
  17.6177235  26.0712700  23.9876156  19.0302830  25.6390228  23.6577339
  64.3843689  52.0699158  18.6163807  64.9686203  51.3118515  18.6312008
  64.3536835  52.3664780  19.5259628  77.9122696  19.3735714  34.9229813
  78.0716629  20.3169746  34.8944435  76.9677200  19.2941818  35.0562744
  45.7519951  65.6072845   3.7519531  44.9168549  65.2164459   3.4950178
  46.0160294  66.1282425   2.9935830  25.2664490  48.0223770  13.5617952
  25.4932880  47.3371506  14.1904764  26.0983677  48.4541283  13.3675442
  35.3293076  52.4278030  49.6034660  35.7133751  52.7019196  50.4362831
  35.2932777  53.2290726  49.0810661  56.3060379  70.0003357   1.2220435
  55.8378754  69.3818436   1.7828674  57.0617943  70.2714691   1.7431498
   4.1887040  48.9049149  82.9774933   4.2200928  48.1153221  82.4373245
   4.6020570  49.5799332  82.4392319   0.5221074  27.3852177  19.1012363
   0.0254840  26.6722202  18.6997032   0.1009631  27.5222092  19.9498253
  66.2445145  60.1535072  89.1422043  66.5454636  59.7435913  88.3312607
  66.3150177  59.4622078  89.8005142  68.7495728  34.1133347  60.0061226
  69.4990234  34.6615257  59.7736626  68.7383804  33.4273720  59.3386192
  38.3580322  16.3139915  16.3430901  37.7934837  16.1772099  15.5822964
  38.2078476  17.2260017  16.5919094  85.6584091  20.2751369  42.0192413
  85.0516052  20.6631966  42.6496658  85.5392151  20.7921963  41.2225761
  55.0079193  19.2027454  65.0784683  54.5002708  18.6814384  65.7003708
  54.4678993  19.9765301  64.9176331  63.2659111  40.5004692  27.8043652
  62.8007164  40.1642990  28.5704021  62.6976967  40.2841034  27.0650730
  24.5587749   1.1974645  63.1844864  24.2312107   1.2433311  62.2862511
  24.1737804   1.9585323  63.6189804  70.6553955  18.3783092  58.7930260
  71.4956589  18.4967289  58.3501167  70.8584137  18.4797916  59.7229309
  67.8555832  21.1549988  14.7064657  67.2737427  21.2881413  15.4547758
  68.6865616  21.5457592  14.9766836  10.0416603   3.0683596  50.7677383
  10.2948875   3.4735754  49.9383354  10.0092983   3.7954166  51.3894882
  62.4802628  54.4871140  60.1413536  62.2502594  53.5602608  60.0759964
  61.6900291  54.9065704  60.4816780  35.8941917  24.3186932  77.6697922
  36.2321281  24.5383034  76.8015747  36.0511284  23.3784943  77.7571182
  50.4403801  10.8365889  22.9147034  51.3316002  10.6209860  22.6399822
  49.9864655   9.9941759  22.9378185   3.2819061  69.2005234  48.6439552
   3.4380250  68.6900482  49.4384842   3.1336057  68.5443878  47.9629822
  24.8003654   6.7739720  52.7039642  24.5091286   6.9362116  53.6012306
  25.0983677   5.8643599  52.7096519  12.2193270   6.6172581  13.0996304
  12.7944231   6.5390010  12.3384657  11.3345900   6.5790405  12.7362947
  84.1703033  53.9131699  11.9900312  83.4304504  54.5120392  12.0910482
  84.5883484  54.1846504  11.1728601  68.5226135  68.0840530   5.2363863
  67.8734818  67.6845703   4.6573629  68.9076233  68.7883072   4.7148180
  60.0028877  37.1746330   4.1632061  60.3274155  36.7214050   3.3850687
  60.3881416  36.6960869   4.8972378   5.4909320  22.0098915  59.3450737
   5.2634282  22.8703308  58.9927711   5.1111073  22.0027523  60.2236595
  82.5313568  40.0947075  18.4247513  82.1567612  39.4188614  18.9896793
  83.2731934  40.4386787  18.9223366   6.8881254  68.6384430  68.1402740
   5.9565830  68.4349442  68.0563126   7.3297291  67.9469299  67.6472855
  33.3442917  70.4162445  33.8728256  33.6175117  69.7610092  34.5148964
  33.5830154  70.0368881  33.0270500  74.9359055  52.8444252  66.7450714
  75.8133621  53.1655006  66.9529724  74.3764801  53.6185913  66.8078232
  52.8738632  53.8602829  20.5832443  53.0939102  52.9511528  20.7864571
  52.5549927  53.8336296  19.6811123  81.4391479  31.1992912  72.6842957
  80.5359497  30.8856316  72.6386337  81.7660522  31.1193161  71.7882156
   8.1125422  70.8054123   4.4603395   7.9802575  71.1108017   3.5628593
   8.7409859  71.4235229   4.8334842   0.1693106  24.3768768  48.4479599
   0.7265471  24.6945076  49.1584740   0.0991836  25.1196175  47.8482513
  58.6692505  53.5114059  53.8386917  59.3921204  53.9519119  53.3918762
  59.0312881  52.6659698  54.1040115  24.0784092  21.5233917  19.5149994
  24.6521816  21.8491383  20.2084713  23.7672386  20.6781197  19.8389130
  48.1348686  35.9695854   1.3159881  49.0319672  35.8778267   0.9950172
  47.6591187  35.2465057   0.9072707  24.4000702  23.1933918  64.8149490
  24.6778355  22.3181953  65.0853348  24.9753227  23.4113522  64.0815887
   1.0788444  40.7154808  24.1155205   1.1513560  39.9161758  23.5939026
   1.9781338  41.0345230  24.1911640  77.8098984  67.0105972  10.1386719
  78.0506973  66.0867081  10.0702486  76.9002075  66.9995956  10.4363031
   0.0245926  17.3181419  43.7538643   0.5554308  17.6532936  43.0312881
  -0.4103648  18.0925140  44.1107826  37.5860481  52.5311546  24.9113903
  38.0648117  53.0029449  24.2298965  38.1350746  52.6142998  25.6910610
  47.1990852  44.0531883  79.6134109  47.9882317  44.3320465  80.0778656
  47.2613106  44.4790077  78.7584076  38.3174400  65.0159454   2.9982092
  37.5846939  64.9854965   2.3830774  37.9194679  64.8516312   3.8531079
  43.1783180  39.0155716  15.4765797  43.3838654  38.7532921  16.3739052
  43.9448051  39.5126190  15.1907930  59.7895508  39.2939301  27.2792645
  59.7481270  39.8712997  28.0416050  59.1449394  38.6101570  27.4613724
  86.1189117  22.3486691  88.1856461  86.7759399  22.4125748  87.4925003
  86.2475891  23.1382847  88.7111740   3.3881969  34.8097916  78.8117828
   2.6279180  34.2436523  78.6787643   4.1301584  34.2916107  78.4999924
  86.4298630   5.4634862  79.9197235  85.6982880   4.9718347  79.5464859
  86.0277405   6.2527199  80.2825394  86.6390457  33.5342712  36.6764069
  85.7360077  33.5570488  36.3598213  87.1516953  33.2542267  35.9181213
  43.1978989  71.4893875  83.1732941  43.9425049  72.0647888  83.3485413
  43.5672836  70.7680969  82.6638641  80.0298538  21.9597416  43.7843285
  80.5541763  22.4763184  43.1723938  80.6275558  21.2812157  44.0983124
  70.0121307  17.1891212  53.2674980  70.1363525  18.1253262  53.4234467
  70.3622437  16.7670918  54.0520668  35.8042755  63.8414154  40.7280540
  34.9908867  63.5791321  40.2969589  36.2385788  64.4115295  40.0935593
  16.6756172   3.8564322  62.6801376  17.3954163   3.3315737  62.3299255
  16.4594898   3.4401004  63.5145149  22.0006104  66.5735474  76.4032669
  21.2945023  66.5814438  75.7570572  21.5715313  66.7955322  77.2296066
  29.8237991  69.9910889  65.4424286  30.6531487  69.8050690  65.0021896
  29.7367058  69.2947159  66.0933609  16.4977913  66.9883270  72.7665558
  17.4187527  66.7307587  72.8080063  16.4704895  67.8483047  73.1859970
  85.4695206  28.7358551  85.4547119  85.4722672  29.5894661  85.8878098
  85.9480667  28.8799438  84.6383362  16.0673008  60.3928604  21.3919907
  16.1761627  61.2385864  21.8268814  16.9149513  60.2242470  20.9805412
   5.5470605   3.0791709  85.3636932   5.2414832   2.6598415  86.1680679
   6.1557112   3.7549493  85.6621933  53.0643120  20.7417488  87.7119370
  53.4426231  20.6564941  86.8368073  52.1352005  20.5456886  87.5913620
  57.8518562  55.7096176  62.9948349  57.8891449  54.8163033  63.3366394
  58.6789284  55.8214455  62.5261383  45.6097412  66.1298676  30.3854160
  44.9741669  66.4671707  29.7541409  45.1013451  65.9860306  31.1835880
   6.4766712  67.6513443  88.6181335   5.9637194  68.4237442  88.3804169
   7.3782721  67.9688263  88.6686478  33.2796211  68.8998108  87.5939560
  34.0553055  69.3949432  87.8573837  33.6266747  68.0791931  87.2441330
   3.5582891   5.7791791   9.7751379   3.3809724   5.9995070  10.6896029
   2.9527824   5.0641689   9.5792961  82.8928299  70.4119263  30.0126877
  83.7960434  70.1678925  30.2148800  82.5807495  70.8516083  30.8035812
  59.6955719  24.1644421  86.2859573  58.9309120  23.9934235  85.7361603
  59.5643845  23.6126671  87.0570374   1.9040644  20.8312454  72.2916489
   1.5236845  21.3078766  71.5538330   2.1228666  21.5112076  72.9288330
  12.6676292  47.8172989  16.9642982  13.2620277  48.1950455  17.6125488
  12.0366220  48.5139313  16.7832851  81.4467010  14.6809568  80.6459045
  81.1041946  15.3717957  80.0787506  82.0893021  15.1231365  81.2006760
  61.5243263  63.8083496  24.5748787  61.2506828  63.3999748  25.3962078
  61.7372475  64.7101288  24.8150635   4.7707987  24.0075035  10.9728899
   4.1475558  24.6483440  10.6306581   4.9435706  24.2963219  11.8689737
  44.5589294   0.5037710  13.9362392  44.2690163   1.4136348  13.8704453
  43.8704033   0.0687778  14.4391747  14.9239941  44.6336174  76.9260941
  15.6239128  44.0090408  77.1164932  14.2527733  44.1137276  76.4840393
  36.7600784  13.8369999  20.8904495  35.9776993  13.6736221  20.3637390
  37.3122025  14.3872433  20.3349133  11.1494999  48.3442268  86.7988052
  10.5951529  48.8325157  87.4074936  12.0320768  48.4262543  87.1601334
  71.4410400  15.7417994  76.0269852  70.5592346  16.0775700  75.8660278
  71.9589157  16.5192184  76.2359314  40.4751434   2.1723897  39.5865517
  41.1134491   1.4606471  39.5394516  39.8586960   1.8967648  40.2649727
  10.4667587  33.2251968  39.6414948  11.0297918  33.1361885  38.8725319
   9.5882101  33.0230179  39.3197670  83.2225266   8.6283770  62.4123917
  82.7339325   9.2753906  61.9035912  82.9253616   8.7578831  63.3130341
  18.0381680  38.3932724  12.6224022  18.6022778  38.0797043  11.9155178
  17.3772087  38.9276810  12.1822081  61.6580162  33.7640572  83.8393555
  61.9560204  33.0702782  83.2510605  60.7121964  33.8074837  83.6987381
  74.3198471  52.2120438  31.1196632  75.1675110  51.7748718  31.0385628
  74.2102051  52.3493156  32.0606041  35.6066666   3.7228231  67.4932175
  35.1465759   2.8845677  67.5365143  36.4082260   3.5312245  67.0063705
  12.4996901  29.2066326  39.1015129  12.6702127  28.2983150  38.8522835
  13.2410908  29.6960239  38.7450638  67.7392120  10.5228720  88.6962738
  68.5749512  10.8728189  89.0049973  67.3102798  10.1948662  89.4866257
  46.1956558  23.6381760  10.5300493  47.1193886  23.8030357  10.7191849
  46.1256599  23.7298775   9.5798273  26.3116779  31.8619442  78.5017319
  25.5628510  31.9438782  77.9111557  26.0730076  32.3873100  79.2654419
  18.5154419  69.8555374  53.6504288  18.4790077  69.7827988  54.6041641
  18.0304832  70.6567383  53.4526253  86.3284988  14.4133587  12.8294363
  86.9122086  14.3025885  12.0789385  86.8085785  14.9907112  13.4230862
  13.6603699  34.3660393  79.8970490  13.5862503  34.5400009  80.8353806
  14.2529755  33.6166267  79.8384705  64.3551941  58.1245117  46.3191414
  63.8700905  58.9121170  46.0729980  64.8231430  57.8728180  45.5229568
  23.1474056  42.3903046  61.1794014  23.3382015  41.8303795  60.4268646
  22.1934967  42.3712425  61.2563858  39.1645126   0.8189512  17.4999409
  38.4961319   0.1421882  17.3927612  39.9131050   0.4980253  16.9971008
  12.5380783  35.8093147  14.5452175  12.3287811  36.3084602  15.3346987
  12.3370523  34.9021339  14.7750912  75.4075394  48.6300240  69.8018341
  75.9991302  48.8019714  70.5344315  75.2409973  47.6883850  69.8443985
  11.5681362  44.5862732  59.5471687  11.1205187  45.2820969  60.0285225
  12.1540270  44.1882820  60.1910362  23.7964573  23.9525852  88.4475784
  23.8706417  23.7653732  87.5117950  23.0840359  23.3887634  88.7488937
  82.2292557  41.8322678  21.6415806  83.1608200  41.8136749  21.8608437
  82.1267090  42.6133728  21.0979004  80.3900604  15.4691324  36.0849800
  79.6881104  16.0957279  35.9092751  80.1390533  14.6850986  35.5965996
  10.4074697  26.8773727  35.5530014  11.0068560  26.7245846  36.2834969
  10.9743299  27.1474133  34.8305206  83.6919632   1.3653464  72.1590424
  83.5388184   1.6006507  71.2439423  83.3539047   2.1093407  72.6574554
  16.9324207  51.1767159  74.1911392  17.0418243  52.1118011  74.0182877
  16.8961983  50.7752876  73.3229370  68.0866623  19.1001778  65.7193375
  68.3273010  19.1594486  66.6438980  67.1895676  18.7664146  65.7262497
  47.0767822  15.0411720  73.8402023  47.6289062  14.6635532  74.5248871
  47.6870193  15.5131912  73.2735977  30.7114086  55.9936638  56.4609947
  29.9830284  56.6143417  56.4822693  30.9561825  55.9432144  55.5369949
   4.2230711  33.7759361  20.1495304   4.9108768  33.9818993  20.7825661
   3.4931493  34.3441963  20.3955574   1.3960105  54.2573204   7.3864732
   0.4913288  54.5065918   7.1976709   1.6436827  53.6859131   6.6595740
  40.1961937  70.8592682  65.5380707  39.5068855  71.3864670  65.9419861
  41.0080605  71.1943359  65.9186554  46.3540230  60.1019363  89.0033188
  45.6109657  59.8874855  88.4393082  46.0003281  60.0598640  89.8917770
   2.1650703   7.5536957  16.6679306   1.5111024   7.9673257  16.1044865
   2.1935534   6.6433573  16.3734741  84.4313660  10.0993099  48.6460228
  84.0107880   9.2923498  48.9429474  85.3060074  10.0702524  49.0338135
  11.9392204   0.6397449  72.9929428  11.7061777   0.8077435  73.9060135
  11.2535200   1.0753598  72.4866943  29.0652065  46.2984276   6.3215604
  29.1519985  46.1689720   5.3771338  28.3683300  46.9484749   6.4111662
  11.0791788  18.0089130  61.1834526  11.1445007  17.4425259  60.4145775
  10.4220543  17.5867348  61.7367935  81.1821747  63.9330254  60.1378250
  81.2454529  63.0408897  60.4788857  81.9491348  64.3808746  60.4947968
  43.7314644  48.4687653  78.9859314  43.8855858  47.5464821  79.1905518
  44.1440315  48.5967751  78.1317444  55.1144218  55.2620277  85.2005386
  54.9365807  55.5375557  84.3012695  55.6332245  54.4629517  85.1080551
  64.1974564  70.2741852  74.3748550  64.9983749  70.0430069  73.9044113
  64.2726059  71.2161865  74.5272217  76.6428375  52.3831482  70.7452393
  76.9467850  52.7800751  71.5615082  77.3266525  51.7539024  70.5157318
  12.8569336   4.1110868  41.7911453  13.0176611   3.6710839  42.6258888
  11.9222279   4.3169165  41.8049698  25.2409096  64.5918579  76.4986801
  25.4380932  65.0657806  75.6907501  25.3658314  63.6702347  76.2723236
  74.0489273  50.2219658  46.2035561  74.6966782  50.2068291  45.4989815
  74.3372345  50.9306488  46.7787743  46.1573677  21.2685032  76.2900620
  46.3526039  20.3410416  76.4239578  46.8406868  21.7297554  76.7764282
  64.0124283   3.8435242  25.3720360  64.0221939   2.8996577  25.2131252
  63.6777611   4.2199941  24.5580940  78.3802948  12.9459848  46.6855812
  78.6522522  12.0373001  46.5568810  78.4969864  13.3546839  45.8279228
  53.8143234  34.1178513  85.4154663  52.8664207  34.2495155  85.4347534
  53.9504051  33.2890205  85.8745422  57.6825714  49.9261627  73.3882751
  57.9308586  49.0554619  73.0776749  58.2808723  50.1009407  74.1147156
  11.4979429  62.0107918  11.9018650  11.2381325  62.3205376  11.0342312
  12.4199810  61.7726898  11.8049974  23.1173363   7.8960571  21.6455307
  22.7201653   8.6299171  22.1145058  22.6956806   7.9045753  20.7862492
  79.8956223   8.3872461  76.7456741  80.5457153   8.2376890  76.0592117
  79.7465286   7.5220137  77.1269608  60.0555077  59.3009949  58.1194725
  60.8345375  58.9351845  57.7005157  59.4729500  58.5508537  58.2384377
  15.0106878  38.2519417  64.5922318  14.8409891  39.1296082  64.2499847
  15.9241705  38.2783890  64.8769836  74.7105179   0.8845269  71.8769531
  75.1658783   0.0433798  71.9136963  75.2668152   1.4801644  72.3789291
  64.5509720  16.6241207  35.3593826  64.0252075  16.8393021  36.1297760
  65.1768799  15.9706211  35.6714783   6.8680015   7.6544991  36.4261169
   7.4084473   8.0110273  35.7211075   7.4901323   7.4473004  37.1234360
  16.8697968   7.9388280  19.5773735  17.0057697   7.0502224  19.2485523
  17.2475414   8.5039968  18.9034863  51.8815498  29.6749172  52.6106911
  51.9358292  29.6335220  51.6559258  51.6501007  28.7848930  52.8762436
  63.4330978   0.8328914  48.6914940  62.5820923   0.9756168  48.2771873
  63.2366333   0.3083807  49.4677162  34.2175827  59.7794685  35.9478760
  34.8412094  60.4907150  35.8013992  33.8267670  59.9751854  36.7994576
   4.4550347  33.4528885  74.1186142   4.5195379  34.3378220  74.4777222
   4.4632773  33.5782928  73.1697006  59.0693283  51.7962608  12.4101229
  58.6650238  50.9565277  12.1919041  58.5218353  52.1508293  13.1106672
   2.6572468  24.2604294  53.2140884   2.0101109  24.3035126  53.9180717
   3.3079429  23.6310635  53.5250969  64.7405853  48.2398338  16.7577915
  65.1783600  48.2160912  15.9068985  65.3427429  48.7231102  17.3235474
  34.3422890  13.9769163   4.8432522  34.9090691  13.7474222   5.5796804
  33.5021782  13.5679455   5.0510659   2.2060089  15.5111465  66.0431519
   2.5115113  16.0632591  65.3233795   2.2157400  14.6235476  65.6849518
   3.7898066  40.8264999  19.6670609   4.6112170  40.4316292  19.3744907
   3.1086221  40.2722092  19.2862911  57.7826691  40.0766983  83.2718201
  58.6520615  39.9957581  82.8796005  57.6227455  39.2246895  83.6776886
   4.8295865   9.9496679  59.9194603   4.0811825  10.3765774  59.5024834
   4.8319979   9.0634832  59.5576553   2.2995253  23.5697861  32.7130814
   2.6651692  22.8964272  33.2867775   2.0101569  23.0912552  31.9362259
  53.4271126  48.3269653  40.3176308  52.6794128  47.7323189  40.2578545
  54.1859550  47.7782936  40.1192665  58.2087212   0.5283479  67.7602158
  57.9117584   1.4382890  67.7529831  57.8297997   0.1590753  68.5578918
  63.0357857  47.0064468  70.0451050  62.6443787  47.6915283  69.5031738
  62.5706749  46.2081375  69.7948914  10.1860886  36.2880669  41.3683701
  10.1341190  36.2503777  40.4133263   9.8230391  37.1444244  41.5943832
  77.1920700  68.7790680  28.2120399  77.3137360  69.3858337  28.9422855
  77.9239960  68.9630585  27.6232624  38.9407845   2.0691359   0.1707069
  38.0766983   2.4573765   0.3080027  38.8116875   1.1344190   0.3315481
   4.8395915  61.3779602  19.8339901   3.9948447  61.2288208  19.4092636
   5.0939250  60.5184174  20.1697464  27.4475098  65.5503311  35.5191116
  26.5300121  65.2901535  35.6012077  27.6746578  65.3443527  34.6123543
  19.5314503  39.0032806  73.5121384  19.7937393  38.0876503  73.6072922
  20.3320179  39.4553032  73.2456741  73.4179535   2.9160662  77.2226028
  72.5518799   2.7241988  77.5822220  73.9811401   3.0089819  77.9909821
  36.3637123  12.8344212   6.8598156  35.9873734  12.0650902   7.2872844
  37.0354881  12.4800968   6.2772317   5.9276161   5.2490954  23.6770344
   5.8454347   5.1321721  22.7305641   5.0257211   5.3280134  23.9878216
  26.7248096  62.1821098  76.0836182  27.5427761  61.7248917  76.2788467
  26.3043385  61.6446800  75.4123459  35.9656410  46.6760292  19.9508801
  35.2436829  46.0669746  19.7957554  35.9588013  47.2547417  19.1884689
   0.4919204  67.8605804  74.0875244   1.3576602  67.4813156  73.9362488
  -0.0896568  67.1047668  74.1696243  65.1972122  15.6555662  73.6889343
  66.0691299  15.9797735  73.9145279  64.6597137  16.4442940  73.6166077
  56.0620346  36.5073624  14.7770910  56.0896988  35.5505905  14.7700710
  55.7247009  36.7435684  13.9130039  28.7870789  67.3224182  79.6359406
  27.8489609  67.2031708  79.4878006  28.9877682  68.1670456  79.2327576
  25.0395470   8.4645729  65.1144943  25.5916119   8.8037310  65.8190689
  24.2786407   9.0452433  65.1057968  32.0376816  26.4857388  46.0220184
  31.9276371  26.1420650  46.9085884  32.6567688  25.8848915  45.6073532
  51.2544479   4.0650783  12.8302174  51.6358910   4.3618870  13.6564360
  50.4189949   4.5286016  12.7719278  45.3370705   2.7691338  67.7060699
  44.9703560   2.8683300  68.5846558  45.8364983   1.9535154  67.7456741
  70.4183426  35.4318428  49.4371033  70.5730057  35.0240631  50.2891731
  70.1350861  34.7110863  48.8745155  30.2110615  48.7806587  87.9220428
  30.0664692  48.4541893  88.8101578  30.4185257  47.9988174  87.4102707
  22.9491787  24.1843338  23.5321465  23.3193951  24.5621300  22.7343750
  22.0041504  24.3033428  23.4373283  41.4447594  43.8290634   5.5747414
  42.2623291  43.6723289   5.1022506  40.8747597  44.2528725   4.9330869
  41.5787354  53.4846497  35.7147598  41.4493980  52.8873405  36.4514580
  40.7245331  53.8977356  35.5885162  49.9430962   1.7167308  37.7262573
  50.8132477   1.5310614  38.0792389  49.4615974   2.0943146  38.4623451
  37.3674202  48.8771019  62.2165604  36.7526817  49.2233849  62.8634109
  38.1956291  49.3138618  62.4154205  79.8529358   7.3979778  49.8646812
  80.1866913   8.1989231  49.4605408  78.9030151   7.5149016  49.8792114
  57.0082321  68.4283218  78.6182098  57.3344917  67.7777939  77.9964371
  57.3850174  68.1667175  79.4583435  56.4441185  62.6500015  12.5409241
  56.6176643  63.1751823  11.7597094  57.0991440  62.9408340  13.1754227
  12.2282047  51.6580963  48.4590607  12.0275936  50.7618675  48.1893196
  12.9223652  51.9380951  47.8624268  31.0444260  27.8278694  81.8140640
  30.2529449  27.7746105  82.3497391  31.1783733  28.7657242  81.6772385
  75.9615021  31.9284420  16.1779938  75.7552338  31.0698986  15.8084154
  75.1286774  32.4001732  16.1672878  80.7306290  31.7529659  38.1553612
  81.1046524  32.0316467  37.3194962  81.3952866  31.9842720  38.8041763
  84.4170914  16.1624680  58.1057358  84.8788223  15.3990383  58.4524498
  85.1073837  16.8039417  57.9376755  70.8631821  52.5060616   4.0501394
  71.1691971  51.6006317   4.1028895  71.3577957  52.8840714   3.3230245
  80.6272583  63.1149712  13.3816242  81.4208984  62.8018265  13.8155727
  80.6579361  62.7183609  12.5109978  66.5607224  54.4428177  21.0488777
  66.7450027  53.5156898  20.8981953  66.1615143  54.7434387  20.2324848
   9.3570213  31.1564426  87.2128525   8.9421902  31.2454739  88.0708847
   9.2241364  32.0064316  86.7932129   7.2676630  41.2963791  79.7168961
   7.9948378  40.8337250  80.1333084   6.4836240  40.9162598  80.1131592
  79.4485703  68.4559402  68.8152847  80.2147598  68.9419479  68.5103531
  79.4655533  67.6417847  68.3122025  12.9307671  64.3336792   3.5721624
  13.4323540  65.1423264   3.4685748  13.5702600  63.6934891   3.8843200
  54.8704262  58.8639793  71.0278778  54.0488281  59.1705627  71.4115601
  54.6610413  58.7074471  70.1070633  83.7345047   1.5015041  83.2444916
  83.9365387   1.2079574  84.1328888  83.2203979   0.7875364  82.8674316
  42.1778679  20.5531101  36.4988976  42.7573128  20.3963890  37.2444916
  41.2957840  20.4417725  36.8535233  33.8910179  14.6749649  80.6278915
  34.2551994  14.2621918  81.4109802  33.3738289  15.4078627  80.9619751
  57.6767387  62.5195923   3.1682031  57.1751785  61.7633438   2.8636417
  57.0527229  63.2451172   3.1470745  17.5353241  25.5260830  76.8137589
  17.2735329  25.3348560  75.9131317  18.4708996  25.7197495  76.7552414
  83.9622650  28.7923985  19.1884403  83.8827209  28.3440666  20.0304050
  83.1272659  28.6286163  18.7500553  38.1236534  54.3869057  69.3313828
  37.9873085  55.0788689  68.6842194  38.9554863  54.6101303  69.7490616
  80.8838882  28.9819374  65.8254166  80.9012680  29.3795319  66.6959610
  79.9699936  29.0502758  65.5490875  61.8193970  54.5331078   0.8195443
  61.9337273  55.2424736   1.4519680  62.0447426  53.7400398   1.3058519
   2.3857839  66.5958252  17.7987518   1.9764283  67.2300262  17.2101517
   1.6535873  66.0935211  18.1562576  50.3409805  67.8511810   7.2334113
  49.8035889  67.5058289   6.5205531  51.2214546  67.9103546   6.8626008
  46.0242805  49.6111603   4.9475598  46.9020729  49.3078613   4.7157803
  46.0661888  50.5625076   4.8505030  57.0396652  37.2987595   5.1285329
  57.9275017  37.4272537   4.7946620  56.4823837  37.7838554   4.5199680
  34.9159737  20.8491974   4.0488739  35.7816048  20.9345036   4.4484220
  34.3055038  21.0856590   4.7471876  80.7119217  27.3297424  50.2024841
  81.3517838  27.4495316  50.9042397  80.6110916  26.3806534  50.1297340
  63.5499115  28.4470978  62.4757309  63.1934929  29.0762253  61.8485184
  63.7713509  28.9737854  63.2437134  39.2013245  70.8299255   0.6245444
  39.4555054  70.5714340  -0.2613489  38.7537422  70.0616760   0.9790779
  71.3664093  16.1280746  67.4732590  72.2262268  15.7136440  67.4011536
  71.4992752  17.0150909  67.1389236   5.1576686  39.5392189  16.2248592
   5.5882463  40.2368698  16.7189388   4.2258253  39.6535492  16.4114819
  59.4936333  14.6225710  18.9252129  58.6338234  14.2020206  18.9349365
  60.0914192  13.9532537  19.2582321  46.9233322  50.8468094  10.3181896
  46.0943108  51.2480698  10.0575209  47.1784172  50.3134460   9.5654030
  65.4002762  41.0724144  81.2770004  64.9349060  41.0350380  82.1126251
  64.7197418  40.9371796  80.6175919  69.8242493  14.7595959  25.8260498
  69.5203705  14.5604849  26.7116222  70.6723251  15.1846838  25.9537544
   9.2297335  35.5516663  48.0017471   8.8059464  36.1483727  48.6186523
   8.5090837  35.0510330  47.6193008  68.2516708  23.0157356   8.6730738
  68.0861664  22.3822632   9.3713236  67.3809204  23.2563210   8.3566103
  54.7132225  18.0319500  10.9432774  55.0468254  17.4053383  10.3011713
  54.9064980  17.6319103  11.7911243   2.9473619  67.3835220  69.7765274
   2.2953463  68.0099030  69.4622803   3.6101847  67.3611908  69.0863113
  64.0903168  66.3906097  63.3211899  63.3579597  66.1608963  63.8931313
  63.6890564  66.5337524  62.4640274  15.5533752  70.9534378  16.7485733
  16.0347309  71.7265625  16.4539337  14.8471031  70.8533859  16.1102943
  30.4968834  16.5223351  73.9560776  29.7694511  17.1115417  74.1558456
  31.0183678  16.5049706  74.7585678  44.3872986  62.9002304  11.7701330
  44.4696846  62.3860283  12.5732775  45.2405930  63.3214836  11.6668491
  76.2213287   9.5034437  60.3031044  76.5948105  10.2707958  60.7365952
  75.5174561   9.8551693  59.7580528  47.3293877  58.0550461  72.1832047
  47.1619720  57.4463882  72.9027481  47.9559479  58.6834908  72.5419617
  58.5793381  48.6323776  35.1418991  58.4413033  49.4004440  34.5875931
  59.1178131  48.9528618  35.8654785  79.7684555  57.9919586   6.3929920
  80.0907745  58.5203629   7.1231465  80.1461334  58.4025192   5.6151567
  48.2683601  21.8285446  22.2849159  48.9305305  21.1409664  22.2142029
  48.7717934  22.6366329  22.3838139  75.1074142  12.1395493  66.4771729
  75.7515106  11.9174242  65.8048401  75.5537186  11.9606228  67.3048401
  35.0820084  32.8368874  75.4493408  34.5563316  32.9271851  74.6545181
  35.9474449  32.5745583  75.1355972  70.7358246  18.9288311  11.5449791
  70.3516922  18.1895714  12.0163269  71.5032043  18.5608616  11.1068439
  40.3273201  16.2406693   9.5530443  39.6952858  15.7798090  10.1047430
  39.9227333  16.2546501   8.6856661  24.0117397   2.1991858  46.3143082
  24.8558407   2.2893903  46.7565613  23.5692005   3.0334680  46.4703941
  12.8455458  57.2796936  33.1536674  13.7362137  56.9345970  33.2157173
  12.5327005  57.2992172  34.0580902  83.7532272   6.4466910  53.5301933
  83.7233200   7.1562772  52.8884544  83.4847183   6.8561292  54.3526840
  45.3579140  12.0126495   4.4718256  45.7208862  12.6859341   5.0473008
  45.4077644  12.3943396   3.5954359  36.0698471  40.3911896  74.6866379
  35.4539948  41.1226692  74.7301941  35.8045235  39.8118515  75.4009171
  54.6892624  66.0848312  30.3219070  54.1904526  65.5245667  30.9164867
  55.1097717  65.4756241  29.7150536  84.3217621  13.5351067  80.0920944
  83.6941452  13.4691706  79.3723831  83.8071365  13.8635883  80.8293152
  67.9561310   3.3347189  73.4847107  67.3693085   3.9659677  73.0683060
  68.7410889   3.3399148  72.9369431  14.8843689  11.4605341  47.0739403
  15.5491171  12.1487150  47.0465775  15.3362474  10.7059145  47.4515457
  57.4476357  44.9348907  25.0375290  56.7579803  44.7595291  25.6777267
  57.7595062  45.8131065  25.2559414  38.9785156   1.9816355  86.4063416
  39.0647202   2.2336781  87.3257294  38.4147224   1.2082461  86.4218597
  32.8263474  10.9615393  26.2246189  32.2474365  11.6870861  26.4584503
  32.8673668  10.9863882  25.2686195   6.4529324  12.8668013  21.1312370
   7.1835914  12.2503223  21.1794281   6.6478744  13.5221043  21.8011684
  60.3830185  32.6108208  34.2487831  60.8957443  32.5343895  35.0534592
  60.0060043  31.7402649  34.1214027  19.0262299  36.4966888  69.1306458
  18.3857803  36.0396042  69.6757431  19.0858631  35.9667549  68.3357544
  62.8507729  21.7953892  47.1244621  63.4743843  21.1552601  47.4673576
  63.3687553  22.5902977  46.9977951  37.7045479  52.1745644  46.9193382
  37.5455933  51.3431854  47.3662949  36.8408852  52.5827560  46.8585281
  19.4550419  61.2410240  53.5655746  19.4578075  60.2994728  53.3932190
  20.3492432  61.5225372  53.3722267  12.4651814  36.3026733  62.4707069
  13.2924013  36.0466118  62.8785934  12.0977297  35.4832382  62.1394386
  74.8231049  24.2349072  53.3868675  74.7257156  25.1749992  53.5384445
  75.3864975  24.1737823  52.6154480  35.9624634  34.9616318  76.8027649
  35.9607468  34.7402382  77.7340088  35.6896782  34.1555939  76.3644485
  72.3073883  10.3542480  76.7403793  71.3639603  10.4494038  76.8712082
  72.4172668  10.3415461  75.7895889  68.4170685  26.4062233  53.2433624
  67.9200516  26.5726452  52.4424210  68.1325378  27.0911350  53.8484802
  82.5317459  35.4068947  85.4924469  82.3091736  35.7047539  84.6104126
  81.6878052  35.3177185  85.9352112  28.2605553  31.9020863   6.3228998
  27.4838638  31.6087780   5.8465023  28.0243759  31.8099461   7.2459178
  17.9401646  48.0751381  33.4737701  17.8839455  47.1427841  33.6830215
  17.4701004  48.5091629  34.1857376  25.9465122  15.7359982  25.8650322
  26.6301289  15.0805950  26.0041218  26.3113937  16.5433025  26.2274590
  42.7605019  71.2023697  24.3212872  42.3025017  71.3838120  25.1419868
  42.1661301  70.6293564  23.8369255  27.5588303  43.7846832  67.5366898
  27.4896793  43.5991325  66.6001968  28.4992123  43.8653717  67.6960678
  17.7882175  13.3902979   4.8236432  18.0840969  12.5806408   5.2397475
  17.1165276  13.1087761   4.2025075  48.1994591   5.3615122  82.9935532
  49.0807571   4.9904351  83.0365372  47.6173058   4.6084557  83.0947189
  81.6148605  30.4381351  41.4878387  81.9237671  30.2066269  40.6119347
  80.6764832  30.2502327  41.4682999  82.2253036   2.5749078  59.9686508
  82.8811722   1.9467605  59.6661568  81.7709274   2.8490887  59.1720314
  56.0587845  17.5637131   6.9059453  55.7477493  17.3552322   7.7868667
  55.4255333  18.1993732   6.5725403  48.9229622  10.3297567  29.9429283
  49.4894142   9.7139301  29.4780407  49.2698746  11.1925116  29.7159119
  26.1447048  56.5179443  44.6306992  25.3790417  56.4556923  45.2017670
  26.3244400  57.4563141  44.5725098  64.2088089  49.1324272  77.6610413
  63.8485146  48.9632683  76.7905197  63.5485115  48.7909241  78.2640457
  15.6039648  34.5527954  48.9358292  15.2352152  34.9197311  48.1323280
  16.1358337  33.8141022  48.6397247  86.0617142  30.0010319   0.8134511
  85.4312057  29.2814560   0.8434787  86.8280411  29.6676369   1.2801585
  37.0458336  62.4006958  44.6153755  37.0261612  63.1402626  44.0080147
  37.8042831  62.5698624  45.1742706  33.4809799  45.9451675  76.6362457
  32.7821159  46.5947723  76.7126236  33.5518417  45.7790070  75.6962433
  85.2506714  16.8424911  75.6000900  85.9025726  17.3067245  76.1252136
  84.9963531  17.4705410  74.9239960  53.6733131  52.2900124  32.3611336
  54.1706657  51.7949066  33.0120888  53.2244072  52.9673195  32.8670692
  50.7190666  35.6156654  18.0244274  51.6710129  35.5244637  17.9830360
  50.5160332  35.5859032  18.9593716  85.7208328  58.2993584  88.3266220
  85.4287338  57.4414864  88.6347809  86.6735687  58.2233582  88.2741547
  37.2962875  11.2284250  10.4486570  36.8525543  10.3853512  10.3561344
  36.6298332  11.8762522  10.2197676  56.5645485  48.6149902  62.4259720
  55.9787674  49.2520981  62.0170898  56.1737862  48.4460754  63.2832947
   2.5463526  25.3083382   0.4223361   1.9584080  25.9439964   0.0143040
   3.2958479  25.2599869  -0.1710868  13.2744827  66.6490021  64.5056915
  13.5661583  67.3493500  65.0893631  13.6188765  66.8939896  63.6468506
  79.7717896  42.2039452  22.8450012  80.7231445  42.1751633  22.7433681
  79.6075058  43.0097656  23.3347912   4.3593125  35.8070831   3.3112898
   3.5812004  36.3645172   3.3047087   4.2684431  35.2783203   4.1039958
  46.4042854  54.8228302  73.2825089  46.9476128  55.0611572  74.0336609
  46.7216225  53.9581184  73.0221176  28.2911034  57.2673950  42.2050323
  27.3800907  57.1097298  41.9571762  28.2354603  57.7198792  43.0466919
  85.9274445  52.2835884  34.6928902  86.4393082  52.3093796  35.5013237
  85.2796402  51.5947418  34.8414421  81.1942825  21.3533707  11.0337572
  81.4605255  21.3286762  10.1146612  80.4265823  20.7832241  11.0761309
  25.0940971  38.7172737  17.7588463  24.8223438  39.5181732  18.2071114
  26.0283070  38.6396751  17.9524002  40.1419106  24.7148380  81.5093994
  40.5013008  24.9182415  80.6458588  40.2629623  25.5187759  82.0146332
  53.9733238  34.8495674  68.7065735  54.6273880  34.7817802  69.4021530
  54.0846024  35.7342949  68.3585587  48.3688316  29.9313831  67.4991684
  49.1540184  30.2080040  67.9716110  48.5877838  30.0578289  66.5759659
   3.3602571  42.3012733  25.1645317   4.2488313  42.2618446  25.5182457
   3.4364889  42.8535309  24.3864346  11.3176632  38.7976151  62.2635460
  12.0908327  39.3612442  62.2911758  11.6688147  37.9076691  62.2939301
  70.7294846   6.4299479  21.5243340  70.5442276   6.6420550  22.4391689
  70.4656982   7.2117133  21.0390587  27.3155651  10.3913050  33.3855057
  27.3774872   9.4953918  33.7167740  27.0030518  10.9017954  34.1324768
  24.8149071   9.7827511  28.4384098  24.1057816  10.2796822  28.8463707
  25.0101509   9.0857821  29.0647850  26.1915531  21.5077038   8.7783585
  25.2673931  21.6228275   8.5572138  26.4793510  22.3748474   9.0637779
  74.8830414  18.5698013  35.1937523  74.2349014  18.6360760  34.4925003
  74.6069870  17.8083458  35.7038612  29.2307568  10.6609097   1.5627182
  28.9118519  10.0325546   0.9148745  28.4934349  10.7834597   2.1606884
  52.9059563  10.0134726  83.6295166  52.6897545   9.7213259  82.7440033
  52.0947723   9.8983469  84.1244507  75.9437943  26.5345821  16.9371033
  76.2594833  25.7241306  16.5374336  75.1529922  26.7526760  16.4438400
  40.1700897  69.5014114  81.5664139  39.5119438  69.0584869  81.0307922
  40.9559593  68.9627609  81.4742432  11.3285904  69.1249466  39.8423996
  11.1911011  68.6421051  39.0274200  11.9536724  69.8120041  39.6111984
  11.1585178  39.5163689  57.6227531  10.6002235  38.7423706  57.6967239
  12.0036268  39.2366028  57.9745369  82.3013611  48.5220451  17.0104713
  81.6140518  49.1171227  16.7109356  82.1532974  48.4399910  17.9525852
  37.9805565   5.2764034   4.7023835  37.8568039   5.8141809   5.4845042
  37.5061111   5.7422919   4.0138474  73.4422607  55.2378922  55.8102341
  73.2220154  54.3667450  55.4803505  74.2596130  55.4627457  55.3656998
  20.5145473  70.6708374  69.3390427  20.2558098  71.5651321  69.1164932
  19.8255749  70.1219406  68.9645233  30.9492302  63.3931389  64.2811584
  31.2389183  62.4808311  64.2844391  31.0198307  63.6701355  65.1946793
  15.4988117  19.5447483  31.2647533  15.3332281  19.5650635  30.3222027
  16.4460907  19.6570663  31.3439960  57.5868187  65.8309097  58.1911774
  58.2537537  66.4017944  57.8097000  56.7855110  66.3542175  58.1743813
  76.2040939  35.7914352   2.5440311  76.5281296  34.9512596   2.8685789
  76.4579239  36.4223938   3.2175992  27.4407463  47.5389786  53.4394150
  26.6580563  47.8045654  53.9222145  27.2621841  47.7946510  52.5344391
  40.3561592   3.8963566  27.1795940  39.4935188   4.3040123  27.1027832
  40.3819237   3.5570681  28.0742741  30.7228069  56.2858810  36.1420097
  30.0402851  56.9493828  36.0411911  31.5263729  56.7244797  35.8624687
   0.5690117  11.5586472  64.6053619  -0.3528604  11.6981535  64.3887482
   0.5529599  10.9307919  65.3276978  68.0784607  39.6130371  13.2819672
  68.5370407  39.3274918  12.4917765  68.6692810  40.2491608  13.6851006
  62.0665359  26.4034805  61.4985962  61.4575958  26.8044281  60.8783798
  62.4973984  27.1446438  61.9243507  71.7037735  45.7997169  47.5051537
  71.2882996  46.2650185  48.2311783  71.9852448  46.4918556  46.9068680
  38.7770271   6.6059422   2.0281496  39.4822502   6.4128819   2.6459005
  38.9509392   6.0347700   1.2799859   0.0052242  22.1030045  78.6811905
   0.7360294  22.2839622  79.2723007   0.2971096  22.4330711  77.8314285
  77.7082901  13.7903070  43.8149033  77.7505188  14.7187862  43.5860481
  76.9565277  13.7226744  44.4035568  13.8951159  45.8878670  72.8619156
  13.6842270  46.4389267  73.6156311  13.3137569  46.1986198  72.1678772
  53.9941139  64.1635437  62.3971100  53.8569870  63.4853821  63.0585709
  53.2735519  64.0438995  61.7784767  67.9215317  40.0056572  17.6633549
  67.7423401  39.4602280  18.4292717  67.0765839  40.0809021  17.2199306
  10.2082558  40.9372482  37.9901619   9.8628531  40.8519020  37.1015396
  10.5863037  40.0794067  38.1836014  52.4721413  40.7613831  23.0039101
  53.3352699  40.8970108  23.3948593  51.8558464  40.9659348  23.7071667
  35.5789909  36.2351341   2.2690620  36.2110138  35.5170135   2.3019025
  35.3574791  36.4013329   3.1853278  72.1422195  64.5892868  70.8307571
  71.9330826  63.9692802  70.1321182  71.3052139  64.7507858  71.2661438
   4.7307682  10.8546953  89.0123978   5.1144400  11.6894732  89.2810516
   5.4572620  10.2328243  89.0538177  45.4099007   7.6103616  59.5625267
  44.7300644   7.4825349  58.9009285  46.0754547   6.9555254  59.3516731
  81.8903503  45.9969711  23.2549152  81.3678665  46.7974396  23.3048458
  81.5205994  45.4271545  23.9293213  14.6016464  70.4053650   7.8007250
  14.2194738  70.5569992   6.9363284  15.4828959  70.0788345   7.6190443
  59.0044136  50.1707764  26.2699718  58.5802193  50.0032387  27.1115303
  59.8549995  49.7373848  26.3400154  42.9504700  53.2161560  63.5136452
  42.7001915  52.3990173  63.9447784  43.9038086  53.2470169  63.5937996
   4.5513749  32.9533577  88.1756439   3.7792299  32.3923912  88.2487259
   4.2476192  33.8166847  88.4560623  61.1920013   2.2709723   2.8419580
  61.0609932   1.4880331   2.3070977  61.4590950   2.9455988   2.2176414
  77.6354065  56.3097839  57.2311859  78.1946487  56.6258469  56.5215454
  77.0905151  55.6359177  56.8247108  56.6240387  54.0877571  28.4203148
  56.6499634  54.0436859  27.4644814  55.7002678  54.2272530  28.6286831
   4.8669600  68.7228928  41.9221649   5.7396479  68.3345184  41.9839287
   4.5294933  68.4207993  41.0789032  63.7491455  61.6196480   9.9530878
  63.0161057  61.0834045   9.6508846  63.8016968  62.3334923   9.3175602
  68.7743149  33.3513222  18.1803036  68.4908905  33.3214340  19.0940933
  68.4278488  32.5462036  17.7956238  81.6389389  60.9041252  18.7588425
  81.3096771  61.6359558  19.2806110  80.9415741  60.7272339  18.1274815
  44.3616714  19.1489525  78.1744995  43.8504448  18.6375160  77.5473557
  44.0038605  20.0343895  78.1096649   9.2753735  19.8266830  24.1793480
   9.8525944  19.3309536  23.5985718   8.8973780  19.1673126  24.7612286
  48.0769730  32.0317955  55.5314751  47.7406197  32.8936768  55.2859955
  48.0217552  31.5152588  54.7275047  73.4986572  28.5450897  32.3873940
  73.7537613  28.7714138  33.2817841  74.0186005  27.7688541  32.1791878
  53.5348625  27.0115509  30.7328854  53.5929298  26.3132915  30.0807419
  54.4451675  27.2139015  30.9488277  27.3430519  70.2013779  21.1731510
  27.6203289  71.0383530  21.5457306  26.9908257  69.7129364  21.9171925
  68.5945663  17.2140942  29.6770401  68.8432693  17.7567463  28.9287682
  68.2483826  16.4117012  29.2864628  57.1104622  61.2382126  44.4122314
  57.5315361  61.3955612  43.5671425  56.7339134  62.0845261  44.6534729
  12.4065742  14.2431412  31.6072922  12.6972628  14.4810247  32.4877129
  13.0511875  13.6023178  31.3072071  33.4736862  30.5545197  86.2292862
  32.5738449  30.3985901  86.5159912  33.8681831  31.0578156  86.9415283
   5.0966454  24.2830944  37.3825264   5.3512430  23.8689270  36.5579796
   5.3569727  25.1986122  37.2810898  30.5108700  61.9029579   6.9665470
  29.7797489  61.7979279   6.3577271  30.1653519  62.4633904   7.6613593
  39.8729362  14.1742411  35.1097679  39.2768402  14.8425360  35.4478264
  40.1850281  14.5303688  34.2779007  63.5980034   5.2707534  38.8703461
  63.7534027   5.8652964  39.6042404  63.6107674   5.8355894  38.0976715
  33.1025276   1.3091240  60.3166924  32.2302170   1.5603787  60.0130882
  33.6613007   2.0489328  60.0786057   0.9627281  26.3257179  66.4010849
   0.7037791  27.2357769  66.2562637   0.4109586  25.8216305  65.8030243
  46.9089661  66.1238861  53.1541061  47.6087570  65.7855911  53.7127533
  46.1543961  66.2041702  53.7375565  59.5507851  43.4535446  24.1306896
  58.7020264  43.8297920  24.3636761  60.1675301  43.8574562  24.7411900
  38.0973854  68.0517197  85.9326019  37.3583298  68.1955109  85.3415451
  38.7670403  67.6434937  85.3838348  30.6835003  11.2033978  15.3657064
  30.3613663  11.0222750  16.2486877  29.8950500  11.3939333  14.8574991
  72.8782806  10.6163616  88.2146454  72.9615936  10.7404995  89.1600952
  73.0207367   9.6790667  88.0826721  43.8567200   2.1919270   7.1834226
  44.1731071   1.3562208   7.5265346  43.5576401   1.9891180   6.2970524
  66.7411270  60.0429802  39.2289391  66.9772568  59.2218285  38.7974472
  65.8650055  60.2433281  38.8995285  30.9967709  65.7996368  62.6531105
  30.8881187  66.4261093  63.3686180  31.0804653  64.9511871  63.0882721
  57.0998344  12.8947754  29.2558250  57.0573654  13.4188747  30.0556679
  58.0044785  12.5839243  29.2209129  67.7865448  10.2094879  53.2647057
  68.4861069   9.7487516  53.7279205  68.1409988  11.0840626  53.1043549
  13.2883959  67.1520538  81.1248398  13.1004887  67.9390564  81.6362610
  12.7515116  67.2440338  80.3377380  68.2923584  38.0675392   8.9806671
  68.3871307  37.2434921   8.5029678  68.0399246  37.8037834   9.8655062
  72.4421616  34.0292015  84.1208878  71.6201019  34.2540474  84.5566559
  72.2422867  34.0892792  83.1867218  43.8429794  15.9264736  42.9441147
  44.7332993  15.5785532  42.8940163  43.4903603  15.8101053  42.0618706
   2.3285975   0.2665147   2.2057779   1.5326225  -0.1851001   2.4863129
   2.6583276   0.6864969   3.0002115  45.6166344   4.6039047  48.3866386
  44.6868782   4.3777075  48.3617859  46.0188408   3.9072294  48.9053917
  11.1467438  21.7641964  65.1331558  11.4594517  21.3059406  65.9131851
  10.9941835  21.0696697  64.4923782  60.0763512  37.4451332   9.3722925
  60.7045670  38.1659431   9.3274784  59.8567924  37.3761940  10.3014164
  85.6714325  44.1795845  75.1736298  85.5708084  43.4286995  75.7586746
  85.7641678  44.9298935  75.7607117  76.5018234  67.0152817  20.1843472
  76.4079819  67.4138260  19.3191338  76.4846115  67.7548065  20.7918339
  15.8667145  54.5004807  -0.0762969  16.3133736  55.3373871   0.0514564
  16.1531563  53.9611511   0.6607953   2.4680607  60.2129250  33.8472443
   2.7618716  59.3060608  33.9338875   2.7629609  60.4780350  32.9760475
   4.5467529  65.3784714  55.1736031   5.3102427  64.8761978  55.4582672
   4.6864676  66.2530594  55.5366592  23.6904202  60.2561951  42.0745201
  23.1091976  60.3001595  42.8337822  24.4146004  59.6987495  42.3592110
  53.2377701  47.3949699  13.3197060  53.6030693  46.8054008  12.6600151
  52.3533096  47.0630989  13.4740648  47.7280960  17.8362255   9.2363319
  47.0781021  17.3740883   8.7070189  47.5012741  17.6164074  10.1399155
  33.7311974  31.0290623   7.6169167  34.3226128  31.2400913   6.8944707
  33.8748398  30.0967751   7.7795200  49.5593643  19.1298904  16.8489513
  49.0557556  18.4034920  17.2163124  50.4000206  18.7407646  16.6078835
  26.9082680  42.7632751   4.5154157  26.2651806  43.4625778   4.6322269
  27.4009285  42.7514153   5.3360105  77.5903320  52.1589775  57.4256821
  77.0928802  51.5640678  57.9867973  78.0750961  52.7146378  58.0359917
  60.6428757  39.6465683   4.4134188  60.4006920  39.8980103   3.5221519
  60.2087326  38.8046684   4.5511050  17.0909748  65.2604523  75.7912292
  16.1958256  65.4206390  75.4924316  17.0125580  65.1607742  76.7399902
  19.8714180  55.7720795  56.1841469  19.2328892  55.3119736  56.7289543
  19.5003643  55.7411575  55.3023338  18.4524899  39.9620590  19.9722443
  17.8102360  39.7287598  19.3019352  19.2907486  39.6729927  19.6117001
  34.5026360   3.0657556  58.4729233  35.0916634   3.5265379  57.8754616
  33.9213486   2.5669563  57.8988724  23.5343132  52.7623978  50.9044685
  24.3495579  52.9567413  51.3668938  23.7706814  52.0762138  50.2803574
  85.7696228  53.7836876  42.0777855  84.8759003  53.5229187  41.8553162
  86.2911224  53.5232697  41.3185425  15.9312239  17.1641617  41.7935066
  15.5403671  17.3390045  40.9374161  15.6373863  16.2805119  42.0149879
  61.2330170  35.0717278  55.9927559  61.2075043  34.3870392  55.3243370
  61.9912834  34.8504944  56.5334206  52.7839699  13.3084564  16.6698647
  51.8679848  13.0610056  16.7962437  53.0830765  13.5721617  17.5400524
  85.5214310  35.5171127  13.9806232  86.4085388  35.1629829  14.0427971
  85.3313370  35.8427734  14.8604193  16.1838150  30.1940575  12.0539389
  16.9811745  29.6856995  11.9055367  16.4583721  30.9075203  12.6299772
  26.9063358  33.7570190   3.0957668  27.3578358  34.1437187   2.3455384
  27.3407288  34.1377602   3.8590300  77.9013824   8.2411785  55.6732979
  78.0321198   7.8326769  56.5290260  77.0202866   8.6126146  55.7173157
  78.9231033  25.0873108  63.3664207  78.0916672  25.3453999  63.7643356
  78.7495728  25.0913067  62.4250908  32.0460625  21.3590202  21.7632446
  32.8863983  21.2130871  22.1977253  31.5491314  20.5575809  21.9275112
   0.9201625   7.3249474  68.3062439   1.7366245   6.8990817  68.5675049
   0.2370522   6.8334575  68.7623444  64.7505035  62.1320915  19.1112461
  64.0418472  61.9526901  18.4933052  65.5507584  61.9972038  18.6036777
  77.4041748  51.6345406  27.0904827  77.7543030  52.0523872  27.8772793
  76.4751740  51.8651733  27.0900192  64.5551376  18.2401581  84.6845551
  64.3947296  17.2966175  84.6997299  64.3461380  18.5329361  85.5715942
  83.6519241  68.8514023  77.0524902  83.2739944  68.0260544  76.7488327
  84.5881729  68.7667999  76.8721924  38.1044273  59.3487358  80.1190338
  38.3260460  58.6172714  80.6952896  37.2771149  59.6838417  80.4647141
  56.2449799  28.5811481  67.9908142  56.1423607  27.6379318  68.1174850
  55.4981689  28.9669514  68.4487076  62.2184601   3.8443406  14.4458399
  62.0426025   2.9243536  14.2485352  61.4593620   4.3130383  14.0989599
  78.3680878  60.0518723  62.3802223  77.7020035  59.8865051  61.7129707
  78.6624146  60.9463310  62.2083282  22.7594814  29.1081123  55.4451294
  23.3848572  28.5181637  55.0242996  23.1234550  29.2604656  56.3172226
  15.6028652  45.3483429  60.2198448  15.7436333  45.0775452  59.3126030
  16.3081779  44.9241943  60.7085838  82.9682083  33.0898094  39.2637329
  83.2648544  33.5822945  38.4984283  83.7705994  32.7332802  39.6448975
  40.5381966   5.4839301  42.8132668  40.8137016   4.5770712  42.6793442
  39.6380348   5.4162512  43.1316376  64.9371490  52.6282082  37.0667725
  65.0862579  52.2414131  36.2039948  65.6490402  52.2873764  37.6083260
  71.0988007  39.9132156  81.9924698  70.8250580  40.3170776  81.1689453
  70.9288330  38.9793053  81.8693619  23.7502041  44.4323273  10.2720699
  24.4757538  44.0179138   9.8050852  23.2863903  44.9312553   9.5996265
  19.4757137   8.2427588  56.2026787  20.1023273   8.2670288  55.4794960
  19.1731796   7.3349547  56.2270927  60.6480713  69.6372833   7.3227868
  61.1037903  68.9347458   7.7864704  60.8552399  70.4273834   7.8218355
  70.0012131  14.4147358  40.1123199  70.6379547  14.3288260  40.8218346
  69.2375259  14.8195772  40.5235748  69.1234589   8.5688982  75.1024017
  69.6888962   7.9646764  75.5834656  68.3638229   8.0412207  74.8559341
  52.8709373  11.6465464  28.6359463  53.3748970  11.1912041  27.9614677
  53.1246948  12.5650425  28.5453796   9.2809238  15.5871353   7.4021220
   8.7821922  16.3849983   7.2263031  10.1939068  15.8405199   7.2661457
  43.8845100  60.6330299  71.3495636  44.6058998  60.9486885  70.8053360
  43.9685402  59.6797409  71.3292923  48.7419205  62.9569435  45.0250511
  48.6890182  62.1364098  45.5151024  48.8459282  62.6850471  44.1131897
  13.3390818  56.7463684  54.8926888  14.1447954  57.1634483  55.1978149
  13.3181763  56.9248848  53.9525146  30.9226761  53.6731033  67.5762405
  31.0965519  53.8367462  66.6492996  30.7150307  52.7397156  67.6198425
  26.7374763  31.0752182  86.0482864  27.5709877  30.8699608  86.4717941
  26.2068958  31.4678707  86.7414932  33.6535339   1.2435730  49.7106323
  33.7091217   1.9832900  50.3155785  34.2443047   0.5872067  50.0799637
   5.1969819  63.4740410  29.6935043   4.2864947  63.7376633  29.8267307
   5.5356221  63.3276062  30.5767441  54.2038956  29.5804119  69.3291321
  53.9095726  29.1520538  70.1329422  53.9008484  30.4843369  69.4146652
  50.9090004   2.2772746  50.3723259  50.2274933   2.4706783  49.7286034
  51.2269516   1.4074106  50.1305084  58.5389938  13.5962467   5.5430226
  57.9067688  13.4468861   4.8400192  58.2307014  13.0462685   6.2632399
  11.7610092  51.7157745  26.9020844  10.8275862  51.6044235  26.7216530
  11.8410635  52.6221657  27.1991959  15.3962708  54.2848206  18.6300030
  15.0692129  55.1675797  18.8031979  15.9506302  54.0826302  19.3836842
  56.9099197  70.9298553  18.7267094  57.1005554  71.8630066  18.8222179
  56.0304604  70.9024048  18.3498440  72.2601395  12.5315084  38.2275848
  71.7821579  11.7032957  38.2702904  72.1594849  12.9114199  39.1003799
  65.1367416  16.1122551  19.1487293  64.7627029  16.9555969  19.4038811
  64.8676834  15.5109653  19.8432026  12.8611746  20.7453785  19.1238270
  13.2362204  20.2578125  19.8572102  13.3147058  21.5881672  19.1395912
  28.5194092  23.7124958  86.4353333  29.3928738  23.6091156  86.0577011
  28.0861359  22.8752403  86.2694702   1.6400769  31.4998703  31.4669571
   1.5131658  30.5941257  31.1845474   2.5051949  31.7361145  31.1323051
  72.0662079  32.3509407  41.7986526  71.1318741  32.3418312  42.0064201
  72.4288635  33.0392723  42.3562469  33.2957115   3.5825586  15.1524200
  34.0659866   3.0366426  14.9946709  33.6497231   4.4598141  15.2984705
  26.8247509   3.2455397  76.4250488  26.3373127   3.2125926  75.6019135
  27.1210957   4.1532631  76.4917526  64.0017624  22.0307159  85.3067856
  64.6018906  22.0861626  84.5631409  63.1296120  22.0596333  84.9133987
  52.2468758  71.9137726  59.5747757  53.1411858  71.6087494  59.4218178
  51.6999969  71.1464539  59.4063187  40.4032326  36.0093498  16.8167591
  40.3983994  36.4772301  17.6518021  40.5986366  36.6833000  16.1657257
  38.4804840  40.2439957  26.9233208  38.6414070  41.1874809  26.9363804
  37.9826126  40.0970535  26.1191044  77.4932175   6.2425351  43.7058830
  78.2441559   6.7164025  44.0633354  77.8130646   5.3497338  43.5761337
  83.2171402  39.5020218  83.1001663  83.5203018  40.1688728  82.4840164
  84.0191727  39.0876617  83.4184113  73.9348679  22.7362957   7.3480253
  73.0636673  22.6017628   6.9750037  74.2579575  23.5301075   6.9217525
  56.3123436  53.8889465  35.5647545  55.6568756  53.2256622  35.7807426
  56.2073212  54.5584869  36.2407074  74.5666656  41.1331902   4.0251203
  74.1880722  41.7592430   4.6423359  73.8253174  40.5981293   3.7416604
  38.5240479  55.7037086  45.4005508  37.7393684  55.4768906  44.9014893
  38.2645378  55.5983238  46.3158569  40.8734512  49.5293884  82.8246384
  40.8442802  50.3943863  83.2334900  41.3093987  49.6758385  81.9851532
  21.7923431  30.0254269  75.4327545  22.1724701  29.2671776  75.8763657
  21.5286350  29.6934910  74.5745544  75.0689621  45.9066048  70.3671646
  75.4483719  45.0765190  70.0786438  74.5970306  45.6878014  71.1706772
   7.1822534   2.4019735  38.0480156   7.6528435   1.7914861  37.4804916
   6.2576008   2.2317915  37.8683281  44.4354591  59.9455948  11.2349319
  43.6769180  59.3782539  11.3726587  44.0736351  60.8317490  11.2278891
  70.8652878  56.1894073  13.2577600  70.1941986  55.6248245  13.6413212
  70.6059189  56.2809029  12.3409233  28.4090691  10.6520195  30.2359409
  27.8415108  10.8202486  30.9881439  27.8771858  10.8901453  29.4765797
  21.7915134   7.4120741  29.6997929  21.5053692   8.2716064  29.3906689
  21.0248623   7.0498643  30.1439571  22.4766636  51.2833710  53.4826469
  22.5679550  51.9516106  54.1618767  22.2835808  51.7768936  52.6855316
  26.9634342  21.9153500  75.9389496  26.0363235  22.0348473  76.1449051
  27.1354008  22.5421162  75.2362289  69.3186035  54.0389328  73.8499680
  69.5551071  53.3476715  73.2315369  68.9191437  53.5753975  74.5860367
  75.8216019  66.2438583  88.7064667  76.1571426  67.1402359  88.7184067
  75.0745697  66.2597656  89.3047409  58.3930473  53.7729721  33.7673607
  57.8742256  53.8239594  32.9645805  57.7485580  53.8278618  34.4729500
   9.2922640  48.7774048  71.3082275   9.5764256  47.9803658  70.8607712
   9.4412851  48.5970993  72.2364044  13.1575832  16.9550915  63.4944267
  13.7377539  16.2020893  63.6067734  13.3460770  17.2730484  62.6114731
  26.4350719  20.1472511  23.6397438  26.0424519  19.8714066  24.4679890
  25.7752876  19.9350834  22.9795151  72.5409241  41.8691864  58.7491837
  73.3484955  41.7710533  58.2447815  72.7386093  42.5552330  59.3867493
  44.6831551  53.8521996  39.6781769  43.9730492  54.4851685  39.5717316
  45.0089378  54.0046501  40.5652237  31.9943027   4.9036732  50.9946251
  31.7260342   5.6882672  50.5164261  32.9233932   5.0415535  51.1790581
  48.1425133  64.6625214   7.5340271  47.6791267  63.8280602   7.6059270
  48.9577827  64.5261230   8.0166855  54.5100594  40.2287140  16.4227600
  54.2518005  39.3244400  16.2443829  54.4435883  40.6684303  15.5751390
  59.0805626  47.6236496  29.9960365  59.4535675  46.9770851  30.5952492
  59.2339859  48.4650612  30.4258270  46.0789604  48.1386986  68.8917313
  46.1953888  47.2009583  68.7390366  46.4344254  48.2845573  69.7684326
  57.2300949  70.2972031  76.2722244  57.0787277  69.6832809  76.9908524
  56.6735153  71.0483627  76.4776764  23.1343842  41.3009033  69.6777267
  23.1991291  42.1786385  69.3013992  23.7961502  40.7907104  69.2108307
   9.4989843  69.7207184  32.5167313   9.3402176  68.8817368  32.9493332
  10.4302864  69.8906937  32.6582146  15.5800056   3.2646916   6.4148049
  14.8616266   3.6219187   5.8927407  15.3685741   3.5129392   7.3147502
  46.9570808  65.0929565  43.5807152  46.4095879  65.8444366  43.8082047
  47.5751724  65.4338913  42.9342194  67.0666199  37.0630302  47.3223953
  66.7716599  36.3084488  46.8126488  66.8525696  36.8387566  48.2280006
  26.5718460   4.2973442  69.0443192  25.9861202   4.3755269  69.7973404
  26.1801701   3.6090446  68.5066681  75.5940018  70.4461899  12.0803881
  76.0035553  70.9528961  11.3791389  74.6546478  70.5193863  11.9115963
  55.1948547  62.8394966  15.2014389  55.5409470  62.6086617  14.3393679
  55.8986931  62.6149712  15.8100700  39.6459999  55.3190842  82.4058533
  40.2793236  55.0823669  83.0834274  40.1415825  55.2731476  81.5882263
  21.6847534  48.4929390  56.8350182  22.0695477  48.8660736  57.6280708
  21.6922665  47.5479012  56.9869308   4.1501064  66.2038116  21.5072193
   4.8093672  65.5101471  21.5281639   4.2390718  66.5925980  20.6370697
  78.5186310   2.4228384  23.7083225  78.3432617   1.5193096  23.9712162
  77.7841110   2.9227521  24.0644093  29.9558372  63.7972717   2.6341779
  30.7008610  64.1828613   2.1732094  29.8809547  64.3097382   3.4391644
  52.2150955  24.7134190  10.5223532  51.5844307  25.2848549  10.0842228
  51.7174950  24.3071117  11.2319593  13.2155495  28.4727173  24.5707684
  12.8169737  27.6189060  24.7392178  13.5193386  28.4206295  23.6645508
  24.4002304   1.6252800  32.7424850  24.2981834   1.7945471  33.6790581
  25.1345329   2.1792312  32.4775887  28.2457447  60.0896721  33.6384087
  27.7877636  59.2635117  33.4836655  28.4244633  60.4321404  32.7626190
   1.4904292  57.5081482  85.0580139   1.7562070  57.3623695  85.9659500
   2.3106236  57.6675911  84.5910110  56.5663567   2.4393256  50.7746544
  55.8079796   2.7864323  50.3049660  56.7563324   3.0979481  51.4427567
   5.7763510   7.5589857  83.4127731   5.2524819   7.6714678  84.2059631
   5.5723834   6.6725326  83.1147308  78.9908981  65.0826416  63.0178261
  79.6705551  64.4230881  63.1567383  79.4172821  65.7586823  62.4911385
  22.5296307  57.3647842  26.0278034  21.7270737  56.8456001  25.9769745
  22.7740917  57.3379097  26.9528694   2.3188007   7.4168739  75.8140182
   2.8349049   7.6802936  76.5759048   1.5619489   6.9617438  76.1831512
   1.9408618  37.7603760  62.5448074   0.9933687  37.8960228  62.5541878
   2.1693261  37.7303200  61.6157570  36.3829002   1.3768022  80.9137344
  36.6314697   0.6977293  81.5408783  37.0606995   2.0465360  81.0047150
  11.2185822  43.2368965  52.7819710  11.6070662  42.5671196  53.3447456
  10.3518686  42.8937531  52.5645027  57.6182899  48.9722328  69.1930618
  58.4236755  48.6100464  69.5623932  57.7683144  48.9748192  68.2476959
  51.5618896  61.1539879  77.8744354  51.3732719  61.8259048  78.5295486
  51.8607216  61.6437263  77.1082153  11.5854931   7.7618175  54.2402649
  11.9452362   7.7153659  53.3544579  12.1763439   8.3519611  54.7080879
  23.3246002  11.7852468   0.3737162  22.5352993  12.3175325   0.4732592
  23.2558212  11.1237984   1.0621833  54.0494499  10.1933603  42.0075111
  54.1512871  11.0495472  41.5918121  54.9000740   9.7693357  41.8940697
  69.7189789   0.7960159  56.7288437  70.0784760   1.6715130  56.8720245
  69.5896301   0.7421227  55.7819557  72.6269760   3.5674102   8.9209270
  72.3918762   4.2960105   9.4954710  71.7876816   3.1933300   8.6528406
  75.2965927  10.2511292  52.5042343  75.6202164   9.3657217  52.3382378
  75.3579712  10.3544626  53.4538574  83.8524933  13.2016401  61.6493607
  83.6538544  12.6009712  60.9310493  83.0092087  13.3507948  62.0769920
  26.6212997  69.1257935  53.6747513  27.1359272  69.9316330  53.6297836
  27.0453835  68.5356979  53.0517159   3.8422232   5.1696854  67.5453720
   4.5329852   4.5736814  67.2557907   3.8764584   5.8963141  66.9232178
  59.6494522  50.0666275  31.7695084  58.9496880  50.6280251  31.4357433
  60.4382324  50.6055298  31.7091007   0.8483696  41.9033775  51.5497398
   1.7383302  42.1875992  51.3413620   0.3447577  42.0933647  50.7582169
  17.2112579   1.4384191  15.4417591  17.7170143   0.7161202  15.0692997
  17.8695164   2.0836236  15.6999044  50.2998581  33.0819168  64.2589264
  50.9377060  32.3973083  64.0572052  50.6193848  33.8527069  63.7898598
  17.6673908  47.6399345  41.5318565  17.6028080  47.7611504  42.4791527
  16.7757282  47.4272919  41.2562599  81.5362091  68.0721664   4.5276022
  82.3987732  67.7655716   4.8072710  81.4766617  67.8135071   3.6079383
  23.5219383  30.7442913   0.9801210  24.2848530  30.2956066   1.3446398
  22.9846210  30.0427418   0.6122184  16.4377384  59.3088608  62.6720238
  15.6129532  59.0595016  62.2551537  16.8509178  59.9053154  62.0477142
  58.0057068  42.6918793  37.8061638  58.4880486  42.0503540  37.2846031
  57.4249039  42.1657295  38.3557701  47.6749954  55.1361923   6.7174797
  48.4992561  55.3684082   6.2898064  47.6729546  55.6470184   7.5269756
  45.8317451  70.6753464  85.6821747  46.5639877  71.1288071  85.2645264
  45.7291641  71.1135025  86.5269928  52.6858025   7.7406902  45.3339729
  53.1045227   7.8337936  46.1896782  53.3401947   8.0574989  44.7113724
   8.5270061   6.3494186  51.5862427   9.4213181   6.0082669  51.5935516
   8.3871584   6.6738896  52.4758453  10.0304165  63.3492088  31.0878239
   9.8927641  63.5258560  30.1571903  10.9526062  63.1004906  31.1505604
  58.1238556  25.4507656  27.4815521  57.9784355  24.8015575  26.7933559
  58.1039963  26.2919998  27.0253029  83.3158417  64.7675476  61.5997009
  83.1861420  64.3866501  62.4682198  84.2282639  65.0568695  61.5988770
   0.1384366   7.9734712  58.1385956  -0.4635567   7.3966360  57.6683846
   0.4313040   7.4545989  58.8877487  69.6993942   6.7268114   4.7573624
  68.8577881   6.4213467   4.4188142  70.2475662   6.8292832   3.9793863
  72.5387192   7.6668148  31.8125782  71.9705811   7.3665791  32.5220184
  73.0834351   6.9077487  31.6044102   3.6796095  25.9352627  63.5271683
   4.5336866  26.3616657  63.5976295   3.6083529  25.6928902  62.6039085
  73.6818924  28.8681374  40.5807533  73.8581085  29.6981964  40.1378326
  74.5478439  28.5290699  40.8074532  67.0408783  42.8638077  18.0588303
  67.3486557  42.0080643  17.7601624  67.8344193  43.3954811  18.1208344
  57.7995567   1.6777868   1.4710287  58.1465645   1.7597009   0.5827102
  58.1414566   0.8408578   1.7854929  73.1434708  41.3356209  49.0926781
  73.2686157  41.7830391  48.2557831  72.4312592  41.8147430  49.5162659
  78.5876770  44.6312828  81.7902451  79.0205231  43.8677902  81.4082184
  77.7743683  44.7191734  81.2932129  18.8227711  64.9597626  18.7245235
  19.7073421  64.6967087  18.9786320  18.3815727  64.1383896  18.5078831
  81.8008194  27.4185963  81.0976715  82.2069778  28.2835217  81.0413971
  80.8625031  27.5980549  81.1575775  58.1275253  -0.0601465   6.4399452
  57.6533852   0.1024617   5.6244807  58.9630585   0.3926558   6.3255682
  72.9846649  58.7930374  47.0713882  73.2378769  59.2541695  47.8710632
  73.3345413  59.3328934  46.3626060  53.7754860  36.4784088  16.8397121
  54.4291840  36.1827164  16.2060890  54.2846298  36.7241631  17.6121197
  22.4624920  29.6126060  10.0588017  23.2141933  29.1803627  10.4641924
  21.9371986  28.8958416   9.7030649  49.3331909  34.0681458  78.7776108
  49.3906784  34.5889130  77.9765320  49.0062180  33.2167931  78.4868851
  52.5749817  67.4230194  50.4243584  52.3270454  66.7191544  49.8249130
  53.3913765  67.7685928  50.0633774  53.5587883  16.1054001  72.6056137
  52.8003960  15.5679483  72.3771057  53.3147583  16.5257130  73.4302444
  47.0275574  61.2699242  68.1925735  46.8289185  61.6645660  69.0417099
  46.3063812  60.6599655  68.0373611  39.5562515   5.9456940  47.4688377
  40.4856987   6.1742387  47.4574661  39.1027985   6.7881455  47.4986343
  54.6768532  18.7621994  79.1018143  54.6596603  17.9521828  79.6115265
  54.0386925  18.6189823  78.4029083  59.9088593   3.6297688  79.3463058
  60.4594498   4.2401090  79.8367844  59.4699097   3.1093900  80.0191879
  49.2737579  39.2993546   2.2259126  48.8130608  38.8148155   2.9108999
  48.8780365  38.9944763   1.4094057  26.8234959  48.3569565  64.0471802
  26.9782848  47.5250969  64.4947052  27.2832222  48.2689133  63.2122345
  20.2187405  58.4394760  76.5734482  19.2897396  58.3350830  76.3678055
  20.4580650  59.2790527  76.1809464   6.9490933  35.0652962  14.2919960
   6.7305765  35.6753349  13.5874872   7.7658186  34.6544991  14.0083809
  51.9339333   0.6340962  28.5168362  51.3775940  -0.1437429  28.4758015
  51.4661903   1.2326617  29.0992165  79.8357544   5.7267084  77.6643982
  79.9028168   4.7820601  77.5251999  78.9766159   5.9602118  77.3128510
  64.7556839  31.2435017  19.5806026  65.7071609  31.3477211  19.5882034
  64.4747696  31.5453053  20.4444523  76.8702927  34.4101524  72.7731018
  77.7454605  34.7967987  72.7445908  76.7958755  34.0508308  73.6571732
  56.7449570  15.3731918  56.9391708  56.6820564  16.1425037  57.5052414
  55.9357910  14.8886909  57.1027145  34.5526657  42.1571083  83.5294342
  35.1955643  41.7397919  82.9560547  34.7892380  41.8625412  84.4089203
   9.2350588   0.3865616  51.3235893   9.3832579   1.3222104  51.4608116
   9.9777069  -0.0389465  51.7521324   7.0213885  62.0248718   2.2862618
   7.9579740  61.8847466   2.1469638   6.8867259  61.8374405   3.2152216
   9.0067463  11.7644892   7.6518207   8.3693438  11.8033276   8.3648710
   9.8501072  11.6518393   8.0903234  58.1894150  36.6175842  72.8974304
  58.5177155  37.3129196  73.4674759  57.3225937  36.9196014  72.6260681
  85.7687607  22.7064610  27.5286865  85.9925232  23.5397434  27.9431725
  86.6132812  22.2895985  27.3577003   8.5484638  13.4518471  27.0907116
   9.1254978  13.2463474  27.8262596   9.0909204  13.9734669  26.4992008
  47.8021049  42.7997360   5.2961855  47.8525352  43.6722412   5.6865916
  46.9918938  42.4278412   5.6447396  51.6130676  33.9245224  88.9566879
  51.6466217  33.3408318  88.1987915  51.1391258  33.4258690  89.6222382
   6.2243476   1.2698299   5.3561654   5.8815894   0.8135527   6.1246443
   6.7244029   0.6032816   4.8851137   4.4285107  19.0608635  62.3009453
   4.4247651  19.0432701  63.2579765   4.6735888  19.9591122  62.0788651
   0.7665997  46.4005470  45.9165573   0.7914575  46.5413246  46.8630219
   0.2473673  45.6039886  45.8064461  44.1880684  17.2023144  68.5165100
  43.8974876  16.9152164  69.3821716  44.2047043  18.1576366  68.5740891
  84.6382904  38.2881126  44.6527519  84.8964233  37.3782616  44.5051918
  84.2161484  38.2810020  45.5118103  54.6145248  59.7917595  83.5010147
  55.0366440  60.6238403  83.2872696  53.6944046  59.9244308  83.2729645
  69.2650833  44.8051758  56.9321823  68.3911285  44.5240746  57.2031403
  69.7338791  43.9901772  56.7526321  48.0899391  71.0088654  71.6243057
  47.3703918  70.6747818  71.0886993  48.7797813  70.3512039  71.5358047
   2.0553782  45.6212883  10.8246660   1.7797675  44.8552895  10.3211594
   2.3544734  46.2467728  10.1647091  73.9486008  14.7457333  66.5604782
  74.2634201  13.8490696  66.6749802  73.8030014  14.8299637  65.6181717
  81.1241302  32.3941536  51.7886429  80.3903961  32.8430481  51.3686943
  81.2892761  32.8985710  52.5852127  30.8338223  18.3810406  24.7782631
  31.5324993  18.3674221  25.4323997  31.2770786  18.1952171  23.9504795
  32.6218796  24.5086384  11.3242798  33.2930641  23.8291054  11.2612123
  32.3710518  24.6824722  10.4170322  82.2058182  14.9885292  27.1066895
  82.9676285  14.6250973  26.6552525  81.8370514  15.6171579  26.4861507
  55.2809677  11.7790623  18.0531292  55.5734100  12.5240116  17.5279999
  54.3730431  11.9847279  18.2758503  14.9043655  47.7486649  61.4830437
  14.2275391  47.1804810  61.8508835  15.4971056  47.1510239  61.0272827
  69.7963562  35.0548744   2.9196231  70.0042877  34.2257729   2.4888287
  69.2942810  35.5441246   2.2678645  65.5688858   4.5676589  72.4224854
  65.1311798   4.7870865  71.5999985  64.9902496   3.9287822  72.8387222
  40.3203621  27.2778358  83.3585358  40.7138710  28.0962696  83.0559692
  39.9692879  27.4865475  84.2242279  53.7343826  32.8804359  10.4319630
  54.4987335  32.6287155   9.9136610  53.1847191  32.0968857  10.4442329
  48.5792542  27.2109051  67.8945618  48.6691093  28.1635990  67.8714981
  48.2085495  26.9845791  67.0415726  11.3484287  33.5072060  86.2658310
  11.8179865  34.3310051  86.1350327  11.3719320  33.0795975  85.4097748
   2.1270618  16.8837242   3.4084876   2.7821546  16.3368855   2.9748356
   2.3884039  16.8858166   4.3293176  60.8023109  18.6626568  83.7397232
  61.3638306  18.4652691  82.9900742  60.9640350  17.9474640  84.3550034
  81.9500580  41.4664383  54.1341553  82.0303268  40.8011894  54.8176994
  82.3835754  42.2380219  54.4987755  23.5152950  18.7155666  21.1167793
  24.1716537  18.1803246  21.5628090  23.2929726  19.3985386  21.7495136
  58.3741798   1.6447517  21.8934097  58.3779068   2.4807453  22.3596001
  58.2917137   0.9862330  22.5831814  57.9992485  70.0130386  45.5880585
  57.2731781  69.4383240  45.3456612  57.9021568  70.1363602  46.5323029
  78.4281158  19.4736633  76.7021332  78.4782028  18.6005554  77.0912476
  77.5559845  19.7907810  76.9367599   3.0262730  27.3954735  12.4891300
   3.1299856  26.8264427  11.7264500   2.4062369  26.9314060  13.0516500
   0.9597619  45.1672478   1.8027641   0.8669384  44.2341843   1.9951510
   1.4400916  45.5196495   2.5519814   4.4724932   7.3145509  71.0763474
   5.0505166   7.7560663  71.6985855   4.3860817   7.9320126  70.3500519
  24.4483528   9.6985741   4.9365597  23.5539913   9.3875084   4.7966056
  24.5507660  10.4202681   4.3161564  29.3343143  51.2132645  71.6784439
  29.5048523  52.0740738  72.0607452  28.5153275  50.9289665  72.0842361
  19.2361851  58.4149628  23.9945850  18.3718338  58.5956345  23.6251450
  19.3737869  57.4809952  23.8364639  21.9861794  37.0048332   6.0863953
  21.7427769  36.0987167   5.8968291  22.5969982  36.9401855   6.8205280
   8.6363783  61.9951744  35.0763435   8.4220562  62.2161522  34.1699982
   9.3842764  62.5535927  35.2885895  80.5757599  54.7387161  42.4624405
  80.1203461  55.0157166  41.6673927  79.8834686  54.3969841  43.0282898
  59.5749588  34.9641418  80.1790924  58.7724113  34.6231384  80.5738907
  59.8954430  34.2477493  79.6310959  77.9085159   9.1689014   8.0116062
  78.1210403   9.9139681   7.4495192  78.3712082   9.3469429   8.8304195
  11.9171333  65.9217834  27.8198948  12.1589813  66.4760590  27.0779209
  11.6623726  65.0886230  27.4234524  66.2173004  11.0074692  16.9477539
  65.9810791  11.0142307  16.0201855  67.1131516  11.3439569  16.9692230
  43.3223801  69.2485733  48.4325142  43.6146965  70.0714111  48.8245964
  42.8888321  69.5109177  47.6204529  43.3767967   7.0611277  32.1176491
  43.1390648   6.4012551  32.7690201  42.5775070   7.1932716  31.6078358
  69.4390335  45.9965668  83.6550140  69.2256927  45.7927513  84.5655975
  68.6631393  46.4478111  83.3224487  10.9928341  24.5122223  13.1062746
  10.2406645  24.4478416  12.5177794  10.6156435  24.7576771  13.9510889
  11.7675571  64.1020966  47.1284943  11.5522776  64.3709793  46.2354164
  12.3554287  64.7859650  47.4493828  64.4750900  36.1026917  86.9296646
  65.3099747  35.6476173  87.0396805  64.2789459  36.0210114  85.9963455
  63.0947113  44.1137886  56.7992973  62.5021400  44.7251053  56.3618279
  62.5277672  43.6022224  57.3764496  -0.0876336  58.4460144  65.8174896
   0.3706116  57.6277695  66.0091019   0.3940756  58.8236351  65.0815582
  84.9031601   2.3197558  36.8419342  85.1778488   3.1370959  36.4263229
  84.0261307   2.1573684  36.4945488  48.1542282  60.1073875  21.4296665
  48.0575752  59.1717720  21.6071835  49.0992165  60.2408371  21.3560505
   4.7463841   6.8897634  32.6152077   3.9029858   6.6344547  32.2414055
   4.7997169   7.8333898  32.4636917  26.5068455  68.9089966  23.5136795
  26.4014397  68.8769379  24.4645176  25.6766987  68.5794830  23.1694279
  43.8331718  54.8931732  74.9537582  44.6566849  55.1404266  74.5331345
  43.4085312  54.3099976  74.3246155  84.1687546  45.4232101  15.4273357
  83.8708878  45.5589867  16.3268185  84.9833755  45.9221916  15.3669004
  79.2813339  44.1742210  45.1662331  79.1893158  45.0435715  44.7763596
  78.9255142  44.2690773  46.0497627  72.7789917  66.3128815  85.2823181
  73.7164612  66.3462067  85.4727631  72.5952759  65.3834915  85.1455002
  36.8217583  36.5232887  10.7587795  36.8894730  37.3998947  11.1372089
  37.7000275  36.1540413  10.8511438  17.9357586  51.9368553  41.3110542
  17.8225765  51.3797951  42.0811882  17.2231426  51.6826096  40.7247353
   1.6364563   1.3133842  26.8229980   1.8984109   1.6269113  27.6886272
   0.9639425   1.9318765  26.5376492  61.0241547   9.4992847  43.1094933
  60.4891243   9.5200672  43.9029312  61.9262047   9.4823599  43.4292603
  52.1310463  17.6412601  78.2384415  51.4473000  17.1836376  78.7276306
  52.0525436  17.3051567  77.3456345  77.0791779  39.6964798   3.3171542
  76.2667847  40.1919899   3.4206722  77.7715683  40.3529053   3.3941722
  77.7320404  22.5204124  62.4247856  78.2734146  22.9680824  63.0749664
  76.8691254  22.4572163  62.8342018   1.0841218  31.6818848  34.2790146
   0.7521921  30.9037151  34.7267952   1.4009522  31.3565006  33.4364128
  11.5718422  24.1749840  20.0855083  11.3240280  25.0359192  20.4225712
  10.7903624  23.6359138  20.2076855  79.1594162  57.1972847  54.9119797
  78.5147095  57.8982315  54.8157387  79.3904724  56.9594421  54.0140495
  71.1463394   8.6681767  81.9776077  72.0256424   9.0044394  82.1507874
  70.6225281   9.4488420  81.7975769   9.8780766  63.7710609  40.5453491
  10.5331736  63.5713997  41.2140884   9.8588133  62.9924355  39.9889259
  42.9415245  53.0994530  22.7300434  42.7515869  52.1612892  22.7280560
  43.8949051  53.1509514  22.6618729  23.4600124  67.9561996  85.3095474
  23.1896839  67.1725464  85.7881317  24.3450832  68.1368103  85.6261902
  41.9576263  67.0458298  76.7975998  42.7194557  66.7011566  77.2634888
  41.2240982  66.8957672  77.3939667  62.9272537   7.7592864  22.3973351
  62.1624527   8.2942524  22.6097450  63.0760651   7.9138665  21.4644947
  59.2890892  30.1960907  49.2021103  58.6875572  30.7812786  48.7417336
  59.1442413  29.3394127  48.8004227   1.2590228  56.3235054  72.0185623
   0.7745022  55.5094604  71.8814545   1.5191027  56.2952576  72.9393158
  33.9055138  54.8093681  42.3333588  33.8977776  55.4374657  41.6110954
  33.0099831  54.8217735  42.6711540  63.1274147  17.2069397  59.7429886
  63.1351051  17.6988964  58.9219208  63.9734573  17.4010372  60.1464310
  32.7829170  65.8843842   2.7071278  33.3218994  66.0662384   1.9372851
  33.3276596  65.3165817   3.2521844  17.0169430  13.9107857   9.0085859
  17.0682964  14.5153627   8.2682610  16.1468143  13.5183067   8.9373913
  72.1118622  20.0022202  39.6205711  71.2782211  20.3001060  39.9846306
  72.1358032  20.3761005  38.7397346  18.0504532  45.4685059  82.0226669
  18.0641727  45.5480652  81.0688782  17.2540512  44.9716835  82.2101364
  69.5413513  66.1331406  62.6765518  69.3296204  65.1996460  62.6766281
  69.4089508  66.4086914  61.7694855  61.8847313  53.1149406  40.1390190
  61.4993401  53.4574547  39.3325539  61.6144142  53.7353439  40.8159676
  60.7186279  16.8186970  61.0390968  61.4104652  16.9447613  60.3897133
  61.1644859  16.8975124  61.8824425  59.1180763  20.5801945  52.7925491
  58.6881142  21.0480690  53.5084114  60.0536003  20.6818485  52.9677467
  50.3218575  52.6950569  60.4194756  50.1696892  51.7913361  60.1431351
  50.2793465  52.6636543  61.3752136  74.4202881   7.5914655  78.9366455
  74.8634186   7.9469104  79.7070465  74.8166504   8.0534420  78.1979218
  62.2185516  62.0478363  16.9573689  61.5737839  62.5430031  16.4520779
  62.0213585  61.1312447  16.7644882  58.7352371   9.8526268  29.7762203
  58.9997749  10.7653008  29.6609898  58.9174767   9.6648560  30.6969604
  30.6325283  22.6331482  88.6119385  31.5599213  22.6504860  88.8483200
  30.6197376  22.8387508  87.6771622  23.9702492   0.4350678  52.7397385
  24.8061295   0.7495407  53.0841827  23.8216248   0.9614718  51.9542198
  18.2929630  51.5045509  14.6528835  17.8302784  51.8776894  13.9026031
  18.2844200  50.5606232  14.4942722  64.2789612  48.9928551  62.9748535
  65.1569138  48.6980972  62.7328644  64.2276382  49.8895302  62.6438370
  71.4665604  30.8834591   4.1298060  71.5576935  31.6690292   4.6690688
  70.5455017  30.8772678   3.8693457  77.3422318  59.3488121  25.5276070
  76.5073318  59.6478996  25.8877735  77.4963074  59.9192390  24.7745419
  18.9328213  51.2701759  64.2375412  18.2371712  51.7180786  63.7562027
  18.4709816  50.6685486  64.8214722   4.7612562  48.0834160  71.7497635
   4.0240455  47.6088524  72.1338730   4.3852177  48.9134216  71.4566422
  78.5717468  18.0466137  40.4383736  79.5039520  17.8299484  40.4214783
  78.4815979  18.7656345  39.8129807  15.7236652   5.8145823  56.7097664
  15.4074793   6.5690742  56.2127762  15.7114115   6.1060967  57.6214142
   1.4146910  20.6735706   7.4389501   1.7496548  20.0693226   8.1014557
   0.4674003  20.6783848   7.5762420  76.0531540  12.9806738  21.8373299
  76.2430115  12.4712286  22.6251450  75.4304810  12.4426212  21.3484478
  67.1868820   1.1628172  87.6559753  67.0725555   0.5224323  86.9537888
  68.1355515   1.2560151  87.7430267  38.1210060  46.6441841  73.1944962
  38.9349670  46.8777122  73.6407776  38.0659027  47.2565346  72.4608536
  69.2238464  33.5367393  47.7793503  69.3044357  32.8757248  47.0917473
  68.9536285  33.0443573  48.5544472  73.2970352  60.1147346  39.9807243
  72.4471970  59.6972580  39.8402939  73.5357819  60.4663773  39.1230621
  37.4376221   6.6459227  56.4920502  38.0968933   7.3319979  56.5964317
  37.7065430   5.9603219  57.1034966  30.4266071  59.4087296  88.1298981
  30.4528255  58.7491646  88.8230896  30.7392902  60.2100677  88.5498047
   0.4182773  20.5402584  11.5941095   1.3504615  20.3273296  11.6380005
   0.3875517  21.4950199  11.6550913  23.0711384  52.1209068  10.1776714
  23.3146458  52.0777435   9.2529697  22.6129055  51.2970161  10.3433886
  18.2927952  42.4493675  10.2140732  19.2479935  42.4907913  10.2600279
  18.0151138  42.3130188  11.1199064  56.8246193  48.4055176  22.0221310
  57.4759140  48.2629280  21.3353157  56.8334656  47.5957413  22.5324421
  65.7392883   9.3933430   6.7911282  65.1957626   8.7149897   7.1919436
  65.2710724  10.2097178   6.9658875  78.8286209  19.0800667   5.1175199
  78.2095566  19.6152725   4.6209841  79.2628174  19.6987801   5.7047949
  22.8391590   6.4122195  23.9740047  22.8347149   6.9429574  23.1774330
  22.1817036   5.7351003  23.8143330  70.2503891  59.5753441  87.0399017
  69.8890686  58.7015152  86.8912354  69.6799698  60.1587257  86.5393906
   9.7325840  27.4869690  71.3340912  10.6133184  27.2435093  71.0490189
   9.1934710  27.3987064  70.5480881  52.9450645  39.5612640   5.3019524
  53.4595451  39.8492165   4.5478802  52.0372620  39.7346268   5.0528140
   6.9479251  28.5724125  18.1948547   7.0823760  28.8817863  19.0906467
   6.0392604  28.2718925  18.1790962   5.3383241  37.5653038   0.0762994
   5.8180990  37.0365562   0.7138506   6.0069385  38.1184540  -0.3276970
  65.6716309  69.1224289  13.4140205  64.7298050  68.9590302  13.3639498
  65.7664185  69.7632294  14.1187325  82.5771942  38.5054054  62.7992783
  82.3618927  38.8067436  61.9166260  82.5496750  37.5504570  62.7397079
  64.0970535  45.4737129  53.2377815  63.9247398  44.6469345  53.6883087
  64.4442444  45.2136803  52.3845100   9.0630960  62.7899208  58.2744064
   9.4248753  62.6079178  57.4070969   8.7786493  61.9356804  58.5993538
   7.8660154  57.9738121  68.9913025   8.8101692  57.8656731  68.8767929
   7.7185216  58.9140701  68.8893585  12.8057804   9.4108782  70.1802521
  12.8952665   9.1830778  71.1056366  11.8626328   9.5054665  70.0469971
  76.7186279   0.5507469  10.0585375  76.4481049   0.2036450   9.2084980
  77.5956039   0.9025066   9.9055099  68.6909637  44.4840660  71.6765671
  68.1722641  44.0811653  72.3728867  68.6299515  45.4242020  71.8458557
  30.1363697  23.1999760  78.2733765  30.6479263  24.0001469  78.1539383
  30.1346188  23.0558281  79.2196579  59.4039078  17.4461346  33.5933533
  58.6008110  16.9862480  33.3488731  59.1694641  18.3734608  33.5568542
  75.9822083  13.9563751  29.0155754  75.5202332  13.3190098  29.5601635
  75.3539429  14.1866188  28.3311024  36.0817871  28.3771954   2.1978209
  36.7013092  28.7617722   1.5777210  35.5781326  29.1219749   2.5262542
  16.4367275  25.4304943   4.5068069  15.6368341  25.0788021   4.8975940
  16.1395264  26.1713047   3.9785044  79.2591934  60.8414764  71.4239960
  78.3126602  60.7122765  71.4840775  79.4468613  61.5351372  72.0563354
  20.8999920  12.3327684  85.0028229  21.5824242  12.9207640  84.6791306
  20.1182098  12.5776863  84.5077896  27.8303604  47.7791443  61.5742149
  27.8305244  46.8225708  61.6087952  28.7435760  48.0129623  61.4080849
  18.9595642  30.9614506  75.8706360  18.9246101  31.5679455  75.1309280
  19.8897877  30.7592831  75.9708557  73.7503891  57.7700958   3.3472643
  73.7812347  56.8134384   3.3382547  73.1106949  57.9827194   4.0268359
  42.1173744  17.5893211  86.1041489  41.3696785  18.1623707  86.2738342
  42.2595253  17.6543484  85.1598053  57.9463234  42.3170204  46.2234993
  57.2525139  42.8741875  45.8707619  58.0807915  41.6480217  45.5522385
  23.0309849  67.4983978   1.6803491  23.6299038  67.3436279   2.4108105
  22.7164936  66.6269531   1.4397033  70.6758041  66.1087570  77.3798752
  70.4599380  66.5612259  78.1952972  69.9676285  65.4755478  77.2625961
  71.8845520  38.7572098  41.2713394  71.3180389  38.6539955  40.5067215
  72.1395798  39.6797104  41.2576981  19.6660767  24.1117611  25.9011383
  19.5999050  24.9535580  25.4503269  18.8195953  23.6915054  25.7491951
  45.5112839  53.5469818  16.5880661  44.7143364  54.0413666  16.7796173
  45.9265785  53.4220848  17.4413910  14.0851030  32.6963043  46.3847923
  14.3070526  33.6273994  46.3786163  13.3453913  32.6304131  46.9887085
  76.2830505   0.9061301  31.1660919  76.7858963   1.3514934  31.8480225
  76.5522766   1.3328675  30.3526764  64.0797119  13.5957289  28.6134510
  64.8110123  13.0781622  28.9504318  64.3037262  13.7586613  27.6972084
   0.1182281  41.6590919  11.1459694   0.9710771  42.0475883  11.3407755
  -0.2170042  42.1732063  10.4114380  17.1252480   6.0691175  17.5946064
  17.9011574   6.2388268  17.0603848  16.6424999   5.3995957  17.1099148
  84.2359772  59.8187561  26.3534050  83.5019684  59.4379387  25.8712902
  85.0033722  59.6216240  25.8163052  63.2146568  26.6982288  82.0888214
  62.7948189  26.3019314  81.3253326  62.8617668  27.5873985  82.1216202
   4.8519192  47.8121414  21.1458702   4.7436934  48.5096092  20.4992943
   4.0318656  47.3199844  21.1068153   1.4934665  27.9361191  54.8142090
   0.8162075  27.5748234  55.3860626   2.3123140  27.5776882  55.1566238
  20.4498367  16.0160580   6.6115189  21.1436024  15.9865360   7.2703419
  19.7239437  16.4620094   7.0479121  76.5192413  41.3385124  14.9779797
  76.4258957  42.1333923  15.5030355  76.9486618  40.7141914  15.5628338
  46.7093239  67.8391342  56.6620827  45.7574921  67.9403610  56.6616287
  46.9285889  67.6401138  57.5723305  16.7852879  44.9355049  57.7447777
  17.6829586  45.2193947  57.9174805  16.8781853  44.0540047  57.3834457
  31.5941792  59.4930077  68.8769531  31.2346592  59.7276192  68.0214233
  32.4771805  59.8625183  68.8751984  10.1495457  36.0646286  76.6156158
  10.4191446  35.3698425  77.2162933   9.9288502  35.6074104  75.8041458
  20.0784130  48.4643097  31.9455357  19.2829361  48.4409828  32.4774208
  20.7860737  48.2864342  32.5650597  61.3641510  10.8981152  27.0360336
  61.6028366  11.1499290  27.9281387  62.1491661  10.4747753  26.6885109
  18.3360405  70.0133438  56.4413109  18.4269371  70.7107010  57.0906715
  18.6626568  69.2299423  56.8838425  79.4543839  57.6730423  52.0871620
  80.1997223  57.0846786  51.9666100  79.8493042  58.5243645  52.2756348
  43.8779716  54.3535004   7.0608668  43.8653297  55.2619896   6.7596655
  42.9574852  54.1381187   7.2110238  47.3118820   1.7134683  85.7493668
  46.4234619   1.5148993  85.4535370  47.3773003   2.6664693  85.6882019
  81.5750732  31.3345222  63.1860657  82.1487808  31.6188583  62.4745560
  81.1527023  30.5433636  62.8515472  68.6918106  37.7445145  79.4486237
  68.0551834  37.0303001  79.4775314  69.1966782  37.5832214  78.6515503
  51.4473534   7.3375506  67.6913834  50.9861870   6.7548394  67.0880508
  51.0726509   8.2020798  67.5228043  67.4880371   9.5267134  28.0790081
  67.2073593   8.6541309  28.3547802  68.4261932   9.5473671  28.2678680
  61.5536613  42.8736954  58.8795776  61.7790718  42.2281303  59.5494041
  61.7052803  43.7194519  59.3014030  -0.2142301  51.9220810  85.4497070
   0.2442647  52.7544250  85.5646744  -0.0001162  51.4200783  86.2360764
   2.4690316  25.7795696  10.2408743   1.9004089  26.2608776   9.6398401
   1.8928986  25.1342773  10.6506338  20.8672428  40.2695084  87.5079651
  21.3033447  39.4185524  87.5517807  19.9848213  40.0705757  87.1949310
  18.0214844   9.2341681  78.3042145  18.3148155   9.7706232  79.0406952
  17.1723728   8.8902445  78.5816269  33.8823051   8.0860167  13.3987465
  34.7621803   8.3136549  13.6991253  33.5622292   8.8803253  12.9711275
  11.0451660  18.8455143  27.4388962  10.2895317  18.3620052  27.7727642
  11.3691263  18.3121853  26.7130566  23.8140049  60.8933983  63.5215721
  23.9954739  60.1035385  64.0309067  24.6546459  61.1204834  63.1240959
  30.4516335  48.7357712  14.0972157  30.5361061  47.9918633  13.5008116
  30.7079544  49.4939842  13.5721931  80.9945450  52.0259132  59.3934631
  81.0456467  52.9510231  59.6338615  80.2282486  51.6981049  59.8641663
  46.3028603  10.2708244  67.2922211  45.3716087  10.4918365  67.3045731
  46.4517937   9.8147745  68.1205139  37.1228180  13.5100756  14.4882078
  36.5051956  14.0895481  14.9342871  37.3245125  13.9606934  13.6681499
  40.0961876   0.0044930  49.8353310  40.0354996   0.0621199  48.8817978
  40.5558319   0.8030241  50.0947685  26.7934666  23.5412865   5.6168909
  27.4830093  24.2032394   5.5660653  25.9954605  24.0070171   5.3668680
  12.3953075   1.5665739  20.5351124  11.5731173   2.0528464  20.4736710
  12.8841238   1.8227836  19.7530346  18.4630718   9.0480127  15.0731783
  17.8622074   8.3685760  14.7673025  18.1998367   9.8338528  14.5942268
  64.1422424  25.9432545  30.2725945  64.8761673  26.0697784  30.8739052
  63.9829941  24.9994659  30.2842751  36.2489548   0.1471770  57.9640121
  36.1216354  -0.2123625  57.0860863  35.6201744   0.8665799  58.0217209
  67.7141418  19.0159931  19.4056301  68.2410812  18.6492062  20.1155834
  68.2250824  19.7605610  19.0881500  25.6879692  37.5712738  81.3248444
  25.6832542  36.9297562  80.6144485  24.7648373  37.7845993  81.4610519
  51.9333229  59.2096558  70.4185715  51.3998566  58.5169487  70.0289459
  51.4549065  59.4654922  71.2071762  16.2587090  42.5607300  45.7934380
  15.9387369  41.7641525  45.3699875  16.6882973  42.2519302  46.5911407
  62.8444901  58.7838821  21.5737343  62.5572472  58.7360878  20.6619015
  62.0369225  58.9045601  22.0732365  86.2313843  64.5104065  15.7273884
  85.5861740  64.5769043  15.0234556  86.7950592  63.7817116  15.4675875
  54.1444740   3.7882800  39.9465561  53.3712311   3.9255102  39.3992958
  54.7938690   4.4010720  39.6015892  46.4265213  56.4904594  10.3697338
  46.7883339  56.2559280  11.2243214  47.1788330  56.4730148   9.7781649
  15.1585340  27.6378899   8.3545799  14.7081871  27.9247856   7.5601554
  14.5450735  27.8354893   9.0622892   9.3891563  22.9664154  35.5360680
   9.5942917  22.0769062  35.8240356   9.9366722  23.0999432  34.7623596
  67.8273697  54.7900391  23.4295731  67.6352921  54.5338440  22.5275192
  68.5501404  55.4129028  23.3529186  65.0164108  47.2513695   5.4803157
  64.7323074  47.0420609   4.5905385  65.3009644  48.1640396   5.4324274
   3.5454829  27.1798172  78.7959290   2.6972182  27.0050220  79.2035141
   3.9456193  27.8477745  79.3526611   6.6503377   8.9857082  46.9939461
   7.0090065   8.6499557  47.8154449   5.7475386   8.6679554  46.9791679
  76.5696335  70.6904907   7.5184879  77.2093124  69.9792633   7.4837976
  76.7882996  71.2460022   6.7702775  36.6687088  70.8367767  21.6304436
  37.1696243  70.0254364  21.5464821  36.3243980  70.8143692  22.5232944
  74.1592712  47.5860100  56.7352142  74.2964935  46.8421783  57.3218269
  74.7184677  48.2771568  57.0899696  66.8986816  66.0679398  71.5679321
  67.8389435  65.9637222  71.4220810  66.7882690  65.9510269  72.5115280
  69.9788284  27.6140442  58.9828033  70.3018341  28.1256180  58.2410545
  69.1084595  27.3222332  58.7116089  35.7863731  13.5493479  23.5077248
  36.0833740  13.7182579  22.6135826  35.3177795  12.7166100  23.4511662
  59.5398407  25.3610249  18.6560173  60.2268143  24.8160229  19.0397778
  59.0356789  24.7599926  18.1075554  63.5416031  43.6646156  14.5400972
  63.6015663  44.5508080  14.1833010  62.7471733  43.6746101  15.0739603
  46.0161133   8.4838285  40.6017075  46.8208084   8.9866543  40.7276421
  45.5971336   8.4828444  41.4623375  14.0372286  66.5605011   9.6303320
  13.3973722  67.2671432   9.7168150  14.8066111  66.8746033  10.1053314
  27.3263664  44.2147713  13.0788765  27.2428913  43.3228073  13.4160089
  26.4836540  44.6245155  13.2742672   4.9410639  44.2137642  50.0831451
   5.1399250  45.0562363  49.6745758   5.4402556  43.5762367  49.5726547
  34.1084938  26.2676258  15.3275537  33.5758743  26.4801941  14.5611582
  34.5944138  27.0714378  15.5119438   7.8113799  47.4180336  59.8070259
   7.7389250  46.5291786  59.4592934   7.8719764  47.3001595  60.7550049
  60.8516579   4.6804581  26.0147247  60.0207520   4.6219807  26.4863243
  61.5151443   4.4685092  26.6713028  18.2919235  55.4157486  70.9886551
  17.7961292  55.1125603  70.2280655  18.2513885  56.3706322  70.9358597
  39.4293365   3.4146113  17.7301712  39.3673058   2.4726036  17.8883038
  38.8206100   3.5771024  17.0095577  49.7493553  43.5191650  20.4610558
  48.7958069  43.4436569  20.4253235  50.0382500  43.3295479  19.5684109
   9.8537216  43.8026505  22.4910374   9.5270948  44.2990952  21.7406425
   9.3260527  44.1086807  23.2286987  38.1396980  33.7239342  83.7876205
  37.3369713  33.5040092  83.3148727  38.7866249  33.0958786  83.4662704
  46.7299500  50.4413757  47.4796257  47.3085480  49.8863754  46.9567223
  46.5410500  49.9215012  48.2608299  54.2015419  50.2417564  61.2909508
  54.2809105  50.9153976  61.9663315  54.1490097  50.7308617  60.4698257
  32.1734428  28.7404766   0.3816445  31.8686886  28.6901684  -0.5243496
  32.0078468  29.6471386   0.6400508  63.7016640  15.1775742  16.8588505
  64.5358963  14.8351326  16.5378723  63.9247246  15.6257420  17.6747074
  30.8883057  68.9391861  18.0527229  30.8186493  69.7769089  18.5105476
  30.8516769  69.1697845  17.1244373  50.3782845  45.1454124  15.8307171
  50.7524605  45.7024651  16.5132961  50.2106438  45.7411880  15.1005268
  50.9175682  48.1825867  60.8434105  50.9577332  48.6011581  59.9835167
  50.2432823  48.6705971  61.3160782  33.0879974  47.8632469  11.1197691
  32.5609589  47.7245674  10.3328571  32.6722527  47.3159637  11.7860060
  36.8402977  26.3194618  17.9838619  37.0471382  25.8266411  18.7779503
  36.0128403  26.7576752  18.1826458  22.6084423  51.2065887  19.3580132
  22.7406902  50.2590332  19.3876953  23.4804935  51.5747032  19.5003223
   0.2683988  53.9703560  59.2838173   0.5975792  53.9811440  58.3850670
   0.1844285  54.8943481  59.5192375  14.9878950  58.0346870  69.6130676
  14.2678881  58.6462555  69.7673492  15.0280523  57.9473419  68.6607132
  12.9683657  24.3080082  28.2360954  12.0344725  24.4951725  28.3311977
  13.2399168  23.9989014  29.1003551   5.9648280  60.5731544  46.5725937
   5.3969216  61.0323448  47.1913490   5.6258821  60.8157845  45.7109222
  79.2919083  68.0140152  39.3436127  80.0570068  67.4596786  39.1900902
  79.2235031  68.5516739  38.5546417  31.7356606  13.4827833  87.5220108
  31.1447601  14.1222734  87.9196548  31.6199245  12.6908503  88.0470581
  12.6746807  58.4681396  10.3503418  12.2994938  57.6050072  10.1757936
  12.9824820  58.4169617  11.2552567  36.1354866  49.1445656  35.6716232
  37.0842323  49.2196999  35.5692749  35.7954712  49.9908257  35.3809853
  49.7401390  39.4076614  16.9113388  49.9255981  39.3824844  17.8500633
  50.3946953  38.8276749  16.5222378  83.1453552  42.7756233   1.1602445
  82.9116440  41.9273643   0.7833203  83.9453049  43.0299149   0.7002015
  31.3306866  15.6838236  19.2918491  31.1893063  15.3822346  20.1892281
  31.2411499  14.8949585  18.7571449  67.4561844  17.0167141  38.2363968
  66.7570953  17.4974899  38.6795235  67.0857773  16.1487122  38.0764046
  51.2630539   7.5073433  83.1264496  50.6517220   7.9754024  83.6951523
  51.2878761   6.6187201  83.4813614  65.5136414  30.6433144  59.9116173
  65.3948441  31.0119629  59.0362778  64.7943268  30.0192413  60.0083199
   5.6356645  63.1500816  53.0792122   6.4865904  62.7292671  52.9564400
   5.8430901  64.0745316  53.2155914  77.8248367  58.4877586  11.0152597
  76.9933014  58.0874138  11.2692337  77.6606827  58.8486938  10.1440477
   5.0207696  63.2832222  80.8530121   4.8436260  62.3425636  80.8492661
   4.1932006  63.6817207  81.1223831  22.0527859   0.1965272  71.2883224
  21.9914665  -0.2090700  70.4234772  22.8976498   0.6464193  71.2825165
  86.2479630  48.1824188  31.2255344  85.9808502  49.0825462  31.4116993
  85.4311371  47.7279778  31.0193501  85.2914810  11.1525164   6.2953882
  85.8120880  11.6942377   6.8884602  84.3835373  11.3615704   6.5148759
  20.6222363  20.6767693  61.9688683  19.8094254  20.4891148  62.4382896
  21.2733631  20.8041248  62.6588249   7.9695826  56.6367455  87.6837082
   7.4164152  56.7259064  86.9076385   8.5057516  55.8634911  87.5081177
  34.9224892  58.2565079   8.2379141  34.6974220  58.9072800   7.5730281
  35.7298584  58.5864067   8.6323204  27.8080044  18.3488693  74.3653030
  27.9561234  18.6775951  75.2519989  28.3338203  18.9213181  73.8066864
   5.0975118  61.3112488  28.0322437   5.9443765  60.8718185  28.1094017
   5.1895552  62.1033287  28.5617428  51.8995056  54.3889923  33.5572128
  51.4649544  53.7223701  34.0892067  51.5411453  55.2185097  33.8729820
  42.3306236  56.4944115  20.2381058  41.6111488  55.8913498  20.0512829
  42.7309723  56.1496658  21.0362930  65.4474640  43.0935287  29.2069550
  65.9030228  42.9641724  28.3751068  66.0657883  43.5888290  29.7441559
   5.9603329  22.0919361  18.2905064   6.5543447  21.9574814  19.0289536
   5.0878315  21.9423828  18.6546593  45.8699646  20.4259281  21.7056026
  45.4507408  20.0903931  22.4980030  46.6739006  20.8414001  22.0175362
  51.5454636  11.6913939  75.8597870  51.7160187  12.3840380  76.4980545
  50.5962753  11.5705061  75.8854141  24.8464069  47.0334206  80.8928223
  23.9077148  46.8695717  80.9836273  25.1119709  46.4971924  80.1457214
   7.2609553  13.5564203  54.1882019   6.8043327  13.3094101  53.3840179
   8.1884766  13.5374613  53.9524574  37.9089890  53.8313179  87.5884476
  37.6404686  53.3653412  86.7966156  38.4741135  53.2122536  88.0506439
  77.7755203  29.2552547  20.8860683  77.3117065  29.5536976  21.6683998
  77.0981216  29.2015514  20.2119122  55.1994820   4.1186752  31.6078205
  56.1078682   4.0854540  31.3078899  54.6804008   3.9830384  30.8151093
  14.6657772  31.5946484  30.2187748  14.9995937  31.5242462  31.1131134
  14.9335213  32.4674873  29.9312019  14.4027948  65.5023499  83.1839752
  15.0704775  65.9847260  83.6715546  13.9908829  66.1616745  82.6255417
  64.1882095  16.9849377  53.0669060  65.0827103  17.0476780  52.7319984
  64.2877808  16.9928360  54.0188828  56.9966545  51.4418564  66.9586182
  57.7984276  51.7470131  67.3831940  57.2194061  50.5740356  66.6217194
  71.1194458  49.7145691   4.0684199  71.5557709  49.5353355   4.9013238
  71.1450119  48.8800926   3.6002014  63.5607185  34.9012108   0.9233491
  62.9754066  34.8021240   1.6742322  64.4252472  34.6671600   1.2610418
  79.8944168  22.3017578  26.1166477  80.2688293  23.1725540  26.2499294
  78.9705200  22.4005203  26.3466263  44.7476425  60.8453255  32.9339943
  44.3810310  61.2266464  33.7317543  44.2697144  60.0239029  32.8196144
  14.5444517  60.1311760  65.9275894  15.0766516  59.3804588  65.6641159
  15.0402632  60.8931885  65.6280212  61.1920166   0.8966948  57.1855507
  61.3966980   1.5813993  57.8223534  60.8906212   0.1589032  57.7156982
   3.4891336  27.1177349  38.1826363   3.5546710  27.3468590  39.1096954
   3.8648686  27.8686981  37.7231750  17.9518185  17.4765606  71.7354660
  18.5592079  16.9127579  71.2564697  18.1830673  17.3504944  72.6557159
  68.6758270  48.5007477  74.5001526  68.3454514  48.4600677  73.6026917
  67.9362183  48.2227707  75.0404739  12.2248259  49.6579132  22.1273327
  12.9511862  49.1129189  21.8246498  12.6464291  50.3967476  22.5661964
  45.7671890  19.5689144  87.5633621  46.6367035  19.8097534  87.8830109
  45.8777809  18.6860161  87.2105255   6.4146285  64.2409668  68.6681824
   6.2708936  64.5575027  69.5600204   6.2410941  63.3008842  68.7168121
  17.1643772  46.7840500  76.9266510  16.6630211  46.2981720  76.2718277
  17.6999683  47.3912849  76.4161301  61.6823692  31.7173882  47.2689476
  61.9692345  30.8276920  47.4748116  62.4245949  32.2706871  47.5122375
  12.0135622   3.8571079  32.2611046  11.1798115   3.6571453  32.6866722
  12.0594511   3.2465038  31.5253811  49.1166077  43.9001160  67.2940979
  50.0067863  43.8281517  66.9496613  48.5769539  44.0870476  66.5259399
  61.9412880  17.3016129  72.7662659  61.7668991  16.9472351  71.8943481
  62.8162880  17.6837997  72.6988678  55.9611244  67.9909592  52.9678230
  56.2533951  67.6311569  53.8052902  55.6880875  67.2263260  52.4608459
   8.3726215   6.4380045  15.5145426   8.2480173   5.5469451  15.8412209
   7.6618590   6.9406133  15.9125795  28.0989017  21.6687832   4.3703899
  28.7932014  21.8608303   3.7400734  27.6773396  22.5137272   4.5271983
  30.2253227   1.8858178  81.7651367  30.6947784   1.9085587  80.9312744
  29.4488945   2.4258618  81.6176834  11.7107496  71.1661148  22.1986027
  12.3151159  70.4521713  22.4017372  12.2099342  71.7462311  21.6237030
  47.0809326  13.5173321  30.5028877  47.9242020  13.9548225  30.3857174
  46.6722031  13.5494766  29.6379375  18.3620911  15.2161341  45.6001434
  18.2230911  15.0142508  44.6748581  19.2978840  15.4064245  45.6658211
  29.2121811  64.0670624  20.0302258  28.9922848  64.1302719  19.1007729
  28.4405823  64.4079514  20.4826202  80.4439011  54.6416740  69.9351959
  79.5642166  55.0125694  70.0046692  80.6709747  54.7354050  69.0100479
  61.1340942   7.2933450  75.4130173  61.9453697   6.7983270  75.2989197
  60.7640305   6.9614387  76.2310181  40.2153969  47.3283691  74.6043091
  40.6194534  46.6858978  75.1875763  40.2783089  48.1566200  75.0799866
  33.3704605  55.5902557  15.8505039  33.1938515  56.0568008  15.0335732
  34.2215729  55.9219322  16.1365643   4.0098429   7.5978899  80.3491898
   4.5227528   6.9520111  79.8633957   4.6579199   8.0841436  80.8588791
  14.8004484  51.8998871  41.8460541  15.4345989  52.6158142  41.8068886
  14.4456844  51.8453560  40.9586983  46.4973869   8.9968719  64.7155609
  46.5542259   9.2979336  65.6224060  47.2849121   8.4676867  64.5890732
  38.7237434   6.8582253  76.6845703  39.4045296   7.5213094  76.7989273
  37.9748764   7.1966920  77.1753540  31.6521225  59.6974220  39.8577156
  30.7342510  59.5594330  40.0915947  31.7338619  60.6458817  39.7578392
  23.4385700  11.3618431  19.3651085  24.1551991  10.9475975  19.8458118
  23.6342850  12.2980471  19.4031830  86.2525024  66.8723526  66.6742172
  85.2979584  66.9312210  66.6340485  86.5271606  67.7003250  67.0682373
  14.5922356  48.1675949  21.8819542  14.5855150  47.6713982  22.7004757
  14.4342537  47.5116806  21.2029457  62.0240211  70.1714783  42.9979706
  62.0364189  70.9491730  42.4400558  61.1365547  70.1475525  43.3558235
   7.0657244  67.1987610  63.6714096   7.2336950  67.8726578  64.3301086
   7.9026384  66.7443619  63.5748253  77.8680496  56.0790215   5.9842591
  77.3520050  56.1971779   5.1867814  78.6053467  56.6811371   5.8838520
  48.2335701  49.5651779  68.2210464  48.6329918  48.8987961  67.6619110
  47.3759880  49.2052536  68.4474106  19.3518620  21.4287128  14.9345942
  18.4900398  21.5647621  14.5409117  19.4253063  22.1182289  15.5944471
  26.1030140  62.2087135  81.5566711  26.4412518  61.4729424  81.0463104
  26.5329876  62.9776230  81.1823273  61.9962044  27.8166580   7.9523449
  61.7948303  28.7457123   7.8403716  62.4346771  27.5668983   7.1389613
  48.0657272   7.7313309  57.0417099  47.4274979   7.0526328  56.8220253
  48.3634796   8.0632868  56.1947250  29.7640171  18.3145733   5.1248751
  30.2507782  19.1057758   4.8940234  29.1659088  18.1783772   4.3900623
  31.6894150  51.2558670  42.2711716  32.2432556  51.0370331  41.5217705
  30.9231663  51.6814728  41.8865242  16.0432053   6.8519583  84.8792648
  16.3940868   6.0238047  84.5517349  15.1601162   6.8994780  84.5130310
  12.3691673  23.8628674  66.5957336  11.9481583  24.5966682  67.0435257
  11.6938896  23.5203571  66.0101395  23.0039196   6.6500025  17.2934341
  22.6177845   6.4215770  16.4478855  22.2591190   6.9151282  17.8330746
  66.2065506  51.8548012  39.6659698  65.5367432  51.2310028  39.9460907
  65.8614883  52.7092056  39.9251213   9.4467077  46.9804230  69.1239853
   9.7506485  46.6264343  68.2882004   8.8311720  46.3249054  69.4520798
  81.3167038  58.3734627  48.4976349  81.0498352  58.0682793  47.6305275
  82.0054321  57.7645798  48.7643585   5.0413651  43.4025764  87.0860443
   4.9513245  42.4688454  87.2764893   5.9763398  43.5792007  87.1902466
  36.0370216  21.6954250  30.6009827  36.0035324  22.3987942  29.9526138
  36.5586815  22.0554867  31.3182392  86.8722000  42.1124916  36.9611931
  87.3273697  42.3752403  37.7612038  85.9634247  41.9851570  37.2334938
  37.2675018  21.1682491  79.0927887  37.7083092  20.9397564  79.9111481
  37.9495087  21.0958443  78.4250641  44.8451920  52.7835274  25.2975845
  45.0079269  53.0519600  24.3933201  45.5488853  53.1944771  25.7997475
  41.5407829  58.6701508  21.9522686  42.1263428  57.9143066  21.9976177
  42.1269112  59.4268112  21.9400234  68.0369263  30.9912071  39.2205124
  67.5370636  30.3617992  39.7403336  67.7497101  31.8468418  39.5393066
  15.5331707  34.1373405  29.7649841  16.4305706  34.4703293  29.7700100
  15.3461132  33.9391136  30.6825600  34.2719307   8.5860920  38.2526588
  34.9875221   9.2145166  38.3487892  34.5957298   7.9501443  37.6147270
  32.9018593  61.0084991  47.8641167  32.5925255  61.2493935  48.7373390
  33.6458321  61.5893440  47.7048836  28.6224899  10.5755224  68.3361816
  28.9209557  10.1603556  69.1453705  28.5370121  11.5022831  68.5598755
  50.8910980  23.9709511   7.2250032  51.7895355  24.1721230   7.4868574
  50.8291473  23.0182495   7.2939582  30.9281960  34.4521637  77.9282150
  31.5825386  33.8366737  77.5977020  30.3306465  33.9118118  78.4451141
   9.0589170  59.2159462  71.9854279   9.1165638  59.6226692  72.8499985
   8.7401724  59.9139061  71.4131699  80.3087769  30.1702385  82.3210297
  81.0121078  30.7290058  81.9903641  80.7036057  29.6959705  83.0527420
  36.0063515  10.5493727  17.8570385  35.1532440  10.1815844  17.6264572
  36.0441399  10.4867210  18.8114376  26.5204964  53.7891312  67.0688324
  27.2768593  54.0924301  66.5666809  26.8904934  53.4789543  67.8953476
  79.7665939  71.0901184  43.4609756  80.5629120  71.6186752  43.4086533
  79.5189514  70.9391632  42.5487709  42.8024139  13.0521393  78.2294083
  43.1453819  13.1409388  79.1186371  41.8514442  13.0515270  78.3384323
  29.9601593  15.3263578  88.4269104  29.2840939  15.5832996  87.7998962
  29.4878101  14.8397722  89.1024551   9.7875519  27.8286610  88.1151962
  10.5806408  28.3631821  88.0761032   9.2670012  28.2232933  88.8148575
  41.7361450  65.2154846  87.9067688  41.7926788  66.1501007  87.7079468
  42.6370735  64.9003067  87.8344650  68.9345016  58.0553818  26.4901104
  69.4696884  58.8256950  26.6809902  68.1110229  58.4123268  26.1573906
  61.7227974  59.4951286  43.0954590  60.9023209  59.4021072  42.6113129
  62.3960266  59.1918678  42.4863434   6.3169193  21.0398788  69.9195099
   6.4720845  21.5344753  69.1148224   5.7009606  21.5782146  70.4165268
  83.5068665  27.2189827   5.5382981  84.0023117  27.7184734   4.8892407
  83.0701523  27.8842907   6.0701599  74.6966934  62.1084862  51.9794693
  75.0022659  61.9551353  51.0854111  75.4967422  62.2543449  52.4843216
   8.4202957  42.2241135  83.2445755   7.7777023  42.5940170  83.8499451
   8.4309931  41.2889748  83.4486237   8.3944244  67.7333755   3.0166433
   9.1733437  67.2783432   2.6965361   8.5866013  68.6612854   2.8814547
  26.0815582  52.5616341  14.4007111  25.9157944  51.8676720  13.7626104
  25.6725483  53.3391418  14.0206766  79.9093399  24.5766850  11.7282457
  80.1235046  23.8344555  12.2934523  79.0044708  24.4192219  11.4587107
  10.0148315   7.6475353   5.5913868   9.7421265   7.2939105   6.4380350
   9.4646177   8.4207487   5.4663301  50.4183006  26.0428104  78.3951721
  49.4929466  26.2853928  78.4283600  50.4140167  25.0862904  78.3593369
  72.3879318  61.2397728  83.1950760  72.9656906  60.9019356  82.5107574
  72.0388641  60.4572334  83.6217117  73.4458008   4.0152941  11.4972944
  72.5838089   4.4120274  11.6230173  73.5249634   3.3830564  12.2116051
  16.8264313  42.0559120  12.7767725  16.2463932  42.3710213  13.4699488
  16.4661140  41.2035713  12.5319901  69.6847992  45.8874550  68.4888077
  70.6150589  45.7875595  68.6909790  69.5177155  46.8248482  68.5867996
  69.0938034  42.8879204  80.3836975  69.2123260  42.7592850  81.3247833
  68.5973129  42.1211166  80.0978012  32.1510658   2.2083728  64.1704178
  33.1069489   2.2444825  64.2052841  31.9193001   1.4615706  64.7225113
  56.5843773  66.4652023  88.7990265  57.2378731  65.9937973  89.3157043
  56.5531807  65.9950638  87.9658203  65.8657684  25.3944721   2.9409158
  66.5974503  26.0022984   3.0477631  65.2191086  25.8849239   2.4334521
  78.3839722  17.5578556  18.5585823  78.2640305  18.4644794  18.8412170
  79.2439194  17.3123627  18.8998413  76.2102661   1.0845684  43.5622101
  76.8163452   1.5705427  43.0029831  76.2483063   0.1865612  43.2330170
  53.0775795  57.4754982   0.5441456  53.6837273  57.4204216  -0.1946231
  53.5526276  57.0779533   1.2738839  18.8552513  13.9584522  83.4822235
  18.8973408  14.6910677  82.8676224  18.2756767  13.3244772  83.0598450
  14.3471746  17.8180485  39.8815422  13.7993364  18.3681030  40.4414940
  13.7716808  17.1021042  39.6123581  34.3474731  70.3302002   1.9099400
  33.5077667  70.7808304   1.9996613  34.5487633  70.3825531   0.9756093
  77.1488876  42.6987686  23.0557747  78.0642395  42.5371666  22.8271885
  77.0119476  42.2013435  23.8620281  83.9847717  55.6131210  61.2551918
  84.0073547  56.2796707  60.5685806  84.2307663  56.0821533  62.0525169
  73.8460083  52.5776749   7.5815058  73.0846634  53.0419159   7.2335539
  74.0183411  52.9979553   8.4240589   2.7748151  65.7336731  28.4512939
   2.7735443  65.3549423  27.5722084   2.4969280  65.0167236  29.0213718
  43.8794441  46.0139771  80.1292191  44.6364365  45.8559036  80.6933212
  43.9330254  45.3319244  79.4597702  64.0048599  10.0588217  86.8965988
  64.7384186   9.8563366  86.3159714  63.6185951   9.2070799  87.1004791
  34.0313416  62.7436028  79.0868835  33.4093933  62.8893280  79.7997513
  34.1919441  63.6159439  78.7270737  85.3387146  26.5260181  21.2294483
  84.5111008  26.9420280  21.4707432  85.8667450  26.5627975  22.0269871
  11.1711140  52.5738487  34.4851761  12.1067276  52.7466240  34.3802567
  11.1275568  51.8864098  35.1498299  71.8496780  28.8176918  42.8065338
  72.4810410  28.9301357  42.0959167  71.8607254  27.8783703  42.9903412
  29.7722759   6.4284720  24.5247383  28.9306679   6.8350792  24.3183498
  29.7369576   5.5736470  24.0954838  85.6796494  58.9366493  35.4169464
  85.7962189  58.1393471  34.9002724  86.2462158  58.8134727  36.1785660
  31.9494629   8.5143490  81.5041733  31.7345257   8.5165358  80.5714188
  32.8750877   8.2726173  81.5361023  79.2021942  69.8899918  26.3710728
  79.4696121  69.3030930  25.6637802  80.0236816  70.1613159  26.7806664
   8.6536808  58.0736008  59.3270569   7.8479376  58.4449387  58.9677277
   8.4788561  57.1343803  59.3864899  77.0223541  34.3384018  62.2105560
  77.3071899  35.1096268  61.7203369  77.1417923  33.6098022  61.6013718
  57.3929901  25.6393566  49.7083244  57.9445534  24.9379635  49.3618393
  57.4061584  26.3126297  49.0280609  12.1455755  16.8993034  69.1489182
  12.3426094  17.6912594  68.6487045  12.8473902  16.2902145  68.9193573
  77.4979401  49.0470619  71.5323639  78.1165237  49.7309532  71.2756958
  77.0759888  49.3892632  72.3204575  73.3317795  12.7459259  86.5372543
  73.5726242  13.4270220  87.1652145  73.2310867  11.9556723  87.0679092
  77.2350311  54.7704964  17.9313240  77.1429672  54.7954140  16.9788876
  78.1692429  54.9109879  18.0854053  50.3654709  16.2067394  13.0011072
  50.7262230  17.0695210  12.7969046  49.7495651  16.3677254  13.7159328
  77.1295624  41.6007652  42.2434006  76.3268127  41.5113640  42.7570496
  76.8667679  41.3845901  41.3487282  83.8465576  10.7790813  43.7967720
  84.4811707  10.2602234  43.3025169  83.7584763  10.3183708  44.6311684
  29.4995823   5.1685152  41.8578644  29.1922340   6.0053115  42.2064896
  30.2560616   5.3973641  41.3178635  31.8932247  27.1542225  20.2669621
  31.7626877  26.6028442  19.4954872  31.0841351  27.0585575  20.7694073
  59.1471405  10.9608231  41.7026749  59.5736046  10.2687178  42.2079964
  59.7944870  11.2091208  41.0427322  36.1200981   5.1880059  42.3464584
  35.3521500   5.5907111  42.7518158  36.7977257   5.2318468  43.0210915
  59.3129387  37.0959015  39.5336075  59.8145943  37.4728050  38.8107529
  58.7648735  36.4277267  39.1220245  22.7537289  52.2206650  44.8167534
  21.8940830  52.6177139  44.6767693  22.8431988  52.1725273  45.7685471
  60.9621353   2.7073011  36.1312828  61.5368271   2.8453705  35.3783569
  60.9021301   3.5671113  36.5476456  60.6982117  17.0635872  56.2095833
  60.9339142  16.5777149  55.4192619  60.6134949  16.3925743  56.8869247
   2.6714721  30.1284943  61.8883209   2.0778437  30.6510963  62.4275093
   3.2653661  30.7687550  61.4964180  36.4513893  61.0316620  60.6521759
  36.9509811  61.3977928  59.9223900  37.1062737  60.8613167  61.3291855
  19.9388638  59.7125053  34.7767487  19.9209175  59.6393280  35.7309799
  19.8849525  58.8087006  34.4661636  83.0932999   7.9358191  72.0235672
  83.6558838   7.2551494  72.3929062  83.3280869   8.7284908  72.5060349
  11.2247972   1.0003124  39.5913811  10.5612698   1.6766250  39.4551315
  10.9545040   0.2811262  39.0204659  82.5448303  70.0308533  49.9395905
  82.7616272  70.9152756  49.6445808  81.7966080  69.7751083  49.4001617
  86.2906265  60.6097260  78.2253647  85.5156860  60.6947937  78.7807541
  87.0249405  60.8063698  78.8070374  76.4794312  40.4210167  19.3030052
  76.0069351  41.1522789  18.9052162  76.2202682  39.6585732  18.7855606
  37.1797447  22.7817135  32.7431374  37.3743782  22.3341370  33.5665588
  36.9156494  23.6633091  33.0063362  82.6342850   8.7239227  42.1658936
  83.5417175   8.4601374  42.3182335  82.3002472   8.0820580  41.5392647
  54.3036842  11.7331362  76.6589279  54.4488220  12.4147768  77.3150787
  53.5377007  12.0317812  76.1687088  69.3761902  22.5000725  58.0399284
  68.9509735  22.9836502  57.3317108  68.9420013  22.8088322  58.8351517
  60.8954659  55.1231651  48.9010277  61.5128899  55.2954369  48.1901512
  60.0333290  55.2558784  48.5068970  23.5960484  57.4045143  40.9626160
  23.4338150  56.6697426  41.5542412  23.2315216  58.1635475  41.4178314
  56.9215050  32.1526909  65.0807495  56.3581238  31.6943378  65.7042465
  56.3610382  32.8322678  64.7062073  64.1491623  26.9955750  14.2250509
  63.5893402  27.7084446  14.5327044  63.7054749  26.6621017  13.4451990
  24.0537338  24.6652012   6.0182977  23.1144695  24.8488941   6.0347042
  24.4622517  25.5188217   5.8744955  72.5199356  68.9834595  34.8252792
  72.7099991  68.8503265  33.8966331  72.0997772  68.1694260  35.1028633
  10.4965296  25.6798630  76.6578903  11.2078114  26.2238483  76.3196793
  10.9059677  24.8328705  76.8345108  25.4454651   9.3834343   7.3020272
  25.0036049   9.3194818   6.4553270  25.5822544   8.4747610   7.5700450
  67.7136383  14.5425215  51.0344009  66.8008728  14.3276081  50.8422852
  67.9771881  13.9005737  51.6937027  34.5954208  58.4756927  84.9913254
  35.1543045  57.7227859  85.1837158  34.1002121  58.6186943  85.7978897
  12.1141672   1.1120874  34.1469765  12.4128513   1.3040646  35.0358887
  11.2086697   1.4217410  34.1264496   8.8357954   4.3850513  35.9178467
   9.7384424   4.6716270  36.0568924   8.5595169   4.0427756  36.7679901
  53.7662544  46.7132568  80.1554260  53.3381424  46.4387970  79.3444901
  54.6054802  47.0762177  79.8722534  45.0781288  24.0355892  84.2601624
  44.9903259  23.1898918  84.6998444  44.5189400  24.6267776  84.7641830
  71.5644226  24.7009068  40.1533470  72.4614792  24.4661674  40.3908768
  71.6486282  25.5387135  39.6981316  14.8146477  63.3870850   5.3408256
  14.3997927  63.7758331   6.1108913  15.5379705  63.9789162   5.1340117
  61.4465446  53.5336227  50.9716530  61.2474861  53.9910736  51.7885628
  61.2163544  54.1591339  50.2846451  34.5852928  14.7903919  53.0535507
  33.8229942  14.3981218  53.4792938  35.2949104  14.6833019  53.6869621
  10.8116589  63.9019814  14.7890978  10.9550514  64.7599182  14.3895741
  11.6766138  63.4920197  14.7930202  22.2761898  50.7747536  79.3427124
  21.5407505  50.2725945  79.6937103  21.8794804  51.3635674  78.7007217
  21.2265930   9.7905664  32.3188667  20.5093536   9.6302776  31.7055912
  20.9775906   9.3113384  33.1091652   6.1667585  49.4420090  16.9529266
   5.4739079  49.1920242  16.3416195   5.7013540  49.7190590  17.7421494
  27.2066994  71.3895950  55.9121742  27.2899170  70.5650711  56.3911934
  28.1090927  71.6690826  55.7578773  16.9403458  16.5119705   2.8911619
  16.6552620  16.9575195   3.6889369  17.7480507  16.0640488   3.1425779
   3.5836425  67.6959534  12.4529409   3.7699151  68.5936737  12.7279501
   4.0164962  67.6109924  11.6034403   9.8537884   7.7892070  82.7558060
  10.3104954   8.5783501  82.4644241  10.4659815   7.3668809  83.3583755
  21.1069546  21.5023479  24.6590691  20.6032753  21.6149063  25.4652138
  21.6935730  20.7688274  24.8436146  60.2547836   2.6980314  53.6069412
  59.8624344   2.1810405  52.9033661  60.1350327   3.6069484  53.3316917
  25.3632145  21.1545143  13.5002470  24.4063473  21.1506863  13.4753389
  25.5810852  20.8509197  14.3814936  83.7810974  28.5138741  57.3480186
  83.0292969  27.9403687  57.1993103  83.5614014  29.3218822  56.8842430
  61.0492210  42.5432816   3.7036092  60.2378502  43.0476952   3.6446531
  60.8004799  41.7426529   4.1655159  12.1327467   1.3010395   7.5369401
  11.6148939   2.0736268   7.7631464  12.3478527   0.9016850   8.3798380
  26.2040100  40.2994766  81.5211563  26.0708923  39.3540878  81.5900650
  26.9603825  40.3932724  80.9420776  75.4154739  40.4570656   8.7549686
  76.0478668  40.8936729   8.1842813  74.5616455  40.7073326   8.4020138
  24.9174671  56.6199951  59.4619217  24.3477001  55.8590889  59.3495827
  25.6816196  56.2803345  59.9276810  45.8568840  45.6858978  23.0216713
  46.6867218  46.1624908  23.0002422  45.5558815  45.6881027  22.1130333
  27.6549015  20.7382450   6.8575048  27.3663692  21.2602386   7.6061716
  27.6237240  21.3439293   6.1169605  46.6018333  60.1857796  42.2058525
  46.8945122  59.2939301  42.3934021  45.6705551  60.1837502  42.4270821
   5.7782836  21.8465214  64.4877396   6.3616943  21.0996895  64.3531799
   6.3668318  22.5928593  64.6009674   5.0532150  69.6668549  79.8203964
   4.1006413  69.7163162  79.9003220   5.3464828  69.3189087  80.6625137
  14.5916586  54.8481598  86.4758987  13.9058027  54.2371407  86.7451401
  15.1248960  54.9708977  87.2612762  64.0596771  10.3910980  12.1880999
  63.2847939  10.7887049  11.7909889  63.7684364   9.5218201  12.4633570
  82.4641876  17.1927795  33.4876747  81.7806473  16.5955868  33.1837540
  82.0226898  18.0375805  33.5749817  19.4693279  10.6782312  50.6597214
  20.4128819  10.5385361  50.7398453  19.1369877  10.5868273  51.5527115
  85.5197678  59.8362846  13.0438871  84.7746124  59.2676315  12.8499756
  85.3931122  60.0940552  13.9569836  76.8023224  12.0367098  27.0967236
  77.7382889  12.0506916  26.8967266  76.6937027  12.6972589  27.7809086
  17.5407009  21.7074051  59.3830109  17.4311028  22.6096745  59.6832275
  18.2150078  21.7605762  58.7057266  41.1837502  16.8333683  42.3575935
  41.8187027  16.5411148  43.0115471  41.6616783  17.4718781  41.8283272
   2.2424765  45.8311386  69.1055527   1.5941632  46.4433060  69.4536514
   2.3791618  45.1997490  69.8118744  55.6166649  27.5541153  25.0509415
  56.3457565  27.4156952  25.6555061  55.2058983  28.3643589  25.3526134
   2.3130000   5.1589780  86.9276199   3.2502768   5.0494056  87.0880508
   2.1642449   4.7386823  86.0805893  70.3518600  20.3658066  26.9224682
  70.9229965  20.1815109  26.1767654  70.2273102  21.3146038  26.9000263
  49.5397682   2.5085130  26.2417736  49.1452179   1.6504147  26.0861168
  49.6782455   2.5403047  27.1883698  80.3966370   6.5869575  39.0840492
  80.4503860   6.6962371  40.0334702  79.7845917   5.8614078  38.9607353
  32.4262657  62.7025261  42.4227829  31.9028168  62.0073509  42.8214874
  33.2609711  62.6719322  42.8902855  43.9259491   1.4755476  46.1227493
  44.8178444   1.3307651  46.4386482  43.7457352   0.7221220  45.5605164
  10.5740643  18.9650288  38.5828247  11.0702238  19.5530415  39.1522980
  10.7125473  19.3118458  37.7014771  73.8067093  37.7067413  87.9354935
  73.6074142  37.7594681  87.0007553  74.1600037  38.5690842  88.1540756
  32.6690903  65.0575562  12.4006090  33.5617294  65.3998795  12.4479265
  32.4742584  64.7724838  13.2933607  47.6300430  37.9526024  12.2891417
  46.9383430  38.3978767  11.7997408  48.0807457  38.6542702  12.7589912
  12.5444031  14.7809563   3.0159101  12.6368704  14.4631863   2.1177433
  12.8745728  15.6789598   2.9874427  80.2514877  54.8115234   4.2181611
  80.5368042  53.9092636   4.0741134  79.4362717  54.7288322   4.7129474
  72.6292114  43.4751511  54.7501450  72.1023712  43.3717690  55.5425987
  72.6909103  44.4221802  54.6254044  38.2700424  59.9768791  85.4638214
  37.5246277  59.3814545  85.3860016  38.0465698  60.5453568  86.2007980
  49.8486481  23.6052990  79.7675629  48.9887733  23.9541550  79.5327148
  49.7137375  22.6599483  79.8334503  52.3035583  14.4963217   7.9468074
  52.1379471  13.6703835   8.4013739  53.1037331  14.3378172   7.4459829
   4.7522135  47.2717552  24.5511951   5.2977881  46.9375610  23.8392296
   4.7542295  48.2211380  24.4291172  55.7110443   5.7475896  61.8522911
  54.8068314   5.5385613  62.0866852  56.2125702   4.9785986  62.1231346
  35.3965569  30.6488838  34.0558624  36.1920242  30.5231323  33.5385132
  34.7469978  30.9589920  33.4248810  73.8096161  67.1300583   1.2885783
  73.9689178  67.7477875   2.0022047  73.2619629  67.6141434   0.6705405
  16.1138477  62.3040619  64.9777069  15.5649242  62.9793053  64.5790100
  16.7859058  62.1228981  64.3206329  20.1517544  28.7536964   6.3589649
  19.3042564  28.3572826   6.1568890  20.6586323  28.6594925   5.5524712
  61.4292297   4.2377858  29.0347557  61.1414490   3.4203980  29.4413166
  61.0865097   4.9238372  29.6075630  76.8393784  12.1265745  51.3736877
  76.1065674  11.5940552  51.6829643  77.3517303  11.5331192  50.8245697
   0.7977326  33.1995697  14.5663891   0.6648729  32.3262062  14.1978540
   1.5333062  33.0954742  15.1699848   3.5609612  25.0389214  67.2575836
   3.5747383  24.4558010  66.4986343   2.8638093  25.6659832  67.0652237
  75.1471939  66.5954895  28.7739124  75.4743195  65.7228470  28.5554676
  75.5631943  67.1741180  28.1348743  14.8796921  14.8961401  63.4192505
  14.9979239  14.7338066  64.3551483  15.6597824  15.3869905  63.1608772
  68.9663849  33.1370773  52.2535896  69.8762131  33.3665237  52.0643806
  68.6985397  33.7583542  52.9307213   2.8474548   7.7572985  56.5358543
   3.1028783   6.8858299  56.8383980   2.3136613   8.1109304  57.2473602
  14.0045309  70.3224640  81.5351486  14.0565023  70.5583420  82.4613724
  13.1253700  70.5911942  81.2685242  26.1356544  38.2545280  75.5218506
  25.3181934  37.8223953  75.2743607  26.6767635  37.5534401  75.8850403
  81.7740097  34.2926292  59.8457565  82.4543304  33.6629562  60.0842934
  80.9743271  33.7699928  59.7857666  22.7421780  46.2375946  74.4902039
  22.9349804  45.3051529  74.3921432  23.5696068  46.6755371  74.2907028
  71.1662292  67.7221832  73.0561218  71.6372757  67.3038330  73.7767715
  71.7272720  68.4525223  72.7952347  35.0727692  53.6716957  13.2983036
  35.7954140  53.9393082  13.8661022  34.3482704  53.4969482  13.8989716
  15.4403858  14.7850819  23.0198936  14.6132250  14.4582214  22.6660576
  16.1016674  14.4913855  22.3932514  11.3992577  35.2232170  82.6704636
  11.0063057  34.3557549  82.5738907  12.3349657  35.0793839  82.5290680
  65.5442886  48.3649368  80.2021561  65.5566330  47.4079895  80.2202225
  65.5074081  48.5864677  79.2716751  82.4255371  41.3860550  27.4093666
  82.7954254  42.2181396  27.1143436  83.0963516  40.7370682  27.1971111
  25.2118759   7.6807971  73.7131500  25.9851723   7.1228070  73.7961655
  24.6446781   7.4131999  74.4362717  11.2410908  18.6894150  22.7190113
  11.4780874  18.2203941  23.5190639  12.0783672  18.9659386  22.3465405
  23.9428654  14.2598047  87.3822937  23.4034958  14.7961550  87.9633636
  23.9993877  14.7667189  86.5723114  81.5372620  56.1414223  73.2930069
  82.4657898  56.3681564  73.3445358  81.1475525  56.8443718  72.7731857
  39.5174675  17.2379417  76.5254211  39.8759842  16.8592091  75.7227631
  39.4973412  16.5093212  77.1458588  45.0032806   8.7931585  45.7341537
  44.2240105   8.7456264  46.2879677  45.4310799   9.6096306  45.9922104
  68.2583694  11.7689743  65.5183411  68.1907425  12.4531794  66.1843185
  67.3674011  11.4299393  65.4319382  76.3814087  40.3053246  49.1502571
  76.9363632  40.5917625  49.8756561  75.5231857  40.1596146  49.5483208
  41.3386612  63.1400146  69.6822433  41.7669754  63.7979088  70.2299271
  40.8041077  62.6317215  70.2922668  75.0742416  51.9619141  48.2505226
  75.8996429  51.4901199  48.3616409  75.3325653  52.8213806  47.9176331
   4.4541173  34.5511284  41.0109482   5.1474538  34.8045349  40.4016037
   4.5099273  33.5965118  41.0536957  30.3065701  12.3451147  31.0891895
  29.5826836  11.7911940  30.7969723  30.0791988  12.5817871  31.9883671
  17.0064030   1.4175498  23.2206554  16.1682796   1.7602776  22.9103050
  17.6544209   2.0472224  22.9047165  85.2067795  68.8335724  54.9722176
  85.4228973  69.6285324  54.4848099  84.2532501  68.8541565  55.0533714
  55.0667114   8.6999111  24.2249718  55.0646439   8.1052675  24.9750557
  54.5438614   9.4487391  24.5115337  31.6877003  52.5230865  73.2962723
  31.6616440  53.4256744  73.6138916  30.9932480  52.0780983  73.7820282
  75.5569382  16.0245113  47.6066170  75.8188324  15.1658030  47.9386749
  76.3800812  16.4490757  47.3649216  27.1736240   6.9904637  24.5068092
  26.5375137   6.7114081  25.1653881  26.7108402   6.9008417  23.6737251
  69.1694412  49.4483643  38.7773438  69.8575134  48.7870865  38.7031631
  69.0686264  49.7898331  37.8888245  41.4931488  31.8578472  85.9249725
  40.7565842  32.1869011  86.4401703  42.0061836  32.6382027  85.7150421
  73.6213150  10.4855852  63.4170609  73.8628845  11.3697720  63.1412201
  73.1261444  10.6139803  64.2261047  74.7395172  32.5401917  11.0431929
  74.0516586  33.1361122  10.7466040  74.6149597  32.4832001  11.9905415
  67.9607086  12.7878141  30.5389233  67.6936798  13.2148962  31.3528843
  68.3851852  11.9777670  30.8215446  64.4185562  58.2579002  34.5928116
  64.6882401  58.7776985  33.8356361  64.5393143  58.8432770  35.3404655
  46.6017151  62.3301773  21.8422623  45.9235344  61.7899971  22.2478619
  47.1661568  61.7047577  21.3878536  79.3579788  53.8717079  47.3931770
  79.1277847  54.6336174  47.9249039  79.6569366  53.2191696  48.0264587
  19.5949554  50.2630463  75.2826614  18.8488121  50.6252022  74.8048096
  19.4046650  50.4507141  76.2017899  83.2430801  49.9009209  49.0774765
  84.1523056  50.0804634  49.3168602  83.0164261  49.1130524  49.5715675
  74.7109451  28.9466152  51.2350235  73.7557678  28.9692535  51.2928696
  74.9925842  28.5710812  52.0692215   6.2876964  37.7064247  67.5886078
   5.6938190  37.6313629  68.3355408   7.1476493  37.8581200  67.9806519
  32.2851181  57.8036385   4.5993271  31.7435017  57.3757553   3.9361527
  31.6668587  58.3188171   5.1175709  15.9415913  15.1990871  25.6319695
  15.5972672  15.1351852  24.7411327  16.6807423  15.8030329  25.5603065
   5.1083326  18.9156246  70.8711777   4.4698315  18.8588963  70.1603088
   5.6600509  19.6624298  70.6385345  20.6940155   7.4286304  72.6723557
  19.7947521   7.4251966  72.3444138  21.2309113   7.5945263  71.8974686
  57.7433395  43.4093933  16.0393257  56.8476486  43.5014915  16.3641167
  57.8382149  42.4738693  15.8603706  51.4127884  52.1597328  87.7207565
  51.9673920  52.9241104  87.5646439  50.6850243  52.4948120  88.2445068
  10.2232437  42.2684441  77.9798508  10.5925608  41.8572273  77.1983490
   9.5373363  41.6654015  78.2663803  45.3049202   9.5405874  50.2067680
  44.5382042   8.9867125  50.3537292  44.9953537  10.4293613  50.3813553
  72.9645157  48.5770416  86.1109161  73.8539734  48.5247536  85.7611084
  73.0755005  48.9217300  86.9969711  12.9538469  55.2749062  36.7322197
  12.0245600  55.1896172  36.9452515  13.0629635  56.1974182  36.5013618
  82.5968704  44.2542839  66.0360794  82.1781769  43.4192772  65.8270569
  82.4623871  44.3605499  66.9778061  27.6236401  54.3113594  43.7318726
  27.6527271  53.8905449  44.5911179  27.1672401  55.1385765  43.8856354
  42.2154732   8.4718246  25.8814087  42.1443024   8.0077286  25.0472736
  41.3092766   8.6054564  26.1592255  55.1401405  56.2498817  12.3215780
  54.2888947  56.6710281  12.4409370  55.6615219  56.8948250  11.8436203
  61.0076637  37.5221558  73.2180328  60.3448601  38.2098808  73.2809067
  61.7980766  37.9168930  73.5863495  54.6146507   8.7328300   4.5999298
  53.8550072   8.9932518   5.1208482  54.8187523   7.8471680   4.9002237
   2.2524376  66.0984268  41.1921959   2.7238505  65.2689514  41.2694702
   1.5950167  65.9381180  40.5151939  45.1239243   8.1486368  78.5807953
  45.0247078   7.2075462  78.7247925  44.7468910   8.5516663  79.3628693
   4.3459358  55.4939232  86.3146362   4.7975764  54.6684151  86.1391678
   4.9511752  56.1683235  86.0062561  70.9345551  44.9647026  19.4755287
  70.2821274  45.4619446  19.9688091  71.7265625  45.0116043  20.0110168
  65.9589386  23.3566380  12.0383997  66.8161163  23.2241554  11.6335211
  65.3364410  23.0056114  11.4016037  85.5527878  15.8830347  71.3704910
  84.7789154  15.4925098  71.7764969  86.1700211  15.9981327  72.0929947
  82.8417816  52.8089371  55.5516510  82.6898651  52.3711967  54.7140732
  82.3494415  53.6272545  55.4869957  64.2230988  63.3414879  38.6022911
  64.2905197  63.8363724  37.7857285  63.9005928  63.9768295  39.2414818
  40.0623283  70.1662827  23.4149208  39.6430855  70.2405243  24.2722149
  39.8199272  70.9723511  22.9591465   3.5501566  31.8223686  43.6966934
   3.1262398  30.9935150  43.9192352   4.1199517  31.6091328  42.9577103
  32.6781693  64.9741669  40.9921417  32.7131004  64.2005920  41.5548019
  31.7572784  65.2351685  41.0006866  59.5905075  48.0138245   7.6358438
  59.0914001  47.3340530   8.0886507  58.9412689  48.6825333   7.4177961
  16.8202858  17.0299244  21.0972786  16.2645092  16.8642502  21.8587856
  16.3239155  16.6794147  20.3576889  84.6239014  50.5263252  40.9505997
  84.1703491  51.3666763  40.8847809  84.5945511  50.3106728  41.8827286
  75.0827637  21.7416401  69.8667450  75.9313126  21.9978848  69.5054398
  74.4513626  21.9814224  69.1884613  58.6100807  21.1853428  78.2139740
  59.1140823  21.5072594  77.4665909  59.1935005  20.5609417  78.6452179
  64.3921967  16.3682346  43.6960678  64.7639465  15.5394068  43.9978600
  64.2455673  16.8708496  44.4973869   0.4287927   2.0525022  84.7282333
  -0.4182741   1.7446305  85.0506058   0.2968459   2.9858239  84.5616989
  27.6493587  42.2591362  77.6009827  27.9466343  43.1603394  77.7262421
  26.8363361  42.2031441  78.1030731  34.4932480  10.6462183  41.3156357
  35.1464844  11.2889547  41.0392227  35.0042725   9.9408493  41.7125511
   9.6717367  58.9063110  74.9197693   9.1821680  58.0871086  74.8458328
  10.5741854  58.6321182  75.0829849  -0.1330436  71.5629654  23.5481071
   0.1994890  71.6516190  22.6549149   0.4980643  70.9894104  23.9828167
  58.3890991  64.5635147  53.8936462  58.0517998  63.8248138  53.3869095
  59.3252869  64.3851547  53.9829254  55.7249298   0.5870759  10.8794765
  55.8346748   1.5079086  10.6422958  55.0450630   0.5926795  11.5532589
  57.7705345  14.6902876  31.4135437  57.4106369  15.2712641  32.0837479
  58.6239281  14.4269953  31.7579746  83.5613861  61.9648933  81.5805435
  84.0630112  61.1522102  81.6449432  82.6522980  61.6964149  81.7136459
  35.2296753  31.2138920  88.5785980  35.3403854  30.2853451  88.7829895
  35.8219604  31.6640034  89.1809540   9.9809875  29.1541462  39.8208542
   9.5475035  29.8917027  39.3915138  10.9156837  29.3369408  39.7251434
  73.7211838  71.5275497  27.8114014  73.5871353  71.5603256  28.7586021
  73.3473053  70.6874542  27.5455208  31.6384792  64.4595108  53.9945335
  32.1096382  64.1778412  54.7786903  31.3945904  65.3673859  54.1748161
  65.4917755  21.4835777  32.5488014  66.1177979  21.5094433  33.2724419
  65.5797348  20.6015930  32.1874161  12.4756069  12.9512539  10.5560703
  12.7374191  12.3078051  11.2145977  11.6555958  13.3153057  10.8896589
  30.8505859   1.5088919  23.0803356  31.5874405   1.0497844  22.6772251
  30.7095566   1.0532346  23.9102268  83.1617050  67.0665131  41.2121658
  83.3741608  67.9491806  41.5154724  83.6342468  66.4875183  41.8102493
  37.3019524  21.1490803   5.2468414  38.1956139  20.8355808   5.3858490
  37.0323563  21.4900150   6.0996675  41.2463989  23.0224648  10.4986830
  41.2451057  22.0653973  10.4828196  42.1262856  23.2559128  10.7945518
  71.0391541  44.0768776  41.7573738  70.1281891  44.3657188  41.8116913
  71.5492172  44.8863335  41.7865143  29.3752880  53.1800194  16.8323212
  29.5078392  52.3490715  16.3760471  29.8083267  53.8293114  16.2781239
  76.0091095   2.3568816  73.9324799  76.1950836   3.2137566  74.3164215
  76.8551102   1.9091610  73.9247894  45.4558563   4.7767754  61.2146149
  45.8569565   5.4814301  61.7233467  46.0264130   4.6768169  60.4525719
  62.3218079  71.5470886  51.2625961  62.3124237  71.6614075  52.2128983
  61.5095749  71.0788116  51.0696564  71.8277740  60.2031403  25.7794781
  72.1242142  60.7304001  25.0376225  71.6061020  59.3543015  25.3966408
  52.1591949  64.9935150  41.2661552  51.7913704  64.1835251  40.9127922
  51.4860535  65.6539078  41.1018639  30.9318886  46.7029266  12.4159174
  30.3044052  47.0074615  11.7603617  30.9409256  45.7511215  12.3148298
   2.5410779  56.4959183  62.3971367   2.9833016  57.3326187  62.5406609
   2.1072137  56.5965614  61.5498657  44.9856567  68.9848022   5.2331257
  44.2244415  68.4212189   5.3715200  44.7606773  69.5062485   4.4625998
  62.6096497  31.5569286  86.0054855  62.6557541  31.6029377  85.0504990
  62.7630310  32.4559021  86.2962646  28.1621799  52.8303757  69.3836212
  28.7931061  52.1125679  69.3296280  28.7012138  53.6197662  69.4340286
   1.8380369  46.0908279  80.2365189   1.8229580  45.1959038  79.8972321
   0.9449419  46.4105721  80.1085434  62.1647415  12.1852388  50.4829025
  61.3913689  11.6422434  50.6354904  62.1596642  12.8168077  51.2021561
  28.6964378  68.2113724  55.5639877  27.9356327  68.5535965  55.0946388
  28.4904747  68.3511810  56.4882545   7.7056327  42.1600380  19.5074196
   8.6459560  42.0841560  19.6694889   7.3009157  41.9770813  20.3553352
  48.0194893  16.9702663   3.9161923  48.2035484  17.8118248   4.3334837
  48.1134949  16.3283138   4.6199622  80.7438431   3.0437078  57.4746628
  80.9810715   3.8871367  57.8601227  79.9079056   3.2066848  57.0377617
  59.0522919  31.2533665  57.3647690  59.8584328  31.5300541  57.8004456
  58.4373207  31.0903912  58.0799446  43.2188835  58.1616783  70.2922974
  42.3307457  57.8161850  70.3821640  43.7772827  57.4929428  70.6888046
  65.4128265  70.7514801  86.6503296  64.8383331  70.0660782  86.9915314
  64.8205795  71.3681717  86.2200165  51.4678268  51.9306679  68.0503540
  52.1961517  52.3261299  68.5292969  51.6698227  50.9951210  68.0369720
  30.3510094  60.9094696  16.0779495  31.2537537  61.1784973  16.2479725
  30.1213589  60.3561096  16.8244648   4.9171801  30.7052040  18.5436344
   4.1374288  30.2168102  18.8076267   4.6552491  31.6240520  18.6014309
  22.0409832  69.7495804  56.1075020  21.4240685  69.0225220  56.0236549
  22.7005997  69.5828705  55.4341927  50.8065376  48.2385788  79.2603073
  50.6915588  48.6580276  78.4076157  51.4841003  48.7578926  79.6932678
  52.7340927  67.1249084  35.4878845  53.1477432  67.4685669  36.2797318
  52.3740997  66.2787323  35.7536545  84.0149078   0.5546599   1.3939459
  84.2412796   1.2015579   2.0621605  83.9990540   1.0510485   0.5756678
   1.2992735  53.0142021  25.0087585   0.8216562  53.2058487  25.8158436
   1.0103904  53.6883278  24.3936691  36.8718071   3.9530730  59.6555672
  35.9706383   3.6605830  59.5192871  37.1527519   3.5006990  60.4509697
  59.6473846  48.3748665  65.3221664  60.2283783  48.3462791  64.5619965
  59.9767799  49.1036415  65.8481140  23.4950943   8.8549128  83.9557953
  23.5843029   9.6578703  83.4424438  23.0206928   9.1248236  84.7421265
  32.8923454  23.3901367   6.3498931  31.9685040  23.1901321   6.5007067
  33.3313370  22.5405903   6.3922124  30.4914837  66.8358841  65.1840897
  29.5887909  67.0854492  65.3818130  30.5816212  65.9550934  65.5478516
  25.8244057  49.4999924  25.5637798  25.8805637  49.3864822  24.6149940
  25.1958408  48.8362389  25.8476219  62.4991379  47.0600204   6.7518015
  63.3430710  46.9847641   6.3064446  62.3714409  48.0018311   6.8654542
  73.7319565  64.6911240   3.5933118  74.6619797  64.6437836   3.3718398
  73.3951645  63.8159561   3.4012673  42.9099655  62.2237625  67.6496964
  43.3428001  61.4684563  68.0476837  42.3345718  62.5596924  68.3369370
  77.5728989  46.7249947   7.4067574  77.6571426  46.2485466   6.5808449
  76.7285919  47.1711273   7.3408661  30.8668327  61.9348450  74.4797363
  30.6640549  62.5043907  73.7376251  30.8969059  62.5246048  75.2330704
  35.4810562  22.6681042  16.8248425  36.1740417  23.2431602  16.5003223
  35.9295807  21.8503075  17.0399361  33.8502121  36.8610802  84.3177719
  33.6156578  37.0165024  83.4028625  33.4140091  37.5638199  84.7995605
  70.8697128   2.2197950  51.0642014  71.1662827   3.0441551  50.6785736
  70.0186615   2.0574932  50.6572609  74.7155762  47.8966675  60.0937424
  74.0724792  47.5050964  60.6847839  75.5623779  47.6202164  60.4440842
  23.4339142  54.3712044   5.0763006  23.0305252  54.3727379   4.2082524
  22.9588661  53.6954689   5.5599771  55.3725853  19.0016155  69.8014679
  56.0049515  19.0477371  70.5185547  55.7921104  19.4726658  69.0815048
  71.0545197  37.9893875  87.6337585  71.5781250  38.5535240  88.2028122
  70.9438477  37.1809464  88.1341705  40.5100899  70.9559021  83.8239365
  41.3975639  71.2082291  83.5690765  40.2360497  70.3320923  83.1516266
  18.0657234  45.7202415  66.6319199  17.2593670  46.2344551  66.6719437
  18.7037182  46.3065109  66.2251282  13.9871607  23.9875355  30.9981995
  13.9374847  23.2367992  31.5899429  14.9000769  24.0061531  30.7110252
  41.3275108  54.8723984  79.9528198  41.2022629  54.8736763  79.0038528
  41.8253937  54.0737839  80.1276245  52.4543076  63.2978210  60.6357002
  51.5520973  63.5286789  60.4144478  52.5470428  62.3900566  60.3465729
  85.7781525  57.1225929  51.9848595  86.0228577  56.6520691  51.1880188
  86.1306381  58.0037956  51.8604813  16.1823769  35.4580879  20.6003304
  16.4455643  35.1662674  19.7275162  15.2268410  35.4020882  20.5935936
  32.9889908  63.6014137  56.4327927  33.1244240  62.6714172  56.6144447
  33.8602524  63.9321175  56.2142296  13.8999567  30.5130997  34.6291695
  14.5837555  30.8945847  34.0786057  13.0935535  30.9399643  34.3398018
  67.7540665  48.5898438  13.6848612  67.9645233  48.9478607  12.8224459
  67.8692474  49.3268013  14.2847433  78.2682114  62.1256104  35.3439217
  79.0680542  61.9817467  35.8496628  78.2136154  61.3680038  34.7614403
  51.0328026   1.4374808  20.3981953  50.4399643   1.3382777  21.1431351
  50.4973907   1.2193885  19.6353054   3.2089059  49.4468002  63.1751747
   3.3100703  50.3538704  62.8866920   4.0315642  49.2439308  63.6204948
  38.9379997   0.8993933  22.4937572  38.4400330   1.2266088  23.2428818
  38.2736130   0.6922837  21.8365440  44.9777336  26.6425819  73.4315109
  44.5347710  25.8069229  73.5787964  44.2698555  27.2859249  73.3961639
  69.9344330  54.4441032   8.1152716  69.1164093  53.9519081   8.0458508
  70.2826385  54.2098465   8.9755669  34.1054153  71.9031830  17.3373108
  34.2952042  71.3888321  18.1219444  34.6548233  71.5138550  16.6570129
  49.9150009  58.6378555  41.8949280  49.0784187  58.5007553  42.3394127
  50.3524895  57.7876968  41.9403191  73.8501587  70.8053360  76.9539261
  74.3715820  70.0250397  77.1423035  74.1737823  71.1108093  76.1064682
  61.4632034  31.0246944  77.2082367  60.9159508  30.9991856  76.4233170
  61.1105042  31.7508068  77.7226257  77.6601944  60.1855354  41.4998360
  77.2750778  61.0511436  41.6363525  76.9586029  59.6715889  41.1000099
  24.4492455  54.1146240  19.6592712  25.1585255  53.7473259  19.1317825
  24.8346920  54.2372246  20.5268154   9.9868469  58.9277077  42.9964447
  10.6541834  58.7420921  42.3358078  10.4384604  59.4623756  43.6494446
  32.2905426  67.7419739  58.0131073  32.5906868  67.4215698  58.8636894
  33.0759964  67.7409592  57.4660301  63.5350189  25.4958038  69.0820389
  64.2854767  25.6068439  68.4983368  63.1424370  26.3671360  69.1358337
  64.9927597  66.3585052  87.2431564  65.0564651  65.4121857  87.3721695
  65.7155304  66.7194214  87.7565613   6.6604872  68.6312103  81.9180756
   7.0583382  67.8361511  82.2727890   6.0229273  68.8963013  82.5810089
  28.0461464  45.5423698   1.1777400  28.7863750  45.1758347   0.6940637
  28.3981419  45.7307091   2.0477161  76.3719559  52.6189995  77.7975769
  76.5452957  53.3817940  77.2459183  77.1208878  52.5783539  78.3922806
   4.3940082  28.2954807   8.9286890   5.2158761  27.8896999   8.6528149
   3.7746031  28.0799332   8.2314739  73.0202713  67.2350693  10.1364594
  72.7220917  66.9795151  11.0093927  73.9641876  67.3611679  10.2331676
  11.3201532  61.7992897  70.9598236  11.7867327  62.3962631  70.3748779
  10.4085140  62.0882912  70.9195328  43.3805428   3.7639999  10.7768793
  42.9122849   4.3382468  11.3828545  44.1242256   4.2870445  10.4775562
  15.2234735  15.0742407  11.6953726  14.5344706  15.3082304  11.0734758
  14.8155060  15.1779785  12.5550423  68.1297302  55.7623787  77.8413391
  68.4713593  55.9376945  78.7181473  68.7828903  55.1891975  77.4399872
  34.8282089  52.4149284  24.6583443  34.4901505  51.8002472  24.0071011
  35.7510948  52.1794472  24.7535686  64.5734787  54.2570114  45.3234520
  64.6616974  53.3241005  45.5186996  63.9282074  54.5740013  45.9554138
  59.1841469  17.0527897  20.3683567  58.8178101  16.4160690  19.7546673
  59.5598755  16.5206795  21.0697269  47.9289055  27.6266556   7.6030307
  48.1287079  28.3857479   8.1508350  48.1030693  27.9233932   6.7098088
  80.3908768  34.5027618   5.7118049  80.5037003  33.5598564   5.8319263
  81.0073700  34.8981819   6.3280969  56.8268929  40.0659714  34.2745934
  57.0492325  39.6262474  33.4539604  56.2214813  39.4666481  34.7110786
  75.7063446  68.7555008  85.1278534  75.7554169  68.3133698  84.2802963
  75.5437851  68.0517883  85.7560272  79.3823853  24.5844803  38.2221298
  78.5508652  24.4530907  37.7665596  79.5858002  23.7292042  38.6007538
   6.2245121  47.1226349   4.4956565   7.1653919  47.2716751   4.4020433
   5.8288841  47.9785614   4.3310328  20.9634857  49.4663162  13.2248116
  21.3012428  48.5813560  13.3626394  20.3379002  49.5975838  13.9373016
  84.6354752   4.5078092  18.1718349  85.3306732   4.2919416  17.5502739
  85.0100784   4.3068504  19.0294590   5.4884272  55.9937439  72.7175522
   5.4290404  56.9490967  72.7207260   6.0443282  55.7908325  71.9651947
  68.0765152   6.4764252   8.2371149  67.6617432   7.2689328   7.8963466
  67.3967438   6.0587802   8.7659979  53.8342476  54.0248985  74.2946243
  53.5031319  54.8674431  74.6056213  53.6684036  53.4205551  75.0181580
  47.7980194  30.9607944   1.9281477  47.4258118  30.4040928   2.6120887
  47.4854927  31.8406219   2.1390097  26.1617012  18.1951103  66.4655762
  27.0775051  18.0022163  66.2647552  25.6634178  17.5909481  65.9151840
  64.2528381  33.5872841  27.1350613  63.4117126  33.3464508  26.7468204
  64.7007980  34.0814705  26.4485130  74.3542557  55.4018517  80.5747452
  75.2482758  55.5345306  80.2595444  74.0061493  54.7032394  80.0206757
  81.5869370   5.0796185  69.7609329  80.7042084   4.9046478  69.4347305
  81.6972504   6.0248766  69.6582184  13.1120911  66.8260040  52.2751617
  12.3282566  66.4755173  51.8520851  13.6329012  66.0528870  52.4926071
  65.0913773  29.1190090  38.2395172  65.4436188  28.6565437  37.4790688
  65.6684647  28.8682060  38.9608345  71.3756332  20.0602741  89.2723923
  70.8444748  20.1542587  88.4816513  72.2048721  20.4866123  89.0559769
  82.0248413  28.8699112  34.2546005  82.7537842  29.4034843  33.9381104
  81.2476425  29.4032879  34.0881500   7.8055282  43.8144379  88.3396301
   7.3574443  43.6621628  89.1716537   8.4989491  44.4392204  88.5518646
  13.5431862  50.1853981  62.0199738  13.8826513  49.2923431  61.9612579
  12.7445955  50.1732445  61.4923973   8.1403923   7.6748085  18.8578072
   7.3456678   7.8730831  19.3531170   8.5454960   8.5281887  18.7033215
  84.7995758  17.2879314   7.8335104  85.3825912  16.5361099   7.7282062
  84.6385193  17.5930347   6.9406481  12.2913818   1.2361256  14.1943111
  13.1736546   0.8649327  14.2009258  11.9549065   1.0696943  15.0748320
  82.3920898  51.8826866  74.3495865  82.0705948  52.5912514  73.7920837
  81.6994629  51.7548752  74.9977875  25.8986797  31.9445763  13.1472588
  26.4844837  31.2446804  12.8587980  25.0210266  31.5715275  13.0648375
  45.3888130  63.2717323  81.0106506  45.5704117  62.3520508  81.2041473
  44.8567619  63.2486191  80.2152786  42.1787910  15.7185707   2.6053078
  42.9674187  15.4244356   2.1494730  41.5391617  15.8635340   1.9081073
  59.9379730  30.8193417  60.5909805  59.9742126  30.9915867  61.5318565
  59.0038757  30.7390327  60.3979950  31.1272335   9.1496887  72.9953079
  30.4225883   9.1997995  73.6412125  31.6746578   8.4234705  73.2939072
  42.6605530  65.1136017  57.2873726  42.6815453  64.1630249  57.3978004
  43.3440666  65.4379959  57.8737259  64.4992828  47.9130173  54.2027473
  65.1891556  48.4565468  53.8221054  64.2339478  47.3299141  53.4915390
  66.8470383  32.5513306  56.5612106  66.0708237  32.3798523  56.0279922
  67.2303467  33.3409042  56.1792679  16.3102303  49.2766075  35.3378105
  15.6876822  49.9588242  35.0863228  15.8407688  48.7509079  35.9854851
  30.2563267  56.4694977  67.7892227  30.9660473  56.7176704  68.3816223
  30.3533535  55.5232391  67.6823959  66.0511932   1.2936107  44.5751419
  66.0381393   0.3553002  44.7639122  66.7539673   1.6389244  45.1256828
  71.5233078  27.8952885   2.2979965  71.1501465  27.0511723   2.5518715
  70.7649231  28.4684715   2.1860163  71.5479736  56.5346565  51.7961121
  70.6505203  56.8624954  51.8538589  71.4599380  55.5835075  51.8577347
  55.1768532  63.1882362  34.4298210  54.7368507  63.7362595  33.7799759
  55.7719765  62.6405869  33.9178238  37.7345467   1.5818880  27.8131351
  38.5800705   1.3033046  28.1648636  37.1647263   0.8215315  27.9288807
  66.0010452  21.3337898  28.8205185  66.3090210  20.5860081  29.3325768
  65.9086914  20.9930820  27.9307880  17.8673935  65.6541824  59.6275673
  18.0248909  66.5258179  59.2646980  16.9147758  65.5608139  59.6216240
  81.9182739  20.1478558  45.1297188  81.7738342  19.2675343  45.4767113
  81.7853775  20.7261448  45.8808212  26.3222237  37.6568146  86.6116333
  26.0066223  38.2810936  87.2650146  26.9904537  37.1474724  87.0701904
  79.2481842  24.3710823  67.9977036  78.9613342  25.2589836  67.7842102
  79.7784195  24.4741840  68.7879333  79.1487732  58.8541298  77.4796982
  78.7961197  58.3342285  76.7574997  78.3756485  59.1679001  77.9487915
   7.6073809  21.8775120  23.5075150   8.3511400  21.2790260  23.4377384
   7.5052428  22.0240097  24.4479084   8.7400074  52.0786362  37.5877991
   8.4454412  52.0237694  38.4968948   7.9797888  51.8080177  37.0729523
  65.0545273  30.0411263   8.8334999  65.1093979  29.2366581   8.3176966
  64.6934357  29.7620068   9.6748886  75.9097900   5.4596772   0.3368800
  76.4732742   4.6958013   0.2135593  76.4855118   6.2090759   0.1846533
  13.9481630  44.9098663  13.0562658  14.7006769  45.2202187  12.5526419
  13.7646360  44.0400810  12.7012672  65.1969376  28.2467136  20.7141323
  65.7094650  28.1968746  21.5210152  65.3784866  29.1207409  20.3686657
  54.5574837  50.9123878  68.7083817  54.3529663  50.0955009  69.1634674
  55.4004135  50.7467842  68.2861557  57.2989082   1.7572880   8.5529814
  57.4929962   1.0469761   7.9414101  57.9778976   1.6877637   9.2240820
  72.6143265  35.5257454   0.2241917  73.1589203  36.1565094  -0.2467500
  73.0802078  35.3739777   1.0464764  31.0040951  14.3392839  10.4204435
  31.6174946  15.0636950  10.5437422  30.4818993  14.3284492  11.2225828
  27.1705017  62.2763901  12.8211060  26.3078232  62.6357193  13.0282288
  27.0551033  61.8511276  11.9713612  50.0846405  15.0907221  63.4897194
  50.9287643  15.2274828  63.0596237  49.7273254  14.3069563  63.0722656
  67.1627426  58.5691986  87.2174683  66.6059723  58.1540565  86.5587540
  67.8282547  57.9110298  87.4177933  37.2547302  61.6613884  66.1218948
  37.3205795  60.8138084  65.6820068  37.8423691  62.2336159  65.6284714
  16.4625435   2.9173379  12.4275398  16.3217468   3.2233565  13.3235092
  15.8212709   3.4000545  11.9060163  72.4753494  45.6262779  66.5781555
  72.6240692  45.5018387  67.5155106  73.2391739  46.1187935  66.2777634
  51.5833092   1.2189903  44.7172127  51.8216362   1.9862126  44.1968269
  52.1411095   0.5180771  44.3798561  67.1963806   6.5508690   1.4432154
  66.9248657   6.7581420   0.5490414  67.4775467   7.3896885   1.8086740
  44.2711868  26.0527020  17.0024166  43.9960670  25.8526993  17.8971443
  43.4668427  26.3225002  16.5591621  25.8292027  71.2047806  66.7855530
  25.6578579  70.5905914  66.0716629  26.6864529  71.5777664  66.5800400
  85.6516800  67.3053589  87.9514313  86.3271561  67.9835663  87.9496689
  86.0201950  66.6016846  88.4855347  12.8795681  42.6614761  32.7855263
  13.3674803  41.8811607  33.0487366  13.2035532  42.8616371  31.9073467
  46.6664276  64.9629974  14.9283676  46.7019501  65.8391647  15.3121624
  46.5514679  65.1167679  13.9906197  39.1327438  57.7929802  52.3797874
  39.3107643  56.9327354  52.7599411  38.4050102  58.1376038  52.8973465
  70.1034088  53.6661987  31.4910851  70.9482803  53.6466064  31.9405689
  69.9083328  52.7472153  31.3076477  21.9261303   0.4853228  81.7973404
  22.5191765   0.0933451  81.1563416  21.3665619  -0.2381348  82.0796967
  37.6312714  71.3904190  42.8427467  37.2396545  71.4273224  41.9701004
  38.4466858  71.8849411  42.7604408  16.2497044  31.6579380  73.8234940
  15.9576988  32.2052155  73.0944901  16.9693775  31.1409149  73.4615707
  21.7263184  26.8990726  13.8775711  21.3499870  26.3046093  14.5265846
  22.6623726  26.9102650  14.0773497  43.4330330  19.3140163  16.3565521
  43.4976692  20.0691910  15.7719479  43.6622810  19.6588745  17.2195415
  65.5395279  15.4681168  13.0963192  65.6046753  15.9039001  12.2465668
  65.2353134  16.1516724  13.6933451  31.6262493   7.8400450   5.6710157
  32.3413124   7.3056097   5.3256273  31.5500736   7.5747666   6.5875616
  49.9375420  10.3923435  10.5750370  49.1222725  10.8939075  10.5737867
  49.7996712   9.7127924  11.2349110  20.3030453  47.2444115   7.3516431
  19.9289284  47.7434845   6.6255608  19.6780128  47.3581543   8.0676241
   8.7381849  46.6706734  30.3558769   9.6267748  46.8157692  30.0309334
   8.3458319  47.5434799  30.3782196   8.5923281  26.3628368  81.0725403
   8.5505409  25.4931717  80.6748352   9.3220472  26.3091736  81.6896820
  46.3185081  20.6369629  11.2149782  45.8003006  20.3132572  10.4781551
  45.6848488  21.0860214  11.7744932  42.7272720  11.0063381   9.4499941
  42.8123856  10.1722775   9.9118710  41.8573647  11.3254318   9.6901541
  14.7879839  49.5003357  11.2875681  15.3910494  49.0283051  11.8617907
  15.1472025  49.3762474  10.4090481   4.0145125  61.1611633  15.6685324
   3.4023025  61.8872795  15.7876272   3.9994814  60.9871140  14.7274084
  63.6442719  13.5676012  39.4823418  63.6691589  12.8273096  38.8760567
  63.1137733  14.2264175  39.0342751  16.7100353  53.4683342  21.1369152
  17.6519108  53.5394249  20.9818363  16.6224937  52.7371025  21.7483654
  13.5026369  21.5081425  56.5950050  13.1569176  20.7280159  57.0287247
  12.9232264  21.6417580  55.8448944  84.6970291  46.7760887  22.0392609
  83.7400894  46.7784615  22.0612984  84.9572754  46.6444969  22.9509563
   3.5882933  16.2254829  83.3324890   3.9904952  16.1440144  82.4677200
   4.1878476  15.7652426  83.9198074   0.4769407  55.4483833  39.5040703
   1.1137252  55.0935364  40.1244125  -0.2058057  54.7794647  39.4527092
  78.6146698  44.9786797  21.8222866  79.1042786  44.2994080  21.3584919
  78.1648407  44.5113449  22.5261917  27.5875511  62.0410500  65.7848740
  27.1215515  62.7739754  66.1872406  27.6269875  62.2639160  64.8548126
  23.1176224  33.2659569  14.6128359  23.6360855  33.1287460  13.8199930
  22.2317352  32.9975357  14.3691454  86.4259262  39.2506065  75.5700226
  86.5247269  39.5121880  74.6545792  85.7177277  38.6067238  75.5600433
  57.3022919  34.3558960  74.2853775  57.3742485  35.0429001  73.6227493
  56.6773300  33.7317734  73.9164200   1.6499112  25.9266224  14.2417889
   1.4568331  25.4419174  15.0442944   0.7925937  26.1978893  13.9136848
  20.0914421  71.1939697  32.9402695  20.3580551  70.5367737  32.2974319
  20.4174862  72.0213699  32.5862465  23.5277615  68.4982681  34.7900925
  23.2959080  67.8279343  35.4328461  23.8454590  69.2332764  35.3145523
   3.6535842  55.6776505  31.0904980   4.1088319  55.9240189  30.2853355
   4.3548298  55.4756927  31.7099323   9.8419867  19.2472324  76.9052658
  10.4786463  18.5327854  76.8838272   9.7715769  19.5327206  75.9943542
   8.7429514  71.4265442  19.9894695   8.6290464  70.9693222  20.8226566
   8.0433931  71.0860977  19.4318447  33.9904861  64.5644150  21.6263409
  33.7546310  64.5240631  22.5531521  33.6200294  65.3924332  21.3207569
  55.0387726  57.7594681  27.4265556  54.4397736  57.8224144  26.6826000
  54.4669151  57.6435165  28.1853447   7.9728684  70.9616699  79.2755432
   7.6132913  70.0840149  79.1464691   8.8858833  70.8897552  78.9972229
   2.7430251  31.9379845  70.2926102   3.3663735  32.5374565  69.8823700
   3.2706592  31.1808891  70.5468597  72.4868698  43.0144119  10.0417118
  71.9139099  43.5853310   9.5298500  73.3247070  43.0392952   9.5795088
  14.9987926   9.3583136  16.7267818  15.7831640   9.8893795  16.8644848
  15.1696644   8.5492334  17.2088852  29.5936451   0.6778432  75.5392075
  29.9060669  -0.2269108  75.5325623  28.6696320   0.6139390  75.2976532
  72.0023804  30.8011742  36.9816666  71.6348648  30.0241489  37.4028473
  72.1643372  31.4101677  37.7021713  13.8370190  42.5485725  30.1224651
  13.8616533  43.0118179  29.2851925  13.5596924  41.6606407  29.8968506
  62.0104065  71.3229752  24.0970573  61.3275337  71.9774246  23.9500313
  61.5500412  70.4844818  24.0622215  16.3126869  70.8126907   2.5854261
  16.0961514  71.5599518   3.1430442  15.6709576  70.8492126   1.8761427
  16.1405602  36.2277489  73.2862701  15.6702347  36.2493935  74.1196747
  17.0653992  36.2302742  73.5330429  24.6983223  46.2619476  66.3457413
  24.0817776  45.7125587  65.8617249  24.5509434  47.1444092  66.0054932
  34.6769295  16.5692997  18.3942146  34.3822670  15.6585922  18.3899384
  35.5975227  16.5219650  18.6520977  73.5033951  12.6116638  61.8995514
  72.5884476  12.8071423  61.6973228  73.7951050  13.3530617  62.4300842
  64.6023636  53.6320114  11.2363949  63.7533379  53.9504776  11.5429392
  64.7655334  54.1225624  10.4308100  69.1884842  63.4709587  16.5612221
  68.5433807  63.9366684  16.0290642  69.8237534  64.1424942  16.8096161
   0.5906010  47.5615616  48.3893280   0.0534981  48.3122139  48.6428490
   0.8981884  47.1960831  49.2188148  36.9740219  60.7959824  73.5996628
  36.4621010  60.0953598  74.0037613  37.8445854  60.4170456  73.4781799
  20.9173603  57.0562210  36.1308975  21.3238888  56.6199417  36.8796463
  20.2494030  56.4407730  35.8287621  61.7327843   9.7341547  82.8136139
  62.5814819   9.5329733  83.2079163  61.9097176   9.7784452  81.8739548
  39.5101738  57.9916725  44.5121422  39.7137527  58.3062401  45.3929558
  39.1174774  57.1297607  44.6504402  48.2283287  13.3456831   2.6119730
  47.3532066  13.0218973   2.8254030  48.8132057  12.8516893   3.1865368
  61.7042465  20.6679363  88.2384338  62.1401711  19.9108677  87.8472214
  62.3836098  21.3410339  88.2788925  22.0831604  64.2991638   3.9997358
  21.7839375  64.5784225   3.1344550  23.0113087  64.0986633   3.8790190
  64.4963226  12.3885698  19.0220203  63.8561974  12.4787645  18.3160896
  65.2812500  12.0495358  18.5917053  63.5932617   5.6031365  55.4510841
  63.7434654   5.6361308  54.5063210  64.4583588   5.4367948  55.8254776
  64.1409454  25.2009583  84.7962341  63.6074104  24.5338821  85.2281799
  63.5189743  25.8891106  84.5599594  68.2057266  65.4765625  35.9261971
  67.6743546  64.7618866  35.5753326  68.1587524  66.1603317  35.2579994
  48.3494987  48.2317467  14.2750826  48.6493454  48.6422234  15.0861511
  47.8724594  48.9244995  13.8181791  41.2252808  55.5491982  26.0633984
  41.4751053  55.8200722  25.1799698  41.0622902  54.6089554  25.9885235
  81.2041779  52.4762154  34.3685951  81.7459183  51.7134399  34.1663170
  80.4558487  52.1185722  34.8464432  31.6220627  66.1189728   6.7514715
  32.2300110  66.7267532   6.3304787  31.0457134  66.6786957   7.2718177
  23.6476555   5.1990581  13.5780535  24.3287163   4.6115208  13.2506590
  24.1035690   5.7765937  14.1902847  12.7801867  26.7226868  31.3972664
  13.3121176  25.9609089  31.6274300  12.1076622  26.3767529  30.8105183
  22.1560059   6.8099313  82.5400543  22.7853031   7.5114279  82.7077484
  21.9159431   6.4905429  83.4098816  51.7059784  50.8870316  81.8329926
  51.3221245  50.5683174  82.6498795  51.1035576  51.5686874  81.5352097
  37.1283951  56.0282631  81.0253830  37.8180161  55.9077644  81.6781769
  37.4078865  55.4958382  80.2806396  37.1239090   3.7063882  64.1810608
  37.6092682   4.5307002  64.2152328  37.4300880   3.2811921  63.3800011
  79.8731155  57.1903572   2.8432596  80.4016190  56.6185226   3.3999674
  79.2911606  56.5943604   2.3717239  75.9413757  59.1779671  87.5252762
  76.6445084  59.8035011  87.7000427  75.3432236  59.6464806  86.9430923
  37.4599380  36.7502975  19.0604420  36.7038193  36.6678047  19.6415691
  37.9904709  37.4427376  19.4545193  69.2080841  56.7497063  87.3947296
  69.9442139  56.6275063  87.9942474  68.8697281  55.8664513  87.2477417
  57.6166573  56.9322548  17.3424187  57.1754112  57.7360497  17.6170979
  57.2710419  56.2575798  17.9268799   9.6771584   5.3905544  23.6879921
   9.3889809   4.4818945  23.6012573  10.1846094   5.5577354  22.8937778
  86.2252579  30.0022087  50.7498627  86.4780731  29.2368793  51.2661819
  85.3142624  30.1655827  50.9940681   4.6238766  17.3002262  50.7352219
   5.5439677  17.2827930  50.4718590   4.2080479  17.8974857  50.1134491
  30.3424892  68.6737976  62.2085800  30.7648926  69.2958832  62.8008804
  30.9889030  68.5229874  61.5189133  60.8965263  42.0219955  13.5979013
  60.0260582  41.6586342  13.4351673  61.4997559  41.3374443  13.3085308
  14.8687410  65.5853500   0.3783755  15.6572456  65.9699783  -0.0044482
  14.9305506  65.7910080   1.3111765  47.9975052  61.5911674  14.4816370
  48.2771759  62.3733368  14.0060053  48.5479584  60.8896370  14.1336555
  87.0021515   8.8669853  14.9720173  86.8223038   9.7826633  15.1851368
  86.1404495   8.4874353  14.7998486  55.5012321  11.7966785   5.2653804
  54.5494881  11.7209911   5.1969328  55.7010536  11.5078068   6.1558056
  10.5919485  47.0556183  50.8548317   9.7577286  46.6141434  50.6954231
  10.5471458  47.3287201  51.7711487   5.6706200  59.1608124  36.1475105
   5.2379546  58.3155441  36.0268631   4.9710803  59.7497292  36.4304504
  78.8484802  12.9342680  22.3644485  78.0636368  13.0163202  21.8226662
  79.5047989  13.4690752  21.9178448  40.2008400  62.5014801  88.2947388
  40.6497345  61.6712875  88.1350250  40.4472694  62.7389030  89.1886826
  29.1257954   9.9898481  87.0342102  30.0127316  10.0988531  87.3772812
  28.8713760  10.8662043  86.7452469  25.8539505   1.3989451  73.1984100
  26.1523590   0.5836857  73.6015625  25.2470608   1.7736889  73.8367538
   6.2670188  20.7194462  80.3296967   6.8881669  21.4142170  80.5481033
   5.4724936  21.1830101  80.0649872  43.6082687  23.7849827  11.6294270
  43.4979095  24.6895638  11.9223194  44.5019836  23.7510204  11.2883234
   3.3820007  22.5472736   0.8535875   3.3734272  23.4101696   0.4393774
   2.6236885  22.0960140   0.4826964  74.0510406  65.3358536  19.9010315
  73.8133545  65.8488464  19.1286469  74.9437866  65.6129074  20.1071301
  72.8284302  53.4979935  75.9044037  72.7398453  54.2546577  75.3248901
  72.3260727  53.7335663  76.6843872  60.4337311  21.3138657  76.0476913
  59.7605400  21.1619701  75.3843842  61.2076569  21.5742722  75.5482330
  42.1019669   8.9357128  54.8061562  42.0428581   9.5952806  55.4973221
  42.5675926   9.3753595  54.0947266  13.1454191  52.4770203  51.2929916
  12.8301563  52.1177177  50.4636879  13.0518274  51.7571602  51.9169083
  44.9544983  31.2543507  77.7056961  44.4868469  31.9028645  77.1794205
  45.8713036  31.5258770  77.6612320  10.0296745  60.4758759   9.9239712
   9.7692356  59.9345284   9.1787558  10.7594910  60.0009727  10.3215437
   9.9707289  51.8226585  70.2803116  10.3199320  51.7366829  71.1673889
   9.3964834  51.0641975  70.1744156  86.2671432  32.4973030   2.1526513
  86.0473328  31.5816708   1.9807986  87.0819397  32.4580841   2.6534517
  60.8749046  34.3708839  28.7161407  60.1872826  33.7049942  28.7160816
  60.9402809  34.6477470  27.8021908  65.2457657  65.1228485  10.9543772
  65.4950562  66.0372086  10.8200645  65.8444519  64.8083954  11.6318178
  16.4884415   8.8114405  57.1280594  17.0578270   8.9658508  56.3742790
  17.0015831   8.2443304  57.7036514  44.8555450  42.6817627  88.5913773
  44.1827850  43.3626633  88.5918503  44.8228569  42.3121567  89.4737396
  73.1171570  63.8525162  28.3909588  74.0668869  63.7351532  28.4126911
  72.8333969  63.6757240  29.2878723  78.7348633  11.8261032  37.8854523
  78.2371750  11.1370802  38.3256683  79.0479202  11.4172096  37.0785866
  64.6732864  42.4312401  11.9591331  63.9588432  42.6229362  12.5666294
  64.4201431  42.8684006  11.1460896  75.8617401  32.0882454  71.6993637
  75.9558258  32.9187965  72.1658020  75.4776840  32.3291626  70.8563385
  41.8380661  69.8280106  59.4607735  42.0284805  70.6539841  59.9054565
  41.8046608  70.0580521  58.5322304  47.6408539  23.4130898  15.1304560
  47.4734879  24.0553246  15.8202047  48.3823586  22.9016399  15.4542179
  15.5245094  54.8059921  56.8770943  14.5775690  54.9337959  56.8204956
  15.7895918  54.5812492  55.9852142   0.9924783  50.1894531   1.5179777
   1.6948985  50.6994629   1.1145855   0.5530403  49.7631721   0.7821720
  82.8687134  58.5478439  53.9808846  82.1927185  58.7999916  54.6099205
  83.4134598  59.3294830  53.8885117  20.9960079  46.7147484  14.0410776
  21.0216732  46.2969246  13.1802683  21.0335693  45.9870300  14.6617565
  54.2050591  54.2726059  71.2306137  54.9970818  53.7402687  71.1561432
  54.0944328  54.4070129  72.1718521  71.3249893  61.7404861  58.2439613
  70.9702606  61.8888931  59.1205330  70.6801605  62.1324959  57.6551018
  66.7570953  63.3058205  34.6526299  66.9499893  62.5241623  34.1349068
  65.8675995  63.1648369  34.9769020  78.8223038  46.1694336  34.4458656
  79.2252960  46.7525940  35.0891037  78.0530243  45.8155785  34.8922157
  60.4770622   2.9158762  84.8171844  60.0901985   2.1353145  84.4205856
  61.3762932   2.6597538  85.0221786  80.6841812  60.4103546  29.2574482
  80.6203079  60.3730774  30.2117863  79.8103485  60.6739044  28.9690266
  32.5263176  51.4287682  70.7907410  31.8493958  50.7551498  70.8558884
  32.4049301  51.9667587  71.5730820  30.4058743  53.6841164  53.4747047
  30.7599144  54.5640984  53.6032295  30.2159538  53.3708382  54.3590202
  18.6224518  11.1381817  67.1594925  19.5167618  11.3153744  67.4511108
  18.7246704  10.5215969  66.4345016  56.6663857  43.7778168  51.8413582
  56.0152359  43.8790474  51.1471062  57.4928017  44.0379143  51.4343987
  78.3262177  68.4402847   7.6150999  78.9046021  67.7554932   7.2793016
  78.0249023  68.1062698   8.4600096  17.6974735  62.8669548  51.6966782
  16.7591839  62.7954636  51.5213699  17.8896751  62.1298714  52.2763329
   5.8354883   8.7587633  19.8956223   5.9165702   8.6783361  20.8459854
   5.6046329   9.6764984  19.7517490   1.6182745  13.1747370  40.3994217
   2.4834585  12.9906130  40.0336533   1.3266621  13.9622297  39.9400215
  83.5400620  47.9774818  81.4869385  84.3847504  48.4192162  81.3997345
  82.8958740  48.6421967  81.2432022  14.1684523  66.7092209  68.4368057
  14.2048912  65.8765717  67.9660568  14.1710739  66.4618912  69.3614960
  72.2245636  38.7781143  75.5267410  72.7546158  38.9463539  74.7476578
  72.8283157  38.3617744  76.1418686  68.3498611  18.4236431  34.4080734
  67.4817123  18.0347939  34.3015823  68.8117065  18.2036629  33.5990410
  71.0197144  65.5170898  17.3741283  71.4833450  65.9603500  16.6636391
  70.9840775  66.1650238  18.0777893  40.3054504  61.2299156  81.7416611
  40.3998833  61.7546730  80.9467163  40.3306465  60.3235931  81.4347763
  25.8776245  19.4055519  78.6699753  26.1361694  19.5383682  79.5819778
  26.6829967  19.5406036  78.1706085  71.9494553  62.2642517  72.4462433
  71.9235001  61.8787155  71.5705109  72.4975662  63.0429344  72.3489838
  20.5878468  65.4767380  45.4517670  21.3082600  65.1321259  44.9240608
  20.9931011  66.1474380  46.0014687  85.4687881  58.7783775  28.7570019
  86.2870255  58.5226250  28.3312016  84.9391708  59.1525726  28.0529289
   3.3365493   4.5124135  48.4445686   3.8759704   3.8214631  48.0600624
   2.6536353   4.0439539  48.9245720  68.9488220  54.4858971   2.5720065
  68.3802948  53.8742218   2.1041832  69.5041885  53.9280128   3.1165886
  80.2198792  64.7263031  10.2662611  79.9867554  65.0028000  11.1525059
  80.4437256  65.5390549   9.8128824  17.4156151  58.8823204   8.2329340
  16.8272495  59.5284081   8.6236115  18.2600174  59.3297424   8.1778584
  78.3702087  58.2150154  19.6798916  77.8165665  57.9758034  20.4231873
  77.7741241  58.6427689  19.0651226  81.5897293  61.4779205  56.3279228
  81.5603485  60.5221405  56.3710213  82.5048752  61.6809158  56.1341705
  57.1928749  30.4373341  80.6419601  56.8056259  29.7993584  80.0425720
  56.5042839  31.0885239  80.7762222  82.7963867   3.8610339   9.6096201
  81.9797287   3.4036403   9.8098440  82.5179672   4.7180834   9.2868509
   1.5168142  41.2392387   5.1557217   2.1298409  41.8531418   5.5601382
   1.8151342  40.3770752   5.4453912  28.2189846  70.8633347  16.9752140
  28.8750076  71.0821152  17.6370316  28.4440231  69.9747620  16.6994762
  26.1819038  65.6559677  85.1744080  25.8356781  65.6628876  84.2820511
  25.9778938  66.5260773  85.5172272  75.9173126   1.7115580  58.2212868
  76.3826523   0.8911834  58.0579758  76.4543686   2.3802626  57.7962761
  10.6568336   2.5659561  78.2233429   9.9728622   2.3406057  78.8539276
  11.4674072   2.5467100  78.7321014  85.2776260  10.6469822  16.5522499
  84.9027252  11.5254087  16.6159115  84.5363388  10.0590944  16.6975498
  43.8804779  27.0191612  12.6544657  44.3025246  27.1824093  13.4979458
  44.5893059  27.0872593  12.0148115  64.4041901  60.5831718  36.0465775
  64.1531601  60.6027870  36.9700661  64.3861465  61.5005455  35.7739334
  40.2414665  10.9066896  12.0890875  41.1784096  10.7788572  12.2375221
  40.1960297  11.4700890  11.3165922   6.0577102   0.6776733  24.5985470
   5.1137600   0.6936716  24.4406414   6.2782717   1.5815427  24.8235016
  69.2382736  57.1544685  66.7680130  70.1202545  57.3198395  66.4348602
  68.7263565  57.9084091  66.4751892  58.3304558  12.9890099  15.6076927
  59.2527962  13.2327003  15.5294027  58.1613617  12.4418211  14.8407345
  48.9030991  58.1649933  24.3401108  49.1301689  59.0499725  24.6255608
  49.3420219  57.5908661  24.9677696  79.3217010  57.8384018  41.3735008
  78.8932419  58.6928139  41.3221855  80.1603622  58.0162048  41.7992554
  86.3426743  68.9096832  76.4275818  86.7096176  68.6835251  75.5729294
  86.6330490  69.8084946  76.5826645  60.1546669  47.0257416   1.1421033
  59.5153275  47.7032433   1.3622561  60.4190216  46.6622047   1.9871998
  13.5198364  19.0295334  87.6164322  13.5557451  19.8138390  88.1639709
  13.1663599  19.3363190  86.7814636   8.8734865   1.0281711  67.1775589
   8.4707003   1.7437387  67.6694489   9.8010578   1.2603076  67.1333313
  78.1913223  50.5422440  54.5195847  77.9857178  49.6077003  54.5438423
  77.4629059  50.9597511  54.9792976  57.5279236  19.6090546  19.8025837
  58.1863365  20.2990551  19.7211952  57.9771614  18.9029140  20.2671089
  67.7594376  32.5662842  49.8618546  68.1274719  32.6450653  50.7419548
  66.9251099  33.0331421  49.9084625  22.9663219  25.9758530  85.8064499
  22.1091499  26.3082848  85.5400314  22.9429665  25.0457420  85.5815430
  20.3107815  32.4071770  12.0059280  20.3422298  32.1349068  12.9230490
  21.0309181  31.9328327  11.5904360  51.0401192   6.6316924  22.5727100
  51.0297470   6.3899679  23.4988270  51.1302795   5.7992406  22.1088924
  63.9377251  24.7642136  60.7673111  63.4128647  24.2703762  60.1373291
  63.3168030  25.3675117  61.1756210  46.0856285  59.4707909  45.9339180
  45.7215271  59.1159134  45.1229172  45.6162567  60.2943344  46.0669670
  62.8025513  48.5301094  13.6747227  63.0815544  47.6305122  13.8453550
  61.9626541  48.6102180  14.1268129  36.1871338  54.3477097  20.3337269
  35.8989220  54.3011284  21.2453175  35.6185150  53.7322464  19.8710060
   2.6757445  21.8688583  67.8496933   3.4966333  22.3584404  67.9014893
   2.0758405  22.3457756  68.4231949  33.4291191  25.2874451   4.4276686
  34.3541794  25.1013584   4.2668362  33.1956787  24.7224197   5.1642041
  66.2622986  51.8562012  12.1427870  65.7193222  51.2316971  12.6238337
  65.6383514  52.4804764  11.7723799  62.0918732  56.9304543   6.6564732
  63.0366859  56.8949814   6.8058152  61.9074593  56.1686249   6.1070738
  35.9049950  39.2108040   2.2210402  36.0393066  38.2636833   2.2549977
  35.9775696  39.4958153   3.1319377  55.5639534  17.2895222  58.6843376
  55.7484016  16.9587269  59.5634193  55.9814987  18.1505070  58.6599197
   5.9511485   2.3171332  58.0868912   5.5107207   1.7461890  57.4573860
   5.9523902   3.1783495  57.6691132  22.8922462  54.9448433  41.9702415
  23.7024078  54.4366608  42.0104904  22.2840214  54.3878441  41.4843941
  83.7228851  33.5918846  36.5460587  83.5592422  34.5052643  36.7809792
  83.1018295  33.4110832  35.8404884  68.2713013  19.6462021  85.0378952
  69.1015854  19.4799519  85.4842377  67.8542023  20.3342361  85.5564117
  65.1799469  61.5927391  76.6815491  65.8039169  61.1437492  77.2519073
  64.3318176  61.2100449  76.9061813  86.1968155  19.6490555  73.6722031
  86.6027374  20.0962296  72.9295731  86.4402771  20.1775589  74.4322357
  31.4281292   0.8676822  78.5538712  30.7522755   1.4818803  78.2671432
  31.8972301   0.6363589  77.7522049  35.5811234   2.8253715  47.8726120
  35.3462296   3.3754690  48.6199074  35.0243683   3.1390078  47.1599503
  71.3950043  14.8549557  87.5079193  70.8283539  15.6215258  87.5945892
  71.5533676  14.7793293  86.5669479  74.7331543  37.9794502  25.8815289
  75.0032806  38.7552490  25.3902016  73.9620361  38.2633400  26.3724537
  75.3100357  40.0214424  24.2335110  75.1462784  40.7724152  23.6630230
  76.2605057  40.0089684  24.3461266  52.5626526  69.5409164  17.7606430
  51.7178612  69.9629898  17.9169044  52.8290596  69.2129745  18.6195450
   2.6189730  26.8386803  17.3878403   1.8152976  27.1367207  17.8138790
   2.4411480  25.9284401  17.1510429  70.0666199  11.0328436  36.5680428
  70.4973602  10.6902895  37.3512077  69.9482269  11.9654264  36.7483292
   5.5608072  54.5403862  32.8737526   6.1154284  54.0644913  32.2555695
   6.1588907  54.8176270  33.5677719  76.5016251  70.8974609  83.1097641
  76.3553314  70.2906265  83.8354340  76.4252014  71.7660141  83.5047455
  20.0302525  29.0842133  63.4793015  20.1625824  29.0754166  62.5313339
  19.3623619  28.4162407  63.6341095  47.2209435  33.1898384  64.3082275
  48.1632652  33.2357712  64.1465149  46.8385811  33.0152016  63.4482651
   5.0224934  18.2427788  35.2838593   4.3507366  17.5666046  35.3719711
   5.2663817  18.4568806  36.1843643  73.0829697  39.9004593   7.2056956
  72.3297119  39.7074699   7.7639027  72.9406662  39.3721275   6.4202995
  46.8348885  68.0225983  86.0225754  46.8498344  68.9794235  86.0003891
  46.0947304  67.8077240  86.5902252  23.1382580  58.9558868  79.8107452
  22.9969501  59.4956818  79.0330048  24.0011673  59.2185898  80.1310730
  25.9837608  28.7348194   1.6425763  26.3894958  28.4025211   0.8418338
  26.5199146  29.4889660   1.8875947  45.6226006  28.1938820  77.1625671
  45.5817833  29.1497154  77.1318054  46.2243843  28.0028801  77.8820190
  29.7564220  66.0956192  50.9564438  29.4990921  65.2413025  50.6098099
  30.7099228  66.1103592  50.8736725  77.9496460  51.3141594  16.2217522
  78.0951004  50.3937378  16.4406033  77.4980392  51.2912750  15.3780937
   9.3989773   3.4350250  65.1442261   9.3321867   3.7822361  66.0337296
   8.7626257   3.9425952  64.6405792  72.0628815  68.5554428  83.0285110
  71.4076004  69.2456512  82.9262543  72.1232452  68.4207001  83.9742508
  18.8752918  31.7178688   5.2778082  18.0541725  31.7593822   5.7679834
  19.3543816  30.9901886   5.6742759  63.4990158  62.0678406  64.2488937
  63.6355515  62.0730171  65.1962891  62.6230659  61.6990471  64.1351624
  79.2044754  25.8374119  74.1554947  79.2120209  25.4568748  73.2772141
  79.0223312  26.7661858  74.0125427  47.6494408   1.1003988  73.6325378
  47.7789536   0.2241811  73.2696304  47.4835968   0.9519529  74.5634995
  41.5247345  25.8499241  20.8784485  41.7381363  24.9168510  20.8864498
  41.1257210  25.9970169  20.0209026  20.9759655  43.0136185   9.7149200
  21.3133907  42.2018700   9.3361807  21.1648502  43.6819115   9.0561829
   0.1879091  41.3932037  26.6863308   1.0150653  41.7559357  27.0033016
   0.4196323  40.9421997  25.8744621   7.7154040  34.0568924  40.9023438
   8.3337240  34.7869873  40.9319534   7.7446413  33.6824112  41.7827644
  22.2727375  16.1684341  88.2240829  23.0700836  16.5368690  88.6045151
  21.9998493  16.8119698  87.5701523  65.4720078  33.5890694  77.9096909
  66.3195953  33.1869316  77.7196732  64.9248123  32.8636436  78.2106476
  23.8262634  65.5791855  32.5997047  23.8657532  64.6416702  32.4106750
  24.0927334  65.9997864  31.7821922  61.6424217  21.5928249  57.5227699
  60.7154884  21.3955555  57.3881760  62.0473518  21.4340725  56.6700935
   7.8932285  47.6818123  65.6991501   8.4743357  47.0227242  66.0788193
   7.8842936  48.3916588  66.3412399  60.6649857  24.0642338  24.2948246
  59.9634323  24.7153244  24.3065453  61.3894043  24.4843369  24.7584629
  40.0556679  -0.3384715  56.4630127  39.2519417   0.0350198  56.1014061
  40.5021667   0.4034685  56.8709259  75.7316284   8.6624699  81.2270508
  76.2241287   9.4445553  80.9780121  75.0843735   8.9777775  81.8578110
  40.9816933  21.4299526  74.3946457  41.0695953  21.8421326  73.5352249
  40.9195061  22.1632423  75.0067368  46.0723000  50.3707314  60.6865425
  46.1713257  50.3032608  59.7368698  45.8424911  51.2873650  60.8388672
  74.0806351  14.0697203  26.8540173  74.0264816  13.1284647  27.0193539
  73.5690460  14.4665623  27.5590172  44.3026543   3.1603165  31.3526249
  43.9286423   2.7473967  32.1309853  45.2216339   3.3063173  31.5771141
  60.1734581  35.2566109  35.8061905  59.6589279  35.3360481  36.6094208
  60.3381844  34.3177185  35.7191353  46.1362495  18.0129395  16.5557060
  45.1979637  17.8484783  16.4618549  46.1877975  18.8273239  17.0560570
  27.4681721  53.8049393  74.7713776  27.0282307  53.3621597  75.4970627
  27.9989738  53.1223755  74.3607788  51.0201187  56.1507721  41.8372498
  51.3992386  55.8309441  41.0185890  50.8322182  55.3581581  42.3399315
  72.5668564  64.5057373  78.6224899  73.1678009  64.4335632  77.8809433
  71.8257523  65.0069885  78.2822723  83.3724747  45.0399323  18.0758667
  84.3240585  45.1401291  18.1019230  83.1497879  44.6472015  18.9199066
  27.0720005  61.7545815  73.0181732  27.3854084  61.2989235  73.7994461
  27.8675842  62.0704994  72.5898285  25.7951756  25.3134403  66.1278687
  25.2450352  25.5209713  66.8831940  25.3224087  24.6176243  65.6711884
   0.8707163  37.6745720  44.2649117   0.1116506  38.2519035  44.1828117
   0.4999395  36.7922440  44.2808685  83.5013580  52.3243217  78.9578781
  83.0237732  51.5755081  78.6009140  83.0192032  52.5601883  79.7504196
   0.7015541  63.7800255  58.9716415   1.0074950  63.1809349  59.6526146
   1.3792259  63.7416115  58.2967186  59.8339462  46.3043060  83.2648010
  59.5847893  45.7881775  82.4981461  59.0161934  46.4271393  83.7469101
  61.6883583  10.4132423  88.3498840  61.9085846  10.2269812  89.2625885
  62.5303459  10.5957851  87.9327850   3.6747277  28.3544159  41.3719368
   3.5094025  29.2590485  41.1063385   4.2072611  28.4307537  42.1636505
  63.0817642  22.4253674  24.0663280  62.1410713  22.4432335  23.8902206
  63.3944359  21.6394272  23.6182613  80.8573761   6.7245493  45.7095909
  81.3875732   7.4532304  46.0323067  80.1730881   6.6153708  46.3699417
  56.3725014   9.5051928  74.0847015  55.5563202   9.0516882  73.8739700
  56.7820206   8.9611187  74.7573929  83.6489182  60.8526115  58.2873688
  83.8313370  61.7771339  58.4553299  84.1031418  60.6641998  57.4661446
  34.4505653  61.4652596  11.3339891  35.0592194  60.8468857  10.9297771
  34.0934067  61.9645348  10.5995579  58.6855583  33.5536499  16.0012226
  57.8091164  33.5549622  15.6164141  58.5945702  33.0379448  16.8024731
  26.9946156  24.4788036  74.8065643  27.8893909  24.7808170  74.9627686
  26.8534737  24.6218834  73.8707047   9.3629627  27.6931553  48.4937592
   9.0713091  26.8045464  48.2899323   8.6669903  28.0535355  49.0432854
  31.5816631  69.5078278  59.8591805  30.8165989  70.0467606  59.6580353
  31.6701565  68.9262390  59.1040955  56.2997932  20.2164059  16.3249912
  57.1587639  20.6385651  16.3112736  56.4539452  19.3735523  16.7516842
  81.6098022  61.1313820  45.9276543  81.6731567  60.8769035  45.0070801
  82.4909058  60.9936905  46.2753983  24.2134323  65.7523422  11.5850334
  23.3392010  65.5720749  11.9306536  24.7584743  65.8719635  12.3627558
  58.1359482   4.0920634  37.4819832  58.0946884   3.8320456  36.5617027
  58.9280815   4.6257453  37.5447998   9.4561462  59.0078735  61.8829880
   9.4620180  58.6731415  60.9862404   9.5293636  59.9571991  61.7847710
  36.8911858  25.0434513  82.8178864  36.6812019  24.1095676  82.8182144
  37.2513504  25.2076492  81.9463577   4.4024124  21.6391754  54.1418953
   4.4468055  21.7266216  53.1897316   3.6155035  21.1170368  54.2980347
  20.7761688  48.7668419  35.8241005  21.5919991  49.1415749  36.1561089
  21.0289249  48.3210716  35.0156250  51.4636078  13.5187349  57.2557068
  51.4028816  12.6224194  56.9253120  51.3220825  14.0682564  56.4848442
  63.1487045  46.2835884  74.0742569  63.1803932  45.6279373  74.7709274
  63.5085983  45.8366127  73.3081512  65.7385406  37.2209053  24.1189632
  65.7979813  38.1559906  24.3147049  66.3816757  37.0802994  23.4240971
  46.2448425   1.2369890   2.8734396  47.0982285   0.8676503   2.6463852
  45.6369057   0.5019272   2.7939031  73.9067459   8.9518490  74.9217911
  74.5280685   9.5147228  74.4598770  74.2364349   8.9175358  75.8197632
  65.9970322  42.2299004  65.6703949  66.1512909  41.8197861  64.8193741
  66.8476639  42.2001762  66.1083069   5.3750310  62.1984901  84.7509460
   6.2881708  62.3086853  84.4858704   5.1781669  62.9824944  85.2635956
  78.1790085   9.7238054  65.9048767  77.9229431   9.8152332  66.8226471
  78.1448822   8.7816324  65.7394104  43.4395638  52.7551041  85.0699997
  43.3488312  52.1450653  84.3379822  43.9254913  52.2638206  85.7323761
  76.2937012  64.4120941  27.7719555  76.8962708  64.2047043  28.4861908
  76.8611069  64.5616531  27.0157013  37.4754829  42.7817612  25.1033630
  37.4237785  43.1901817  25.9675121  36.7111549  43.1163177  24.6342068
  26.0514450  46.0250702  26.6957188  25.3394241  46.0791740  27.3331604
  25.6343021  46.2104645  25.8543777  29.5146694  22.3389416  48.1016846
  28.6780300  21.8757401  48.1430511  29.9404812  22.1392345  48.9353714
  40.6043930  43.2807579  17.7504272  40.2937431  43.6585579  18.5732250
  39.8109703  42.9678459  17.3159122  74.4869766  22.7091866   9.7361097
  74.3899384  22.8157864   8.7898264  74.6404343  23.5958271  10.0625296
  19.6616287  19.8977566  21.8108902  19.8085670  19.0168495  21.4664421
  19.9876633  19.8607941  22.7100945  68.2626572  25.5331135  78.8648911
  67.6444855  25.0637856  78.3046951  69.0858994  25.0547562  78.7664719
  29.1456413   2.1420288  14.2800446  29.8767605   1.9662662  14.8723307
  29.1186676   1.3807960  13.7003651  82.3097534  34.9826927  64.9064941
  83.2585907  34.9299278  64.7918167  81.9759903  35.2112274  64.0389633
  20.0234356  39.6955109  68.2689209  19.7015820  39.1571007  68.9919434
  20.1311226  40.5673790  68.6490250   5.4718800  13.5382690  39.8965492
   4.9378772  12.7438745  39.8935432   5.3018970  13.9379053  40.7495613
  73.6879959  54.9863167   3.9415271  73.4375916  54.4182930   3.2129123
  73.1856613  54.6559677   4.6863523  84.0900345  62.0451851  65.2793350
  83.2340164  62.3360786  65.5937271  84.2283783  61.2006836  65.7081757
  47.9041977  31.7949753  77.5485001  48.7691422  31.4142208  77.7005844
  47.8583641  31.9140682  76.5998459  42.9322548  67.4625473   5.7490387
  42.3466339  67.7815475   6.4357119  42.3923759  66.8640137   5.2327895
   3.5203409  58.7471046  66.1882553   3.0784614  57.9185562  66.0025635
   4.0923505  58.5523643  66.9306259  84.5882797   8.1678324  26.7809277
  84.4474945   7.7757964  27.6427402  83.8821793   7.8153749  26.2392311
   5.8729372  43.6411934  67.2850876   6.0317969  42.8813972  67.8451843
   5.8998084  44.3887749  67.8822708  86.4661407  48.1880150   9.5094461
  85.6512527  48.3258934   9.9923325  87.0610657  47.7981033  10.1499662
  24.5515633  62.6793823   4.5444732  25.2014561  63.3749237   4.4440246
  24.8887901  62.1377182   5.2579932  11.4642229  15.0824432  20.5335712
  10.6700268  14.6498632  20.8471928  11.3977489  15.9768810  20.8679276
   6.3843584  56.0509109  79.7485199   7.2649121  55.7428131  79.5342026
   5.8196435  55.2958717  79.5834656   1.3248471  24.4278851  16.5017223
   0.6008425  24.6153755  17.0991306   1.9197502  23.8779526  17.0115242
   7.7575593  47.0072517  46.4306793   7.2020860  47.6831818  46.0423508
   8.6511631  47.3128815  46.2748146  55.3511314  47.3289566  64.3769989
  54.5192108  47.0527420  64.7615051  55.5826721  46.6224098  63.7741623
  52.9152298  47.5331764  82.6883087  52.9535141  47.4187393  81.7387466
  52.0137329  47.8048935  82.8606567  85.7626343  65.7274551  61.2393799
  86.4062424  65.8441162  61.9382324  86.2817993  65.4781799  60.4748154
  30.0897980  60.5462265  66.4394913  29.5118217  61.2573738  66.1630096
  29.7210255  59.7643471  66.0285110   8.6725492  52.2769012  59.6710167
   8.3728724  51.4042816  59.4161415   8.5758047  52.2947502  60.6231499
  67.8425598   0.2105816   6.5223551  67.9586105   0.5347714   5.6292343
  68.5543518  -0.4178536   6.6434293  72.9178772  27.5087490  16.5638123
  72.3303604  28.2285709  16.3337841  72.3906479  26.9388447  17.1236954
  76.5789261  14.7485266   5.2426019  77.4301910  14.3930759   4.9871869
  76.7893982  15.5266953   5.7587290  60.8823662  54.2244110  38.0601044
  61.3736305  54.9821510  38.3774757  59.9679413  54.5067062  38.0791969
   5.6828008  51.3782310  11.5116768   6.4676538  51.8555832  11.7806997
   5.1126971  51.4021873  12.2802076  77.4673233  42.8266792  76.1434860
  76.9536362  42.3497772  76.7953415  77.3080826  43.7495422  76.3414688
  51.5647850  33.0538368  80.6981964  52.2646179  33.1615944  80.0541000
  50.7982979  33.4548454  80.2884064  29.8098602  51.7041817  35.0346909
  30.2226963  51.3406219  35.8180313  29.2828522  52.4345779  35.3587570
  34.6925621  44.1971130  16.8665600  35.4235153  44.7108498  16.5230236
  34.7688408  43.3494301  16.4285564  17.7448769  27.2535133   6.0675230
  17.6604671  26.5021667   5.4805093  16.9996586  27.8130932   5.8490028
  56.0109978  61.4646111  55.4294624  55.8231773  60.8734436  56.1584854
  56.6388664  62.0928917  55.7862167  19.4197559  62.3062096  66.1111145
  18.8861504  61.9442673  65.4036560  18.8630924  62.9724617  66.5141830
  49.2527199  51.5981979  51.8101387  49.4068832  50.6553497  51.7509651
  49.2145119  51.8922272  50.9000168  54.9839058  18.8385563  32.5061607
  55.0850677  17.9877281  32.9328804  54.0460129  19.0226097  32.5582161
  25.3849144  48.8420715  18.7271690  24.4572773  48.8293724  18.9628773
  25.7849998  48.1822205  19.2935276  59.3133011  70.5967102  51.4179192
  58.6034088  70.6407242  52.0585022  59.2073135  69.7414627  51.0013237
  62.9741707  41.5666046  17.1671696  62.8526535  42.3359184  16.6107311
  62.4020271  41.7217979  17.9186993  62.9781685  64.6898270  18.1335793
  63.3986664  64.5669327  18.9846439  62.8013344  63.8017311  17.8233318
  76.0272217  42.2980995  55.4888916  75.9909744  43.1663475  55.0875664
  76.6070099  42.4067078  56.2427406  40.8929749  66.0180206  22.6715164
  40.8941345  66.8130264  22.1384163  40.2622299  66.1980362  23.3686466
  11.4989767  58.1648369  46.3900871  10.6152582  57.9013290  46.1334991
  12.0761929  57.6147842  45.8604660  75.7543564  19.0584793  73.6100235
  75.9631424  19.7684879  73.0029602  74.8180161  18.9040108  73.4849854
  82.1616058  25.0924187  55.7701797  81.9050980  24.9979801  56.6875191
  82.9314041  24.5310822  55.6777267  57.4025536  56.4819183  23.6482697
  57.2889175  57.4173813  23.8162823  57.7985611  56.4412918  22.7777767
  80.7361984   0.0666381  71.1081772  81.0980682   0.8543139  70.7021561
  80.0008011   0.3836907  71.6324768  49.3619957   1.5492617  78.3731308
  49.0037460   1.0436231  79.1026688  49.8483582   2.2602420  78.7904968
  41.1669960  68.1130142   7.7956533  40.2955666  68.4863586   7.6635456
  41.5573730  68.6532211   8.4826880  70.5238876  60.4410591   6.1447344
  71.2441101  60.8798294   6.5974917  69.9582901  61.1537514   5.8474140
  18.8244152  49.3512077  18.9230843  17.9401684  49.0571556  18.7042866
  19.2899323  49.3533401  18.0867100  20.1532669  61.9559250  32.4204483
  19.7661648  61.4127731  33.1070137  20.7641945  61.3729286  31.9697647
  42.3635521  20.3581200  10.4177570  41.8590927  20.0669098   9.6581860
  41.8222771  20.1198692  11.1704111  46.1659966  15.4353085  80.5045013
  46.4982643  15.6963472  81.3633881  45.4360771  16.0319118  80.3386307
  63.2610245  50.7412033  40.4453812  63.2893600  50.7372894  41.4021530
  62.8051605  51.5528564  40.2225838  69.0372086   5.4853587  51.9910889
  68.4428482   5.1526031  51.3186035  68.9190598   4.8898292  52.7311020
  28.5242710  52.6628036  19.4167385  29.0475807  52.8366241  18.6343269
  28.6067200  51.7192802  19.5552902  79.6802826   7.9191217  68.3246231
  79.6612854   7.0722671  67.8788605  78.9482803   7.8821869  68.9402924
  11.1378565  22.1535320  23.3434486  10.6962214  21.5012207  23.8872128
  10.9341745  21.8938923  22.4449329  67.8245163  34.5310287  70.2417526
  68.5407562  34.4471359  69.6123123  67.5825577  33.6288414  70.4509048
  73.6643600   3.4106619  54.0055771  73.6894913   4.1193986  53.3626976
  73.0222778   2.7928209  53.6559563  33.5195618  43.7513351  37.3036995
  32.6946754  44.1404037  37.0131493  33.2656631  42.9146309  37.6931763
   1.2464037  44.7786255  42.8486595   1.2067184  45.5220985  42.2470741
   1.0802343  44.0146027  42.2964935  80.9644012   7.3409171   0.5816057
  81.0730972   6.7223945   1.3039948  80.4470062   8.0551529   0.9536358
  77.9324417   6.1398683  24.1263695  77.4741821   6.8244958  23.6390171
  77.3036118   5.8565607  24.7901001  25.3962231  65.8324738  73.7753448
  24.7154884  65.3127441  73.3478928  25.7616272  66.3717880  73.0740204
  33.4100456   4.1337242  81.3518600  32.5760956   4.2097473  81.8155212
  33.5639801   5.0068736  80.9911041  38.0648499  11.3015289  78.0187607
  37.5417480  11.9891529  78.4307938  38.5887985  11.7602320  77.3620300
   4.3008637  69.6555099  82.8677216   3.4595294  69.4939194  83.2946625
   4.2711444  70.5801926  82.6221542  16.6378212  29.1158867  75.9661713
  17.5117397  28.8959332  75.6434937  16.3591366  29.8513374  75.4205704
  46.1139336  70.2876663  69.8975525  45.2207947  70.4961395  70.1715546
  46.0079727  69.6056137  69.2343826   8.3071499  46.9173012  86.3681564
   8.4207907  47.4739799  87.1384964   9.1889315  46.6039391  86.1669159
  84.0978699  47.0139847   6.2674098  84.4918594  46.3936043   5.6541104
  84.6075363  46.9125252   7.0712657  74.8897400  42.4348373  18.1396770
  74.6818466  42.0019531  17.3116531  74.0373993  42.6162758  18.5356960
  43.2662849  64.7656479  16.6780567  44.1130066  65.2120438  16.6832981
  42.7010002  65.3179550  17.2180958  85.8461533  40.6525917  34.5840340
  85.6954498  41.2219505  33.8294792  85.9904099  41.2551041  35.3136940
  54.5321465  69.6110992  24.7739887  54.1406898  69.5869980  25.6471519
  55.4112358  69.2524490  24.8956375  53.3750267  39.4539032  82.0202484
  54.0699196  39.0740242  82.5578842  53.4245071  38.9761391  81.1922836
  66.1263962  54.3615952  30.9668121  66.1898346  54.7934837  30.1149426
  66.1126099  55.0800476  31.5991611  52.4041138   6.1920848  19.1141415
  53.3282013   6.3454275  18.9172211  52.4137650   5.5476770  19.8218670
  58.5202713   5.2592325  16.5710106  59.1650047   5.9657454  16.5337353
  58.7985420   4.6449566  15.8917017  20.8787460   7.3358011   0.5863621
  19.9272690   7.2319541   0.5744829  21.2148247   6.4492059   0.7176284
   2.7500732  57.7899094  51.8077660   2.0077798  58.3412056  51.5601654
   2.3610594  56.9368248  52.0005035  15.0875759   3.4138026  78.4035416
  14.4724054   2.6901367  78.2847824  15.8593254   3.1574173  77.8986664
  79.2993240  36.7419701  46.9457626  78.7827759  37.5216331  47.1495667
  79.4854813  36.3484230  47.7982292  49.9128952   5.8576403  66.2263031
  50.1377525   5.1595268  65.6112289  49.4030952   5.4207487  66.9085464
  32.7928772   7.4735746  86.1398621  32.4155426   8.0427265  85.4691086
  33.7076073   7.7488976  86.2006912  24.4445515  27.6884365  53.9710617
  23.7913990  27.2972775  53.3908768  25.2452354  27.7146187  53.4471817
  66.3930435  54.3228302  53.4336357  66.8732681  53.4953804  53.4643517
  66.6788864  54.7355385  52.6186523  77.8315735  17.1533012  67.8415070
  77.5641708  17.3433838  68.7407227  77.6869202  17.9737225  67.3701096
  39.6405182  60.2967606  73.2342911  40.0799446  60.9332085  73.7982635
  40.0773621  60.3855362  72.3872299  10.1310778  27.6180305  74.0810776
  10.9419165  27.1208076  73.9736404   9.9913273  28.0349369  73.2308502
  20.0467911  66.1168823  36.5554581  20.1324024  65.1797791  36.7307663
  19.7333488  66.1639328  35.6522560  67.1523666  47.6032791  62.2269821
  67.9560318  48.0839424  62.0286865  67.4523163  46.7328110  62.4888000
  60.6833763  48.1236115  68.3811722  60.2098045  47.5523109  68.9858017
  61.0898743  47.5248833  67.7546616  12.3701000  53.2924385  86.6004715
  12.5502644  52.8299522  85.7820129  11.4306002  53.4733620  86.5715408
   7.4239922  68.2438736  78.5561447   6.5023308  68.0338745  78.7067184
   7.7293200  67.5644684  77.9549637  20.7665634   0.4349594  88.4082108
  20.7011490  -0.1966599  87.6919632  20.0517464   0.2007090  89.0001526
  75.4611588  42.2067261  27.6665936  75.4587555  42.4059258  28.6028328
  74.6641464  41.6949120  27.5285740  32.6315002  47.4959831  72.0788422
  31.9774876  47.9811783  71.5757675  33.3853722  48.0842514  72.1218643
  73.7465439   8.6890898  14.3401508  73.3703079   9.0043449  13.5183878
  73.2734375   7.8776517  14.5244513  26.3177452   3.5213823  25.6383629
  27.2077236   3.8737535  25.6367874  25.7596130   4.2811670  25.8040390
  24.3781948  63.1956940  19.5645123  24.9559631  63.8003273  20.0301666
  24.8729916  62.3774719  19.5206661  53.3638458  68.1543274  20.0358582
  54.0155830  67.4539871  20.0041828  52.5494118  67.7128677  20.2767773
  76.3825378  23.6339664  16.9779377  76.8759689  23.9746323  17.7240639
  76.0697250  22.7773113  17.2686710  29.8122025  14.5086126   5.3837576
  30.5591812  15.0920429   5.5174117  29.0578957  15.0949335   5.3247514
  28.6164856  67.2698898  60.2610283  29.1988163  67.7499008  60.8498535
  27.7642536  67.2922668  60.6962700  46.5970917   8.0803604  36.0701866
  45.9619827   8.1029472  36.7859802  46.4134102   8.8704443  35.5619926
   6.6031027  39.1992531   8.8090353   7.1106720  39.7251701   8.1909618
   5.7930465  38.9956589   8.3414993   8.9820423  22.6714134  75.0897446
   8.3206558  22.6659698  74.3978119   8.5077009  22.4028912  75.8765945
  32.8758240   3.4646833  78.1101303  33.0966797   3.1141202  78.9730072
  32.3667908   2.7699339  77.6924667   6.5127120  49.1881065   2.3032715
   5.6288252  48.9289207   2.0428903   6.9341702  49.4558029   1.4866058
  28.8714218  26.0537071  76.8942184  28.1062183  26.5729008  76.6469650
  29.1273956  26.3970661  77.7502670  10.1888351  51.5049133  29.4052811
   9.7809706  51.0980835  28.6408405  10.2103481  50.8102036  30.0634251
  53.1570396  42.6433258  52.2969818  53.9874954  42.3614807  52.6805687
  52.8006325  41.8533974  51.8905106  86.3114853  35.9443588  48.1783295
  85.6798706  35.4825821  48.7297401  86.7022476  36.5983467  48.7578392
  67.2389374  17.7240067  87.2648163  66.9234772  16.9719334  86.7637100
  67.0163269  18.4821777  86.7245789  27.7247391  69.0652084  57.9551620
  26.7812901  69.0979309  57.7968407  27.8044319  68.8325958  58.8802452
   7.2961817   5.7748013   4.6468778   7.7610431   5.5947824   5.4640250
   6.9560428   6.6629148   4.7554679  35.0585518  68.1729202  37.9162102
  34.6486511  68.8417664  37.3677101  34.4862404  67.4103012  37.8319321
  44.7301598   7.0810609  53.6489067  44.2464981   6.3697996  53.2288971
  45.4170036   7.3067746  53.0215836  60.3848686  68.8739090  38.3974228
  59.5197258  68.7032013  38.7697411  60.2049026  69.2855225  37.5521927
  26.0278606  11.1063652  20.5217609  26.9160023  10.7796307  20.3779449
  25.8408337  10.8968697  21.4368362  76.0756302  16.0179272  87.0748749
  76.5540314  15.4292002  87.6586227  76.3019867  15.7182770  86.1944199
  45.0292206  14.5634212  61.8516006  44.4424133  14.0826035  62.4352989
  44.4497833  14.9513435  61.1958542  13.8670101   8.1293240  36.9966545
  13.2117434   8.6692219  36.5546494  14.6667700   8.6546593  36.9713860
  62.9955482  16.5906010  33.1626778  63.2257233  15.7560225  32.7543526
  63.4247246  16.5652466  34.0178947  41.1439552  69.1015015  55.5137901
  41.1328316  68.3510284  56.1078377  40.7330971  69.8077698  56.0124092
  49.5552826   4.8265338  56.0990906  49.0727959   4.3952999  56.8044090
  48.9093895   4.9405499  55.4019165  57.4720993  37.5294037  59.3220863
  56.8848839  38.1260300  58.8579254  56.9247589  36.7743950  59.5379868
  47.3494835  57.0137596  80.6087036  47.1303482  57.6536598  79.9313965
  46.7312584  56.2963753  80.4694519  46.2006798   4.5646653  18.8457031
  46.1802750   4.7592835  19.7826862  45.9322357   5.3817172  18.4254684
   1.8594271  51.9164581  76.4455109   2.4194853  51.1445274  76.5272980
   1.0182244  51.5714302  76.1462402   4.8252048  29.2692661  46.0543518
   3.9902017  29.0913277  45.6215248   4.6853199  29.0034180  46.9631920
  74.7454453  22.7606621  19.3444939  74.2123871  23.0779610  18.6155243
  75.2104187  22.0031376  18.9892559  49.4268456   3.1637537  35.2748566
  49.6311073   2.9210670  36.1779709  50.1843796   3.6728897  34.9864845
  68.5470352  31.4450951  58.8979607  67.9267426  31.5268116  58.1735344
  68.0763168  30.9393482  59.5604362  10.9451809  30.7791729  13.0579901
  10.0688534  30.7913513  13.4428730  10.9898729  29.9451084  12.5904751
   7.2956944  37.3887100  16.2541656   6.6992059  36.8614197  15.7227526
   6.7908134  38.1710930  16.4759789  37.4591789  27.8686619  74.7078705
  37.6614952  28.7883492  74.8795547  36.5408516  27.7741814  74.9608078
  31.9470825  13.8395901  40.5682106  31.2150002  13.9249191  39.9574699
  31.9570904  14.6681719  41.0473595  63.4295273  44.2649841  46.4368057
  63.2386093  44.9217606  47.1064491  62.9003067  44.5293350  45.6842918
  32.4324188  40.8941078   1.3818408  33.1627655  40.5550537   1.8994027
  31.7085667  40.9615555   2.0045111   2.1056366  29.7151184  44.6567039
   1.1662575  29.8900738  44.7131767   2.1800644  28.7676220  44.7704735
  24.5222492  35.9338264  74.0921402  25.1403008  35.2635384  73.8006668
  24.0443192  35.5221062  74.8120728  56.7101784  46.9194107  11.4222813
  57.2950668  46.4591331  12.0241795  56.4358673  47.6994667  11.9044628
  31.4992523  69.8890457   3.6646111  31.4890270  70.4556198   2.8931689
  30.6825161  70.0911331   4.1210446   0.5661173  48.7628555   4.8979535
   1.0307683  48.0215530   4.5096216  -0.2196626  48.8612556   4.3602743
  45.2305946  13.1678114   1.8193984  45.1988754  14.0453806   1.4384807
  45.5442619  12.6092024   1.1082023  74.3079834   5.1197858  76.0271454
  74.1398392   4.3111329  76.5109253  73.7822571   5.0366607  75.2315750
  56.6315041  12.7470856  24.3686275  57.5053940  12.3782902  24.4972229
  56.2770462  12.8372555  25.2531967  10.5066681  47.2141609  13.4909515
  11.0230970  48.0112152  13.6102619   9.8524036  47.4489441  12.8328886
  11.7681227  10.7669554  61.4237518  11.3600750  10.8567991  62.2849464
  11.0595016  10.9394093  60.8037949  45.5184631  63.6830368  27.4115772
  45.1623116  63.5976562  28.2959404  44.7547760  63.8580551  26.8616829
  60.2477875  60.9608421  25.7697887  60.8927116  60.4053383  25.3319302
  60.5312958  60.9822655  26.6837883  46.7217674  47.5415344  85.6492004
  46.3506927  46.6618881  85.5802307  46.1256104  48.0933495  85.1429138
  26.8716888  50.1495285   1.4164422  26.1077099  50.2836151   1.9773247
  26.6793289  50.6529083   0.6253422  81.7352905  16.3884735  62.5241966
  82.6873627  16.3052731  62.4705162  81.5643005  16.5944023  63.4432106
   1.0598402  47.0102272  29.4272461   1.3028538  47.6647873  28.7724743
   0.6858981  47.5186768  30.1468830  32.3577309   6.8305888  73.8878632
  33.2742043   6.8110299  73.6123123  32.2639389   6.0703683  74.4618835
  51.8050232  56.0514565  86.2270355  52.3044205  56.8313980  85.9851227
  52.0847931  55.3840446  85.6005173  44.8644066  37.8449631  13.2200756
  45.2235031  38.7083893  13.4244728  44.3805580  37.9737930  12.4042768
  67.3056946  25.2878628  38.4327583  67.3727646  24.4053020  38.0683136
  67.8124390  25.2511520  39.2439880  24.6702290  31.7416668   7.5140381
  24.0446053  31.2303391   7.0008421  24.6508255  32.6123734   7.1168885
  39.4926414  26.0909615  73.3816376  38.8449287  26.6731682  73.7787933
  40.1390762  26.6808681  72.9938736   7.8167334  25.4553490  76.6445618
   7.7624693  26.1752529  76.0160522   8.7549801  25.3365574  76.7922592
  33.4192123  70.7077637  61.5660744  33.4949455  71.5272217  61.0772095
  32.8417969  70.1625519  61.0316887  20.1328087   7.5407400  34.2227287
  20.5499935   6.8439817  34.7294006  19.2077961   7.2961111  34.1954803
   9.0142965  53.1707191  25.7160549   9.6769457  53.8607254  25.6841316
   8.9105806  52.8959160  24.8050346  62.8278084  27.5760250  74.8499908
  63.0091286  28.5075836  74.7252731  62.0889664  27.5551529  75.4581909
  60.4274826  54.4275665  31.3860970  60.6556931  53.5192223  31.5837326
  59.7446060  54.3631325  30.7184429  69.4280548  19.7823658  63.3556557
  69.8700485  18.9333649  63.3472557  68.6469269  19.6404514  63.8903809
  51.4720650  53.0570641  45.2149353  50.9752731  53.6651535  45.7623482
  52.2911339  53.5163002  45.0293159   0.4843723  50.6516647  13.9836054
   0.1472904  49.7732086  13.8077517   0.5022826  51.0773621  13.1264620
  51.0079117  28.0628567  88.1466599  51.7562256  28.3324432  87.6141357
  50.4301758  27.6070175  87.5345612   6.0579982  12.5277596  74.9544373
   5.6325512  11.8280001  75.4499817   6.6883016  12.9062366  75.5673828
   8.6796217  62.0491982  70.5694656   7.9110227  61.8434563  71.1015930
   8.4956245  61.6507492  69.7188110  85.6176605   0.0817608  70.1440125
  86.1061783   0.8808174  70.3417206  85.7508087  -0.4761589  70.9103241
  77.6672058  40.0157318  79.8950043  76.8945618  39.9610519  79.3326263
  77.7773666  39.1287384  80.2375565  10.9331493  51.8605537   3.6881046
  11.7016850  52.4293938   3.7329049  10.1948662  52.4402199   3.8756137
  52.7586708  71.7939072  52.0979691  52.5650902  71.7223511  51.1632843
  52.9261818  70.8938751  52.3774567  16.8567562  57.8106956  16.1664658
  16.0721321  57.3050957  15.9544106  16.9438114  57.7306519  17.1163330
  50.9179955  62.0498047  53.6185303  51.5876503  61.4801216  53.9970207
  50.0890503  61.6275444  53.8438797   8.7847595  47.0280876  57.0340881
   9.3746586  47.7753944  56.9352074   8.7335262  46.8868294  57.9794197
  84.6732178  39.9915352  26.8230782  85.4288330  40.5669861  26.7041645
  84.9489059  39.3704529  27.4972363  57.5615196  54.9162140  72.4727783
  58.4177475  54.6196632  72.7812653  57.4559364  54.4963989  71.6190643
  86.4473267  55.7609520  49.6681480  86.5781021  56.2856941  48.8783569
  86.9671173  54.9710121  49.5196533  86.1620178  30.0345325  19.3980198
  86.5850067  30.4124527  18.6269875  85.4796829  29.4653664  19.0420628
  25.3139229  49.6091309  61.4640694  25.8922195  48.8726082  61.2657166
  25.7486591  50.0682030  62.1827431  46.5947914  35.6213989  83.8959808
  47.1940002  36.3387489  83.6895981  45.8011436  36.0549812  84.2096024
  52.1778908  65.1035843  82.0873032  52.8485603  65.0835876  82.7699661
  51.3546486  65.2122421  82.5634232  77.4225006  42.7755623  84.0464783
  78.0741806  42.3143158  84.5744858  77.8962936  43.5219460  83.6795120
  20.8195343   5.4960971  75.0976944  21.0020943   4.5914803  74.8435822
  20.7043018   5.9593349  74.2680130  45.9001160  37.3612328  86.2994461
  46.7436142  37.2021523  86.7230453  45.9477043  38.2707939  86.0050430
  28.4245758  51.8402481  12.6738548  27.8327885  52.3250694  12.0985575
  29.0953846  52.4774323  12.9192991  40.1148796  32.9496040   2.5410748
  40.7895927  32.4285393   2.1057787  40.3024025  33.8510361   2.2793701
   0.4173756  63.8585014  55.8568153  -0.1285886  63.1852226  56.2628326
   1.3063582  63.5068245  55.9043808  33.6709175  67.2612305  22.4759388
  33.0224609  67.3876648  23.1685810  33.1948662  67.4440613  21.6658897
  55.9359818  53.7782326   4.5454884  55.2472954  53.9011803   3.8921700
  55.4838982  53.8487930   5.3862448  23.7416687  59.5913124  21.2217770
  24.4284821  59.4313164  21.8690186  22.9694099  59.1525116  21.5785713
  75.9090271  35.7504234  88.6454697  76.3092880  36.0231667  89.4710846
  75.2316208  36.4060478  88.4796066  34.9713020  13.8491201  76.8970032
  34.8120613  14.7532263  76.6259613  34.6540947  13.3202143  76.1649704
  34.4317894  64.0777817  59.2854042  34.6876373  64.9640808  59.0299568
  34.8750687  63.5095749  58.6554222  39.8788567   2.2953596  30.3555012
  39.1537666   1.7087721  30.5708885  39.7707214   3.0380211  30.9496326
  10.9538240  17.2706680  34.4248619  11.5296555  17.7498283  33.8289948
  11.5496035  16.7768478  34.9882622  66.8947296   0.8307176  71.4702530
  66.2399979   0.5771247  70.8196793  67.2341461   1.6682163  71.1546097
  37.4762459  20.6860428  10.0903854  37.9206200  21.0242729   9.3129768
  36.8957291  20.0023613   9.7560072  78.0816193  36.6076775  78.2544403
  77.6789017  37.3733444  77.8448029  78.0029144  36.7698021  79.1945190
   9.5568628  16.4995346  13.7079477   9.7385311  17.3869572  13.3985748
   8.6925287  16.5599594  14.1147738  50.9648285  23.2638283  76.4152145
  51.5107040  22.7636833  77.0219345  51.5874634  23.6717949  75.8134537
  68.9185791  38.7414780  75.0434570  68.0333557  38.4913216  75.3081055
  69.1058578  38.1909103  74.2831726  40.2876854  18.6582336  84.1327972
  39.4846115  18.3400021  83.7204437  40.0207863  19.4524288  84.5956650
  43.8094597  48.2377663  37.6329880  43.1832962  48.9492264  37.4989128
  44.6626015  48.6322975  37.4520836  42.8357430  62.4142838  20.4068031
  43.3690071  61.6279030  20.5228443  41.9508972  62.1416054  20.6495514
  47.1998634   1.0977927   7.6969633  46.3621902   0.6355608   7.7265182
  47.0837555   1.7606782   7.0162778  37.4199409  62.5576363  50.1562576
  36.7510529  63.2402687  50.2095070  36.9747009  61.7626419  50.4494820
  81.2910995  34.9698830  80.5003967  80.6555252  34.3614197  80.1234970
  81.3439331  35.6845512  79.8658218  40.1051941  10.5251236  37.6626892
  39.4570236  10.7052784  36.9817696  40.7696495  11.2042761  37.5465698
  67.5182800  12.4640636  83.3069305  68.0011673  13.2635965  83.5162277
  67.2728958  12.1025820  84.1586075  63.3338661  30.1895103  75.2735596
  64.2467575  30.4762993  75.2487869  62.9692192  30.6177464  76.0480804
  79.8630753  48.5377045  63.8925095  80.1258545  49.4513130  63.7806969
  80.6883850  48.0580406  63.9632874  28.4472809  27.7957706  82.8860016
  27.7028618  28.2562160  82.4986267  28.2558346  26.8687477  82.7438507
  13.7567139  70.2259445  38.4710617  14.2205286  71.0513382  38.6119041
  13.7369289  70.1216278  37.5197678  86.2153168   6.9765024  44.8598328
  86.0792618   6.0315351  44.7908516  86.5377045   7.1076045  45.7515221
   4.3459802   5.7750936  44.9200592   4.7104959   5.8401818  45.8027382
   5.0724115   5.4574256  44.3837624  18.0080070  68.4315567  60.1388779
  18.2594872  68.2502441  61.0444794  17.2075844  68.9513626  60.2120628
  56.3557663  18.3560066  86.0021286  56.9116631  19.0979977  85.7640915
  56.1613197  17.9256077  85.1695557  67.5118408  60.4690971  77.5768585
  68.2981262  60.4401398  77.0317459  67.1544724  59.5824013  77.5290604
   0.3047036  -0.0538998  30.6195946   0.1014015   0.8733855  30.4969501
   0.7414968  -0.3126998  29.8081360  23.3677731  30.3199978   4.1693168
  23.7430000  29.4724636   3.9303098  24.0534611  30.9536190   3.9581602
  57.5523605  45.3658485  22.2482700  57.5220795  45.3633308  23.2049885
  57.0457802  44.5956497  21.9905777  85.9952850  37.7629738  80.0162582
  85.1203079  38.0605164  79.7670441  85.8420486  37.1274452  80.7154388
  26.0552311   5.5517678  32.0724831  25.0999870   5.5493269  32.0113678
  26.3408718   4.9523058  31.3830738  16.9905968  54.1116219  68.9936371
  16.2525063  53.8673134  68.4352798  17.2974148  53.2828140  69.3612976
  38.2475891   7.6726046   9.8355761  38.9045334   7.8484478  10.5091743
  37.4342690   7.5409169  10.3228130  62.6638222  23.8870411   8.3794212
  62.3608818  24.0196228   7.4811568  61.8764305  23.6381531   8.8634634
   5.7867217  32.4339676  34.5750961   6.2621355  32.5241661  33.7492142
   5.1015205  33.1008949  34.5310974  26.1332588  12.8133545  15.1148243
  25.5699768  13.1706743  15.8013134  25.7516479  13.1375008  14.2990217
  50.2982521  49.9394989  55.0384064  50.6511574  50.5274162  54.3705482
  51.0449867  49.7445068  55.6046219  82.7253342  29.7297039  30.7715492
  81.7997894  29.5823326  30.9661980  83.0148239  30.3504429  31.4402122
  24.9607353  25.3802986  28.3739452  24.3584042  24.8564548  27.8457241
  25.8178825  25.2369556  27.9727173  49.7807007  65.0013580  83.6317368
  49.0990639  64.3531342  83.4545212  49.9958000  64.8761749  84.5560150
  76.2744522  48.3307343  86.8675461  76.9123993  47.8147583  86.3745804
  76.7499695  48.6184349  87.6468658  66.3731537  47.0439224  47.5534210
  66.4197540  46.6565170  48.4274788  66.3156357  46.2937393  46.9616890
  85.2127151  63.0814095   7.0575724  85.0416565  62.6385231   6.2264156
  86.1259460  62.8742104   7.2558579  85.1042786  22.8866730  76.3081589
  84.3713379  22.4845715  76.7743607  85.7444458  22.1812458  76.2144089
  18.5172024   2.4746671  61.4128838  19.1791325   1.7845829  61.4560509
  18.0943813   2.3481858  60.5634995  65.9881363  52.0313416  79.3144073
  65.8460236  51.2308311  79.8195953  66.3199158  51.7259865  78.4700699
  53.0869942  63.3713989  67.8379822  53.1892052  62.4766426  68.1623154
  53.8597641  63.8336029  68.1626663  26.3609676  44.6261177  33.0035019
  26.1643066  45.5559845  33.1171150  26.4665146  44.5173683  32.0583763
  21.5841503  64.1628342  15.4812489  22.1009254  63.9464722  16.2573681
  20.8557148  63.5420799  15.4978275  72.9015884  35.0747070  79.7373276
  73.2202606  34.6974297  78.9173660  73.4595566  34.6875877  80.4118958
  62.5904770  54.9869003  12.2175980  61.7015533  55.3405037  12.2493620
  63.1086502  55.5936928  12.7463083  29.9246731  70.1312943  24.6133156
  30.7345943  70.5316925  24.9294529  29.7825584  69.3857040  25.1965256
  17.4721317  67.6115189  23.1738033  17.3172989  67.0393829  22.4221916
  17.9216366  68.3727493  22.8067741  12.2525587  46.7144241  19.8052635
  12.9474049  46.0877762  20.0070877  12.6619606  47.3426056  19.2102757
  77.7654114  16.4133720  14.6586914  78.1760559  16.0757008  13.8627148
  78.4104309  17.0201092  15.0220890  78.7865219  33.5025330  11.0183268
  78.0337982  32.9941139  10.7164278  78.6943970  33.5242653  11.9708347
  81.7717590  43.8035507  76.1259995  81.7303467  44.5555725  76.7167435
  81.0775757  43.9628220  75.4864883  35.5710449  22.6325436  87.1378479
  35.1746063  23.4501686  87.4387741  35.0342979  21.9460964  87.5339813
   8.6361656  39.9563866   6.8011799   8.6246738  39.1606102   6.2693534
   7.9416265  40.5015564   6.4315310  84.0938034  24.6094894  70.9378281
  84.4921646  24.4156628  71.7863388  84.6242599  25.3220787  70.5813751
  33.7469215  48.1149101  15.8339357  33.1515541  47.3770676  15.9656744
  33.6802673  48.3126144  14.8997507   1.0422913  68.8244553  80.0680923
   0.8441150  69.2275925  80.9133301   1.4437534  69.5265503  79.5561142
  42.1191444   7.1189566  47.8597031  42.2478676   8.0431709  47.6464195
  42.6347466   6.9825082  48.6545372  49.8584671  33.9380226  11.1936722
  50.0980415  33.3066902  11.8720913  50.6097908  33.9490738  10.6006985
  79.8864517  24.0678654  53.3659058  80.2086639  24.9440804  53.5772324
  80.6751480  23.5655098  53.1614037  70.1407547   5.6708522  78.5981674
  70.9274216   6.0129428  78.1734772  70.4229202   5.4553561  79.4870834
  62.0249443  68.3867874  69.0134125  61.4731293  68.3422012  69.7942734
  62.8063316  68.8601608  69.2990341  30.2812710  55.1767960  28.4810467
  29.9899807  55.7847824  27.8015385  30.4792480  54.3676300  28.0095749
  83.6428909  67.3653870  30.0408154  84.1502304  67.9235229  30.6301556
  82.7329025  67.6192856  30.1947231  76.9685593  31.2270527  57.6834183
  76.7389374  32.1127052  57.9647102  76.1275787  30.7790203  57.5925407
   7.9185324  16.7571754  74.0327454   8.6246471  17.4011135  74.0873260
   8.0958157  16.2752151  73.2249603  85.5436172  22.3242569   1.9783770
  85.5730362  23.1916733   1.5747013  86.2978134  22.3085842   2.5675972
   2.7499073   1.8348333  29.4236927   3.0611422   0.9510747  29.2278976
   3.2583692   2.1038132  30.1887722  13.2362547  27.6412792  88.3179245
  12.7861805  28.4721889  88.1654282  12.7877226  27.2610245  89.0732040
   4.6338105  30.7782230   2.2573669   3.8211074  31.2831879   2.2848787
   4.3660932  29.8822098   2.4616165  37.9800720  67.4129028  31.4654064
  38.4489670  66.7736130  32.0017548  37.2532845  66.9194870  31.0852165
  32.1954994  52.9932098  56.7652664  32.2855644  52.9611397  57.7176781
  32.3309250  52.0891876  56.4813004  22.7037773   2.9866445  64.3197327
  23.0001183   3.7353637  64.8372574  21.9823284   2.6150987  64.8273697
  35.6234322  43.9638214  80.9216766  34.9315186  43.3266373  80.7442245
  35.8260384  44.3419189  80.0659714  62.9933701   6.8834028  36.7762833
  63.0477333   6.2799678  36.0352440  62.9758720   7.7528768  36.3763580
  67.9629288  40.3830528  22.1637516  68.0672226  39.5141869  21.7759094
  67.4189835  40.8610573  21.5377579  50.0354347  36.0221443  20.6136112
  49.4706039  36.6044312  21.1216812  50.5312691  35.5351143  21.2717781
  65.2103043  36.5818443  43.2262383  65.1417389  36.7574654  44.1646881
  64.4849854  37.0707245  42.8374596  48.6862564  37.9687119  21.9721603
  48.7473030  38.5568924  22.7248535  47.7664413  37.7048874  21.9483318
  21.5918331  48.7015648  64.7246628  21.6948471  49.6020203  64.4167709
  22.4853210  48.3618393  64.7746582  63.3626099  66.7118149  60.4223785
  63.1339607  67.6407547  60.3905602  63.2642097  66.4098663  59.5193977
  86.6764984  44.4395409  57.6378326  85.9880447  43.8231659  57.8875389
  87.2817230  44.4359131  58.3793945  84.7340851  45.1730652  36.4146957
  85.6605682  45.1624641  36.6550140  84.3801193  44.3666840  36.7897797
  46.0806961  13.5336924   6.5504460  47.0254288  13.5127277   6.7029901
  45.7154160  12.9698687   7.2322860   1.3119895   3.1067870  41.0997200
   1.9136887   2.3991237  41.3308105   0.5709386   2.6652050  40.6848946
   6.1233263  11.1748018  14.2147532   6.1349478  11.0759726  13.2627401
   6.2696939  12.1094761  14.3603287  49.6426048  67.6398468  44.1389809
  49.8519897  67.0310593  44.8473358  49.3374786  68.4300842  44.5846825
  67.7410812  52.2004280  85.6192169  68.6635056  52.0119133  85.7919464
  67.2882690  51.3801041  85.8148193  43.2002945  63.1061516  62.4268799
  43.0285263  63.9184036  61.9504585  44.1450043  63.1139717  62.5808182
  28.4051323  41.1525612   3.0386612  28.1288528  41.4317703   2.1657672
  27.9542942  41.7501907   3.6351619  20.7570248  62.9606209   8.9930601
  21.2407303  63.1325798   8.1851664  19.8822651  63.3124390   8.8279819
   4.2911978  61.8011971  48.3419876   4.8356171  62.5737457  48.4936790
   3.7645411  61.7194595  49.1370888  86.2652817  51.5870934  22.8663921
  85.8067245  52.3345070  23.2502327  86.5464401  51.0664482  23.6187935
   0.1683337  66.6978226   4.5694537   0.7871043  66.3203812   5.1946659
   0.0517853  66.0168152   3.9069788  41.6180573  45.2689629  23.7284756
  40.9733925  45.6529655  23.1341839  41.8545151  44.4363403  23.3197441
  27.5583057  37.7817726  71.7554092  27.3016644  37.3988495  72.5942993
  26.9049835  38.4621925  71.5928421  31.7138214   0.8373786  69.3373718
  31.1552162   0.1174229  69.0443573  31.6437454   1.4927034  68.6431961
  68.8030624  29.2121143   1.5164275  68.8550339  29.9014778   2.1784761
  68.2690430  29.5905685   0.8179864  40.2416077  53.3820801  48.3360214
  40.9586525  53.5537071  47.7255936  39.5741768  54.0298042  48.1097069
   3.7611232  61.1524620   7.0322633   3.4595425  61.9231377   6.5512829
   3.5987349  60.4202538   6.4375134  70.7606964  70.2753067  32.3519402
  70.4226761  70.0928497  33.2286835  71.6233139  69.8607025  32.3367462
  40.0920181  58.7209396  12.0151205  40.4756660  59.4913864  11.5962439
  39.1643105  58.9368439  12.1098747  71.1482697  67.9631577  40.6733665
  70.2434692  67.8684769  40.9710121  71.1475067  68.7692795  40.1572227
  52.6119614  12.9364853  69.6026382  52.0512238  12.1714249  69.4742279
  52.7428322  12.9812546  70.5497971  58.4114265  56.6428757  44.3277435
  58.2890892  57.2463188  45.0606308  57.9205208  57.0382919  43.6074028
  36.6693230   8.6737432  82.1077805  36.4326401   9.0663738  82.9480515
  37.1830978   9.3486986  81.6642685  36.0884056  25.3261013   9.1368990
  36.6515274  25.6903610   8.4539347  36.5981178  25.4180012   9.9418707
  39.5792313  51.4011345   1.5985490  39.0527573  51.7787895   2.3031285
  39.1043968  50.6105614   1.3421081  21.0637188   4.6549339  71.2736511
  20.6079540   4.7381215  70.4360352  21.3296108   5.5483069  71.4914017
  65.3953934  55.9232025  33.4940720  64.8835678  56.5484734  34.0071983
  66.2475433  55.8969574  33.9292564  22.1256943  18.2036819  81.7660522
  21.4592361  18.8748703  81.9129333  22.2818260  18.2237606  80.8218842
  36.3678093  70.2666473  61.0959549  35.4257164  70.2821045  61.2646408
  36.4559212  70.5899048  60.1993103  11.0648623  71.3105469  27.6130905
  10.5676088  72.0942993  27.3791885  10.6553993  70.9991531  28.4203110
  35.9297371   3.1809030  17.6660309  35.4988327   2.5176201  18.2051125
  35.9252739   2.8116941  16.7829132  49.9819069  45.7679367  11.1554432
  49.5051384  45.1047897  10.6562843  50.7734222  45.9307747  10.6423931
  11.8235312  26.4684124   8.7282038  12.4701748  25.7648659   8.7839394
  12.0961418  26.9847507   7.9697123  18.2515259  17.0924263  15.3492746
  18.2017441  16.7522697  14.4559402  17.9505711  17.9982643  15.2777624
  46.7338829  55.2104492  58.7002449  47.5826340  54.7770195  58.7896576
  46.6142311  55.3102608  57.7558098  34.6715927  43.6892395  66.1341782
  35.0809326  43.4946060  65.2910919  34.7909737  42.8907700  66.6484070
  36.0035362  56.8291054  49.0281029  35.0969391  56.7544289  48.7302170
  35.9419632  57.2732430  49.8737869   4.9614568  24.0467720  55.2462540
   4.7240219  23.1362305  55.0708389   5.4905248  24.3059349  54.4918289
  74.2731171  45.0400352   6.5749178  73.9959488  45.3552170   7.4351907
  75.0394363  44.4954185   6.7548532  23.2178059  54.7316551  30.5654888
  23.1782608  53.9763069  29.9788742  23.1115303  54.3605042  31.4413795
  20.4977341  59.3636169   5.0912914  21.4192810  59.6190186   5.1331859
  20.4314289  58.8357353   4.2955675  75.6811905  71.2637939  80.4510727
  75.2987976  72.1312485  80.3186722  75.9619217  71.2629242  81.3661804
   1.9871562  42.9650497  66.6160736   2.0873516  42.3046150  65.9304962
   2.5270712  42.6442337  67.3384323  58.5392990  55.4411087  47.6405830
  58.2381744  55.1450157  48.4995842  58.1991844  54.7877769  47.0292625
  84.1899719  10.0458469  38.8493996  84.1370239   9.0995522  38.9833946
  85.0379868  10.2928982  39.2182655  15.8802958   2.7529643  26.1303024
  16.1797199   2.7582746  25.2211552  16.4157295   2.0826981  26.5549011
  81.7573471  27.6003609  87.1904221  82.5668106  27.1783752  86.9024506
  81.0924835  27.2865868  86.5774536  10.4398308  12.3395567  43.8217888
  11.3856831  12.3843422  43.6818275  10.1830091  11.4941092  43.4536972
  86.0679779  39.6535225  48.8707428  85.2705841  40.0733376  48.5480347
  86.7729111  40.2466545  48.6109314   5.6752276  17.1297035  32.1881561
   5.7328415  17.0541153  33.1406288   5.7594223  16.2305069  31.8710041
   2.6598971  10.6725016  26.6157188   1.8476566  10.1660519  26.6181660
   2.5288792  11.3320160  25.9344654   6.8693552  27.4125118  75.0982361
   6.6976223  27.6369133  74.1836929   6.0886459  27.7064266  75.5676346
  79.2278366   1.0721716  48.4124908  78.3896713   0.7337463  48.0975609
  79.6637192   1.4015063  47.6264992  75.7888260  17.2415581  84.2138748
  74.9020157  17.3558998  84.5555267  75.6636581  17.0297661  83.2888260
  46.6257095  52.4915352  14.4630747  46.3380127  52.8921700  15.2834120
  45.9398422  52.7150497  13.8339033  74.1936798  15.4489117  57.7428207
  73.2872009  15.3058910  58.0149879  74.7152786  14.9661999  58.3840332
  62.9991264  53.5675316  29.8385887  63.5890007  53.5885391  30.5921364
  62.4561272  52.7922287  29.9810200   9.9620285  58.7209663  16.9806004
  10.4871950  57.9790535  17.2805958  10.5618467  59.2365990  16.4415512
   4.6346970  26.0592117  14.9014072   3.7132468  26.0197010  14.6452808
   5.0231633  25.2716923  14.5204382  70.7032166  42.4128532  56.5245247
  70.9646454  42.1183662  57.3969727  70.7366867  41.6228600  55.9850616
   9.8828974   6.0042949   2.6686473   9.3757572   6.6299829   3.1859052
   9.4853325   5.1554093   2.8624682  12.4200382  57.9792595  48.9995461
  12.0313873  58.0669022  48.1292000  13.3438501  58.1950798  48.8721657
  58.5020256  38.8724251  80.2768250  58.1978493  39.5357780  79.6574097
  59.0189934  39.3615646  80.9169159  25.4831963  31.2838459  58.9566193
  25.8627682  31.5853157  59.7820129  25.0109615  32.0445595  58.6181793
   5.9002552   6.3537297  13.2810278   5.1293445   6.8767185  13.0610008
   5.9317741   6.3642859  14.2376509   2.8897889  18.5345554  84.4375076
   2.9786489  18.3764420  85.3773651   3.2425754  17.7448940  84.0273743
  60.7830734  45.8540192  25.6115646  61.4341583  45.9885597  24.9229259
  59.9542198  46.1185951  25.2125225  34.2973137  70.5087967  30.9279728
  34.3221054  71.2586136  30.3335056  33.7441864  69.8675690  30.4817600
  29.3287487  50.2978401  32.5969543  29.2680435  49.3540382  32.4493637
  29.0593948  50.4156265  33.5078926  69.7185287   5.9295344  75.2717514
  70.5033417   6.4064779  75.5416183  69.8795395   5.0274148  75.5483170
  40.5080719  20.5626431  34.2589111  40.2176514  20.2059231  35.0983391
  41.2286987  21.1506958  34.4850082  25.4060688   9.1993771  88.0811462
  24.6132469   8.8542995  87.6705551  25.6866570   9.9080572  87.5021210
  80.4117203  18.7171326  27.5185795  80.8423996  19.5712471  27.5537853
  81.0759811  18.1285534  27.1600132  13.7309799   8.6391096  27.1107960
  14.2622366   7.8435292  27.0784035  14.1239443   9.1612053  27.8102436
  84.4831543   3.2826598   6.7454338  83.8337326   2.7389438   7.1913667
  85.3229141   2.8750327   6.9572687  58.0680161  50.7076988  22.2580147
  58.8357735  50.4306717  21.7579784  57.4233437  50.0158081  22.1099873
  40.5932922   2.6251881  60.2835197  41.2015648   3.2201335  60.7220154
  41.0210381   2.4141808  59.4536171  84.2400513  49.0548706  11.0989761
  84.1983490  49.5792313  10.2992640  83.5826721  49.4445000  11.6754093
  52.9769173  53.0449905  55.3297081  53.0977402  52.3023071  55.9213676
  52.8378410  52.6465950  54.4705391  85.6745377   8.5640459   9.1794949
  85.4706573   8.3022070  10.0773277  85.3783798   9.4724483   9.1218138
  77.3849945   5.1516609   8.5346279  78.0247650   4.5007887   8.2460365
  76.7949448   4.6677127   9.1124458  74.7269135  40.9180717  43.6514320
  73.9417267  41.2491646  43.2154388  74.7316818  41.3570328  44.5020294
  60.9013672  25.2593899  89.2119370  61.4641380  24.7866879  88.5986938
  61.1633110  26.1754532  89.1200485  69.4328308  16.5992336  15.2828217
  68.8005524  16.6965408  15.9948559  69.8195419  15.7348194  15.4223661
  82.3977127  44.4078674  32.4947128  81.6455231  43.8638687  32.2612457
  82.5830460  44.9128494  31.7029533  42.2416344  63.1654396  14.7570524
  41.3096161  63.3164062  14.9144936  42.6856842  63.7129173  15.4046011
  31.4531689  18.1104641  71.7584381  31.5154324  17.6289043  70.9335403
  31.3173103  17.4334545  72.4213333  59.3210182  53.4273911  19.3168545
  59.4682007  53.7711296  18.4357128  59.0105553  52.5329247  19.1762466
  56.2698250   5.7565780  38.7834435  56.1380920   6.4289765  38.1150436
  56.6224174   5.0073614  38.3032532  32.5493622  48.5529442  31.6899567
  32.0187645  47.7566681  31.7152996  33.2657585  48.3444099  31.0903568
  21.8265343  53.9913521  26.3788910  22.7191658  54.1058769  26.0528183
  21.6109562  54.8301888  26.7864552  38.8300362   0.3682594   9.0795050
  38.4655266   0.9230149   9.7691507  39.7388306   0.2242136   9.3432837
  86.5519409  56.6347580  27.4091415  85.7373047  56.2034760  27.1510773
  87.0745697  55.9397583  27.8092232  36.1251411  60.1456833  45.5355263
  36.0564270  60.1550789  46.4902077  36.6353951  60.9275398  45.3244133
  86.1683502  69.9620056  42.4738846  85.4854813  69.9258347  41.8041000
  85.8722382  69.3535919  43.1509247  48.3937225   9.0719156  48.0231895
  47.9663353   8.2217379  48.1269760  47.8254509   9.5538979  47.4223595
  44.8508377  59.4369469   2.3827479  44.0203934  59.2581177   1.9415971
  44.5988350  59.8417854   3.2127078  36.3568306  38.6079826  70.3340073
  35.7653656  39.0314026  70.9561920  37.0322418  38.2065964  70.8807602
  55.5492897   4.7909684  80.6206055  55.0303154   5.4218702  81.1194611
  55.2036324   3.9372308  80.8811493  59.8936081  39.7178421   1.9345816
  60.3065300  40.1490021   1.1863636  59.1844521  39.2012177   1.5519223
  76.4326630   8.1036606  14.4256792  76.6092148   7.5950460  15.2171164
  75.5080185   8.3412819  14.4949770  25.7208290  26.8884602   6.1766958
  26.6608791  26.8100109   6.3391185  25.4197998  27.5319214   6.8182340
   0.4368079  47.0708008   7.1285505   0.6400261  47.6823997   6.4208236
   0.3443154  47.6241341   7.9041123   6.8557882  59.6870651  64.7666931
   6.7551956  59.7475014  63.8167114   6.3460274  58.9152107  65.0128937
   9.9998312  52.0283241  83.4929810  10.9247818  52.1316452  83.7166443
   9.9511986  51.1742058  83.0636215  16.3193512   7.9966140  23.9829388
  17.1857681   7.6106620  24.1117706  15.7822571   7.6170721  24.6784306
  33.8520432  61.1968918  60.8060226  33.5086327  61.5527153  59.9864540
  34.7886467  61.3924141  60.7781944  81.2590561  55.9806366  82.1931000
  80.5373306  56.1492615  81.5873718  81.9604874  56.5609627  81.8973846
  65.8155365   8.5757313  80.7662659  66.6919708   8.4944019  80.3901291
  65.3592453   7.7830563  80.4839630  30.8748055  48.9247398  66.1670303
  30.0139046  49.0932007  65.7840118  30.7473850  48.1466484  66.7097702
  67.2059860  59.8339081  34.7768440  66.4779434  59.9834824  34.1736794
  66.8328247  59.9860420  35.6450844  51.5865326  28.8099194  66.9864807
  51.7111931  28.3524418  67.8179855  51.2827644  29.6825542  67.2364120
  43.5166283  69.1912994  85.7221756  42.9581413  69.9486618  85.5468826
  44.4066544  69.5435104  85.7161331  70.8331909  35.3722992  36.6763611
  70.3061218  36.1030083  36.9996147  70.4418182  34.5976524  37.0800667
  47.7561913  34.7878189  16.8812008  48.2045937  35.6243210  17.0054340
  47.1452217  34.9480667  16.1619873  26.3797169  66.4565201  78.3953400
  26.0042191  67.2759781  78.0732651  26.1171532  65.8020401  77.7480774
   1.1399435  43.7357063  32.4129486   0.3354543  44.0520172  32.8240204
   1.0005647  43.8739357  31.4760952  16.0273743  20.6618652   1.1092522
  16.7947044  21.2250900   1.2103109  15.7390432  20.4868984   2.0050669
  79.4207916  66.0698242  66.9415131  78.6496353  65.8337555  66.4259262
  79.6576233  65.2641220  67.4008408  53.0287819   0.3005588  74.5683670
  52.6442833   0.5076618  73.7166061  52.7657890  -0.6043679  74.7362213
  22.0307159  35.3774147   1.6400607  21.3645153  34.7849083   1.2917154
  22.6814442  34.7989082   2.0376968  47.4988823  55.7430305  16.1623859
  46.8032188  55.1326256  16.4067020  47.1005974  56.6087227  16.2527943
  33.6689072  29.9160404  12.9262762  34.4468040  29.4253197  13.1914196
  33.2617416  29.3730736  12.2512703  71.8164520   5.6855335   6.6771231
  71.9990463   5.5698400   5.7446494  72.6157303   6.0755062   7.0311103
  62.3809052   8.8624268   1.6097327  62.6546516   9.6644249   2.0548120
  62.9384308   8.1794271   1.9824387  75.5418701  49.3255959  14.9147062
  75.6939926  48.5430794  15.4445744  74.9149475  49.8406105  15.4225979
  63.0378151  70.1567307  64.1201477  62.8310356  69.3748398  64.6321182
  62.5839806  70.0249252  63.2877464  32.8225632   7.6234956  88.7618103
  32.7550011   7.5591908  87.8091660  33.6641884   7.2179227  88.9701538
  74.0978165  57.5386238  51.7637978  73.3783035  56.9127502  51.6812592
  74.7175674  57.1142120  52.3571129  22.1632309  54.6065979  11.6801739
  22.0841389  53.7564354  12.1128407  22.3222103  54.3935013  10.7606373
  58.2282066  29.5630245  37.3937111  58.6395493  28.7028427  37.3093452
  58.6522903  30.0981426  36.7228622  19.7432480   9.5277615  20.8715000
  20.0365849  10.3801270  20.5495415  20.3434963   8.9001627  20.4689407
  12.7223473  35.2455482  52.4002647  12.8566914  36.1883354  52.4968910
  11.9698572  35.0522957  52.9594078  12.9451590  42.9483109  10.6926098
  12.2588968  43.3888664  10.1914272  13.6985950  42.9302330  10.1024923
  42.6961823   9.6243286  47.1343002  42.6759758  10.0542021  47.9893036
  42.3394890  10.2756071  46.5302849  40.1862679  13.1425047  76.7395325
  40.8123169  13.7868881  76.4092789  40.5789909  12.2959785  76.5264740
  66.5694962  46.2383270  43.8648567  66.1147232  46.5507469  43.0826797
  66.6750793  47.0191040  44.4084320  28.5670986  47.6606979  15.7411709
  29.1796474  47.6891823  15.0061846  27.9582710  48.3800507  15.5735683
  25.0812531  55.5159760  64.0711136  24.9932995  55.3535690  65.0103302
  25.4764290  56.3859520  64.0144577  61.5981674  29.4011822  79.4417877
  61.5111809  29.4495850  80.3937988  61.1321106  30.1725082  79.1191711
  63.7522240  24.1437759  78.6941071  64.1595764  24.0257835  79.5522308
  63.9405327  25.0532684  78.4626083  19.8031921  64.0764618  47.9288254
  19.7869053  64.8006287  47.3030891  19.5145531  64.4663773  48.7539787
  12.8977251  43.2749443  75.6197205  12.4873781  42.4968147  75.9970322
  12.6358128  43.2613144  74.6991501   1.1895213  61.5246353  29.5597038
   1.6577178  61.0758400  28.8557110   0.3098480  61.6663780  29.2099667
  63.3453407  13.9483690  58.2780800  62.6188965  14.5670042  58.2019157
  63.6529427  14.0498753  59.1788101  80.4115524  63.4734230  37.3963776
  79.8023376  63.0050125  37.9670601  81.1490860  63.6958466  37.9645348
   0.6418902  53.4576950  48.5267868   1.3743184  53.3418121  47.9215164
  -0.1308260  53.4960556  47.9631653  13.6186886  24.3098488   8.5001373
  13.4737015  23.3967819   8.7481709  14.1480122  24.6701622   9.2116308
  12.7583351  37.5628548  74.2003098  12.8958635  36.7231178  74.6386795
  11.9001455  37.4784317  73.7848434  10.1172819  45.9464722  66.5672302
  10.3682241  45.2164459  67.1331940  10.6473827  45.8313255  65.7785873
  23.0354652  54.8796272   8.7405634  22.0843868  54.7812347   8.6958313
  23.1796379  55.8256721   8.7194729  47.9426765  49.4270096  19.6860981
  47.4772110  50.0509529  20.2431164  48.4502029  49.9736862  19.0862675
  74.3515320  13.8340263  23.8049507  74.5063477  14.2701960  22.9670849
  73.4434280  14.0458822  24.0210629  53.4794312   6.6659842  37.0714836
  54.1898537   6.3066468  36.5400658  53.0802956   7.3358717  36.5163498
  56.9314919   1.5944834  80.9535904  56.6454887   0.8011006  81.4063339
  56.1193886   2.0522084  80.7363129  74.9337769  12.2223606  17.4075890
  74.4216080  11.7536087  16.7486610  75.8118591  11.8473759  17.3397655
  31.8219891  46.7713547  37.2447166  31.5228977  47.0276451  36.3723106
  31.4951420  45.8787651  37.3573418  64.7760468  42.9965172  86.4315567
  65.5805740  42.7972145  86.9103546  64.1134033  42.4335594  86.8318253
  50.1043777  67.5847244  37.3805237  50.5408440  66.7370071  37.2962608
  49.4325294  67.4429626  38.0474205  37.0553551  66.7287674  25.7091999
  36.1981621  66.8863983  26.1049366  36.9961700  67.1296310  24.8420010
  64.4108200  27.5961971  86.5642624  65.2351685  28.0313091  86.7818527
  64.6731415  26.7352409  86.2384262  12.0690050  21.9349918  68.7584152
  12.9753828  21.9830952  69.0623856  12.0426779  22.5078735  67.9920273
   7.5819812  63.8699608  38.8730087   7.1376047  63.5550423  39.6601448
   8.4955902  63.9737511  39.1390495  47.6069984  71.1923065  79.9550629
  47.3360367  70.5654678  79.2843323  48.2273865  70.7074509  80.4993744
  85.5329514  58.2702484  73.2395325  86.1420593  58.2951889  73.9775009
  85.8706055  58.9247055  72.6280518  22.3610477  64.2691650  18.1243553
  21.9163532  64.5890045  18.9093266  22.9927864  63.6285973  18.4511795
  69.1002579  19.0644474  72.8312683  68.6916885  18.9168758  73.6842194
  69.3360291  18.1891098  72.5239716  37.8127670  54.8773880  77.9255829
  37.3902092  55.7092133  77.7117157  38.7429848  55.0320702  77.7612686
  18.5107212  52.6427078  88.5661316  17.6404896  52.2755280  88.7213974
  18.5860348  52.6854973  87.6128540  66.2927780  13.3949022  48.3080215
  66.4690552  13.4068460  49.2487755  67.0325775  12.9180851  47.9317551
  26.8685799  53.7783394  10.8392353  26.0385170  54.2216797  11.0143814
  27.4854469  54.4875832  10.6584711  46.8240814  12.3320742  82.2220993
  47.7306328  12.2554436  81.9245758  46.4890671  11.4356232  82.2027664
  81.0127029  65.8809738  74.9630966  81.7685318  65.9384155  75.5476151
  80.5313721  66.6945953  75.1133270  64.7187958  37.2238121   9.9999170
  64.5366440  37.2738419   9.0615406  64.7385330  38.1360893  10.2890406
  53.6737938  61.6175232  35.9681511  54.3260574  62.1145287  35.4744225
  54.1597366  61.2537003  36.7082329  55.5128860  42.3934135  53.9785690
  55.9408913  42.8225594  53.2377052  56.2192001  41.9276962  54.4262962
  28.9801731  52.5794716  59.0532227  28.0781078  52.3591576  58.8209000
  29.0914974  52.2313614  59.9379005  26.4784966  64.5797501  66.4853592
  25.5572243  64.6694641  66.2415466  26.9104462  65.3248520  66.0676575
  79.9279022  23.0529346   3.8242590  80.0600357  22.7004871   2.9441719
  79.2671051  23.7362766   3.7118919  77.5432663  37.2632828  33.3871613
  77.7814865  36.7016144  32.6495895  76.5916214  37.1830521  33.4517288
  20.2129040  45.8156204  36.4155807  20.7216682  45.8955765  37.2224236
  19.7676678  46.6584969  36.3286552  73.9170837  36.9662209  38.6778374
  74.1856308  37.8848381  38.6938934  73.9421768  36.7255020  37.7517395
  24.3072109  21.0365543  81.4764938  23.9196644  20.7543831  80.6479874
  25.2499599  21.0405827  81.3108521  16.5034370  35.7471848  11.2886000
  17.3818054  35.5245819  11.5970592  16.0390644  36.0342331  12.0748529
  86.3148422  48.3521996  12.8354921  85.7454071  48.3254738  13.6044254
  85.8177414  48.8501434  12.1865129  67.6960983   4.1674161  36.9955673
  67.6818848   3.2479386  36.7298775  67.5382004   4.1464620  37.9394226
  68.5641022  59.9576378  15.8107777  69.4221344  60.2060585  16.1547222
  67.9611511  60.1098213  16.5384617   5.5669274  11.7795305   2.8907483
   4.6988001  11.7510004   3.2929585   6.1573100  12.0014658   3.6107659
  20.7539368  45.0268784  59.8625259  20.0617771  44.4547081  60.1938438
  20.6563854  45.8361435  60.3643227  49.4246941  15.5705166  17.6238308
  49.5844879  15.9252501  16.7492676  48.8969345  14.7866020  17.4715805
  10.5223303  54.0761719  81.3480148  11.4149189  53.8182487  81.1178131
  10.5265112  54.1263771  82.3038864   4.1797118  50.3778267  76.1535034
   4.5529175  50.0697174  76.9793472   4.9375091  50.5182228  75.5858154
  64.3309708  28.7448597  53.0946732  64.1887360  27.8380032  53.3659859
  63.5314941  29.2014275  53.3566055  72.0934067  43.1227036  79.4423370
  71.1809845  43.2749214  79.6884003  72.1329269  42.1891327  79.2346954
  62.7563286  29.4536114  33.4883575  63.3215866  30.0188770  32.9618645
  63.3375130  29.0880680  34.1553192  51.7926407   9.1844549  26.2552719
  52.5280876   9.6606436  25.8697891  51.0256805   9.7170353  26.0446568
  81.5168686  45.9385262   6.7169595  82.4008942  46.1313324   6.4046183
  81.2768021  45.1266632   6.2703366  21.6054630  42.6440315  86.8079300
  22.3512230  42.4478683  86.2408447  21.2297268  41.7881546  87.0141525
  77.4602051  20.2388134  27.9951401  77.4195328  20.8858624  27.2909355
  76.9519501  19.4965725  27.6680622   8.2514048  64.0519485   7.3728042
   8.0889215  64.9949265   7.3478560   7.6529198  63.7234497   8.0437269
  73.0237503  55.6449203  71.6891632  72.9275818  56.3999023  71.1086655
  73.0800171  54.8940353  71.0982056  41.3747559  63.1240349  58.9241524
  41.6585159  63.9593506  59.2955818  42.1087952  62.5302086  59.0816002
  71.0897293  54.1297913  77.8716888  71.1239624  54.8306274  78.5227585
  70.8571472  53.3482704  78.3730469  29.2268810  19.6814690  81.8368912
  29.8923798  20.3267593  82.0755157  29.6389465  19.1543522  81.1523590
  68.6959991  15.9566698  67.4316101  68.9469147  15.7612267  66.5287933
  69.5157242  16.2031574  67.8600082  23.7332306  37.3864555  53.1119156
  23.1976147  38.1672134  53.2525063  23.5918217  36.8547592  53.8952026
  63.4360809  43.5224762  34.7527313  64.3034592  43.1973305  34.5115509
  63.4219589  43.4806480  35.7089119  70.5136414  30.2417297  71.9885712
  70.4580154  29.6494675  71.2386627  70.9636154  31.0156269  71.6497040
  79.5586395  22.4520912  14.6570206  80.5115280  22.3613892  14.6610374
  79.3888321  23.2198906  15.2028027  53.5637398  55.4319496  53.9790993
  52.7130013  55.2224503  53.5936279  53.7901192  54.6580124  54.4948578
  65.4822998  29.4384727  69.3822021  64.7056427  29.7800903  69.8252945
  65.6731491  30.0839634  68.7016449  85.4730225  40.9926414  44.8903694
  84.8737335  41.5046539  44.3473053  85.1774368  40.0882263  44.7860260
  67.3739624   7.7921696  33.2575035  67.5528564   6.9356546  33.6455879
  67.4537582   7.6491914  32.3144112  61.9783020  21.0624332  82.5149536
  61.6370697  21.9544964  82.5783005  61.5896301  20.6038628  83.2598572
  65.3539810   2.6480062  84.8164291  66.2971039   2.4982617  84.7507095
  65.1797104   3.3544118  84.1944504  48.6552925  29.8812065   8.9276695
  47.8542633  30.2157307   9.3310032  49.1531410  29.5098381   9.6560011
   7.4010959  28.1813717  54.5600433   7.7071609  28.7477341  53.8516731
   6.4887366  28.4377937  54.6945038  12.5244389   3.4053111  12.0678520
  12.5544701   2.7431157  12.7583790  11.6020412   3.4464610  11.8154211
  38.6136398  22.9077435   3.3188756  38.2685242  22.2305870   3.9007552
  39.5617027  22.8723412   3.4459801   6.6176901   5.0255604  32.6198883
   6.0750976   5.8139219  32.6375389   6.0068393   4.3190255  32.4103584
  63.5855141  63.1053925  85.9488144  64.2102432  63.1078568  86.6740341
  63.9833870  63.6722107  85.2880249  66.4354095  55.1851845  56.1829605
  66.6672211  54.7198868  55.3792191  66.4152603  56.1076775  55.9283447
   0.0196744  46.1359062  65.7577209   0.6571954  46.6092339  65.2231522
  -0.5542158  45.7073593  65.1227112  77.0365295  60.3993874  74.9170685
  77.7533722  60.3793755  75.5510788  76.2754440  60.0866203  75.4061050
  64.0152512  31.1986523  66.8463669  64.0151825  31.6776485  67.6750946
  63.1078606  31.2418156  66.5446930  77.1730576   9.9177103  84.7567215
  76.6584625  10.3774300  85.4201126  77.1018906  10.4664478  83.9756622
  65.5992889  40.0336800  89.1438370  66.0513611  39.3907509  88.5974808
  64.7487183  40.1515770  88.7209167  85.2115326   5.7995067  72.8798599
  85.3881226   4.8942871  73.1360321  85.9635391   6.2923832  73.2081604
  47.5667648  61.0716896  81.6881180  47.9077988  61.3448410  82.5397720
  47.4074860  60.1327057  81.7838669  25.1726856   6.9826574  35.6277733
  25.0495434   7.5469065  36.3911133  25.5990314   7.5446734  34.9807816
  64.7632217  58.0583458  23.5814781  64.3267670  58.4069557  22.8041687
  65.0172195  57.1689987  23.3349400  27.3547134  38.0010834  11.0640306
  26.7790356  37.2392883  11.1310701  26.8323231  38.7268448  11.4055204
  68.6576462  50.9545670  65.3290634  68.7665253  51.8836250  65.1260147
  67.7781906  50.7425156  65.0162964  50.6181831  56.4156914   2.3764813
  50.3778419  57.0403328   1.6921631  51.1308784  55.7475471   1.9215578
  41.4656067  51.0079651  48.8851013  41.8885803  51.0706024  49.7414932
  41.0204506  51.8482742  48.7757988  31.8338146  20.2455177  16.2154922
  32.2756996  19.4031487  16.3221970  31.2072048  20.0992107  15.5068407
  85.0146027  48.5735664   3.3088825  85.1905441  47.8756294   2.6778829
  84.4334488  49.1756821   2.8441761  11.5298748  33.8011208  22.3897915
  11.5919266  32.8480225  22.4529552  11.4693785  33.9754791  21.4505520
  17.3722591  40.6574249  73.4347305  18.0673332  40.0220833  73.2631378
  17.0971622  40.4746628  74.3331528  14.2911873   0.1407859   0.8297356
  13.4374743   0.4278830   1.1537430  14.6273394   0.8925287   0.3417639
   0.5674266  55.7892838  32.0606384   0.7596491  56.6773758  31.7596798
   0.4214917  55.8817711  33.0021172  27.7174339  68.0324173  28.4982319
  27.0258675  67.9118881  27.8475113  27.7867813  68.9815521  28.6010456
  19.7961788  54.6716576  40.7611885  19.9433270  53.7261734  40.7865143
  20.6106052  55.0497742  41.0928078  54.8243828  57.2547417  35.5524940
  54.3648643  57.8388748  34.9492836  54.9884605  57.7918129  36.3276482
  58.7427597   3.1339810  82.2675629  58.4693718   4.0343428  82.0919495
  57.9557610   2.6107452  82.1156006  60.1689835  45.5004539  21.5002995
  59.2558098  45.2285538  21.5920372  60.6233597  45.0599174  22.2184238
  18.4714336  26.7829189  64.1732635  18.0127888  26.5102787  64.9679565
  18.1192780  26.2160511  63.4870567  21.0769978   5.5475264  84.9982147
  21.2541828   6.1854987  85.6894684  21.7967548   4.9196920  85.0615082
   4.9431481  36.1135559  38.4841576   4.4663548  35.3431091  38.1754303
   4.2745204  36.6587563  38.8987961  16.4161987  21.6788731  68.7115631
  17.0579014  20.9738159  68.7972488  15.6727514  21.3918343  69.2417755
  31.2808514  37.9431801  -0.3604262  31.1820679  38.8105087   0.0322813
  31.5929031  37.3901062   0.3557878  20.8149357   3.5291064  87.8692627
  20.7115364   2.6163363  88.1383209  19.9220524   3.8336904  87.7073288
   1.2872679  42.3330803   2.5492415   1.3619169  42.1553955   3.4868381
   0.6479456  41.6939888   2.2345068  49.0512199  42.7712746  72.0653305
  49.3434410  41.9117241  71.7620010  49.0158997  43.3059044  71.2721405
  81.1843262  31.4353352  56.3217087  81.2006454  31.8616562  55.4648476
  81.9581299  31.7736053  56.7723045   8.6170254  12.1688938  37.2135048
   8.1075964  12.9315357  37.4875374   9.0313215  12.4394398  36.3941193
  85.4637222  39.4790459  69.8751984  85.4794464  39.1251144  68.9859772
  85.9020767  40.3269310  69.8032913  27.3171387   9.7096462  17.0910912
  27.5089912   8.9654636  16.5204620  26.4607239   9.5078983  17.4680309
  18.0135231  27.3041344  81.0017319  17.0746384  27.1894665  81.1486282
  18.0681934  27.8602848  80.2245941  76.9595032  13.5233040  64.3027954
  77.2829285  13.4703770  65.2021484  77.6039352  14.0656528  63.8480492
  19.1727142  19.1213551  76.6660690  18.4262390  19.7069931  76.7926941
  19.7561531  19.6007404  76.0778351  82.3419418  35.4731598  -0.0429628
  81.4612732  35.2580566   0.2642577  82.8998871  35.3519363   0.7253041
  61.4992142   0.2291263  33.9919777  61.3008270  -0.3029880  33.2214394
  62.4554634   0.2579763  34.0233917  86.4736404  42.3177185  14.1115713
  85.7489700  42.8038406  13.7181540  86.6118011  41.5756683  13.5229206
  22.4912949  19.0602150  67.1838150  22.7535515  18.5637436  67.9590378
  22.6597481  18.4673748  66.4514236  63.7283020  69.8853455  82.9949646
  63.2043076  70.4563217  83.5567932  64.3938217  69.5205994  83.5783005
  60.6695633  56.9617081  31.6811409  60.6252556  56.0136223  31.5570297
  61.0379715  57.2934875  30.8623447   5.6009221   5.7075071  28.6693077
   5.7852688   5.6613817  27.7311611   4.7020974   6.0325685  28.7210827
  24.7889366  20.3467827   0.1267289  25.5931187  20.2592182  -0.3849882
  25.0897274  20.4543114   1.0290558  84.6201248  63.8219109  73.3238754
  83.8472900  63.3692627  72.9861374  85.1188812  64.0599670  72.5423355
  63.8756104  71.2192307   1.1043814  64.5195847  71.9252548   1.0490175
  64.3998260  70.4234619   1.1948674  18.1228104  63.9441528  73.5933075
  17.5613022  64.1827621  72.8557434  17.7518387  64.4157257  74.3391190
  80.3941879  35.2110672  29.2175388  80.8674469  34.5710716  29.7492046
  80.2921906  34.7863121  28.3658276   9.9158020  35.9836311  20.5401249
   9.2707539  36.0503998  19.8360748   9.3927555  35.8825264  21.3353806
  37.2027130  65.1706085  59.3735237  37.2088890  65.6146698  60.2214622
  37.8970451  64.5152130  59.4413223  38.6514168  34.2450829   8.9475622
  39.5832253  34.2188644   8.7301302  38.6042976  33.9049377   9.8410463
  50.4181442  53.8464241  73.8068390  49.6295509  53.7703476  74.3440170
  50.3315620  54.6953468  73.3731766  86.7640533  53.5156479  53.5961990
  86.8420181  53.0208702  52.7805099  86.2324142  52.9583244  54.1645088
  20.8107643  54.4489212  67.2669678  20.7821865  53.7442932  67.9141998
  20.0289230  54.9710846  67.4466934  21.2889290   9.3467274  36.3157158
  22.1678658   9.0398798  36.5383110  21.0178127   8.7885761  35.5868835
  73.0941467  24.7008495  85.2150192  73.8967514  24.6070747  84.7019196
  72.4635849  25.0842628  84.6054153  85.5613022  62.2834740   9.4926720
  86.4415512  62.6306763   9.6370506  85.3174591  62.6026649   8.6238289
  41.6667747  62.9643517  30.2768612  42.5211945  62.5360031  30.2247391
  41.8401489  63.8745995  30.0368118   1.8967938  17.7163010  39.4149208
   1.8667465  18.0295544  40.3189125   2.8228245  17.5340996  39.2552261
  22.9543018  52.3368988  84.4575119  23.5725174  53.0413017  84.6520767
  23.0451317  52.1918488  83.5157318  79.8711700  11.0378714  34.7088089
  78.9355087  10.9259214  34.5407753  80.1533737  10.1947784  35.0634689
  19.4901466  33.5746078  26.9572010  19.8815308  33.6921425  27.8227863
  19.2284756  34.4560204  26.6909752  21.5318642  12.3702421  59.5138168
  21.4980507  12.7011261  58.6162643  20.6387577  12.0773315  59.6949120
  21.7413006  41.0865860   8.2103338  22.1603298  40.5369415   8.8725529
  21.9791164  40.6806602   7.3767281  25.0071163  23.8596478  12.1926527
  24.9339638  23.2630749  12.9376240  24.1140327  24.1718864  12.0472536
  41.0981407  50.8070412  22.3755608  41.2915001  50.3696556  21.5463791
  40.1753807  51.0522308  22.3075333  70.5562057  59.0116539  40.0308723
  69.7231979  59.3173790  40.3898354  70.3344116  58.6782570  39.1614532
  63.9371529   6.7606640  52.2569466  64.0760040   7.6722784  52.5136795
  64.7780151   6.3344073  52.4227486  85.2278595  65.9713974  11.7819462
  84.8031998  65.2891312  12.3019590  85.0512390  66.7816849  12.2599382
  50.4909439  58.8427849  60.0355682  50.1874733  58.4694481  59.2080688
  51.0920715  58.1866341  60.3881950  40.2356987  52.5040703  75.8736115
  40.3424530  53.1572647  76.5651169  41.1299248  52.2752037  75.6202164
  68.5912247  26.1824665  83.1609268  68.0651321  25.5576363  83.6599655
  68.0838547  26.9938450  83.1825333  59.1190834  35.6115417   7.9123478
  59.8740425  35.3084373   7.4079738  59.4614067  36.3254814   8.4502516
  53.8439217   2.8744242  29.5550747  54.2066116   2.4382868  28.7840538
  53.0491104   3.3022583  29.2365341  71.2668686  70.9295654  54.4598274
  71.9157181  70.6338196  55.0983887  71.7585068  71.4928513  53.8621292
  64.3988266  30.9748173  72.0599213  64.7455215  31.4903584  72.7881012
  64.6781921  31.4486923  71.2765732  76.6366959  45.6236420  42.1389847
  76.1641846  44.9493370  42.6271210  77.2155991  45.1346359  41.5541954
  68.3798370  25.9375553  21.2391434  69.2119751  25.4937134  21.0754948
  67.9954529  26.0538101  20.3702526  25.6965446  57.2077599  11.3012209
  24.9547405  57.3909950  10.7246952  25.3115520  56.7507782  12.0490036
  18.0316544  52.0457230  82.7821808  18.2475605  52.0311966  83.7145996
  18.7399559  52.5486069  82.3801270  58.6187286   7.3210411  51.5103226
  57.9036026   7.0327001  50.9431458  59.3978882   7.2733774  50.9563637
  77.3732758   4.2787313  81.2024460  77.8173447   5.0682058  81.5119095
  76.7844467   4.5891666  80.5145950  73.6439667   0.0249591  88.8778381
  74.3223419   0.0059913  89.5528793  74.0618744   0.4523912  88.1302490
   7.8755317  15.4105425  34.0098419   7.8744907  14.4660864  34.1655121
   7.3042150  15.7661180  34.6905746   8.4902430  24.8733902  73.3584900
   8.2440071  24.7405567  74.2738953   8.7046480  25.8044853  73.3008270
   4.9468942  36.3779182  32.7711105   5.4725494  37.0805016  33.1535950
   4.3864293  36.0807152  33.4878960  74.6894836  51.6240158  75.5891800
  75.4511185  52.1298027  75.8726044  73.9461975  52.2099991  75.7319489
  74.6145325  40.0717926  51.0329361  74.3018570  40.3330231  51.8990898
  74.0063858  40.4891319  50.4228439  85.0821152  48.4012680  19.6509399
  85.1020126  47.8447456  20.4294758  84.5020294  49.1246872  19.8884106
  49.2654037  23.4277992   1.9424871  50.1145325  23.1910210   1.5694549
  49.0395927  22.6912460   2.5105801  28.0519829  13.6984186   0.7776181
  28.0151939  13.1647081   1.5713634  27.3536758  13.3509331   0.2227725
  12.8189917  26.7847252  75.8126907  13.6024342  26.4744873  76.2667923
  13.0875301  26.8617916  74.8971710   4.5175133  45.2647209  88.9608688
   4.4914236  44.7809029  88.1353607   3.7640934  45.8535271  88.9173126
  63.0117912  59.8929787  53.7287636  62.4871483  60.4208031  53.1267815
  62.9720993  59.0073776  53.3676949  10.9163275  33.8425446  62.2203407
  10.8789749  33.1629868  61.5472603  10.1943140  33.6328354  62.8127518
   2.8556762  29.4941730  57.8686371   3.2384200  29.9835873  58.5967941
   2.6174257  30.1646481  57.2283783  21.8747997   8.2093287  75.0927124
  21.6176147   7.4535789  74.5645752  21.4254456   8.9500370  74.6856918
  72.8285217  56.5964355   6.6888313  72.5327682  57.1814232   5.9912982
  72.2747040  55.8205948   6.6016531   7.2757401  38.9283409  42.8209076
   8.1790247  39.2152176  42.6867065   7.0970774  38.3462334  42.0823555
  46.1696472  48.5940475  74.9320221  45.3231812  48.5006828  74.4949799
  46.5489922  47.7155113  74.9095535  50.6189537  48.2896347  73.9462891
  50.1206207  49.0422859  74.2647476  51.5331726  48.5685310  73.9978333
   6.2840838  11.4982567  52.5296783   6.4556432  10.6989927  53.0276527
   5.3395715  11.4858894  52.3748398  59.5401230  64.9499588  69.6080856
  59.7479935  64.4610367  68.8118591  59.1357803  64.3038940  70.1871719
  45.9631157  59.4099693  19.1674576  46.2849541  59.9983368  19.8504505
  46.0802383  59.9005966  18.3539467  29.1916809  20.7844124  24.9557648
  29.7716999  20.1555557  24.5264072  28.3141518  20.4212856  24.8361263
  65.9210358  35.7233200  56.5177383  65.4236450  36.3397293  55.9802589
  66.7654648  35.6456337  56.0737457   7.8812547  39.8453865   1.7438153
   8.3630867  40.1714249   0.9837041   7.4520111  39.0488091   1.4316542
  76.0397720  36.4930992  60.5363045  76.3014145  37.3248711  60.1414223
  75.1015701  36.5900421  60.6994476  66.7814713  64.9542999   6.8408132
  67.2635956  65.7454987   7.0812149  66.1331635  65.2533112   6.2032237
  80.8657150   2.0162241  53.5384712  81.2434921   1.1549149  53.3605232
  81.3577423   2.3425419  54.2919083  37.9715424  17.9283867  13.9351454
  37.6191025  18.7432384  13.5773277  38.8407249  17.8502865  13.5418844
  12.8021078  47.2800713   6.4597082  12.3577652  48.1024208   6.6659355
  12.4349899  46.6479492   7.0776701  80.0505219  -0.1015175  29.5145168
  80.9617691  -0.3120909  29.7182732  80.0884094   0.7700855  29.1206837
  12.5555191  13.3492498  76.6112213  13.0438576  14.1446247  76.8236771
  11.6395664  13.6268997  76.5980301  85.6290588  58.2280159  85.3515625
  85.7526474  58.5452194  86.2461853  86.4031372  57.6922760  85.1783218
  42.4382095   6.6956382   5.6971426  43.2843742   7.0678082   5.9455976
  42.3405762   5.9266849   6.2587562  48.0891991   4.6557503   8.8807974
  48.4141541   5.4653430   9.2747469  48.6710052   3.9747598   9.2184153
  35.4094429  42.7426643  13.8164740  34.7797546  43.1053886  13.1934519
  36.2316170  42.6992836  13.3282299   3.7431138  27.7817364  61.0114288
   3.2959774  28.5946865  61.2468338   4.5298209  27.7745495  61.5566559
  54.1348534   3.8113766  25.3624821  54.8650017   4.4064713  25.5326977
  54.2247276   3.5802987  24.4379501  15.1973801   5.0707636  53.4582596
  16.0572605   5.2041817  53.0594635  14.9478941   5.9353895  53.7844658
  40.8679504   7.7090025  21.3920193  40.2213211   8.1483307  21.9443741
  41.6837158   8.1823330  21.5554790  10.9102936   4.1188383   0.7383923
  11.7756824   4.2813430   0.3629905  10.8179684   4.7813597   1.4230621
  33.3700981  63.0779495  35.3614540  34.3066177  62.9456291  35.5086098
  33.1022911  62.3266182  34.8322906  79.0095139  26.9194679  15.0296326
  78.0778656  26.9083767  14.8102064  79.4501343  27.0814667  14.1954622
  79.8391800  11.8927155  53.6081085  80.3876495  12.6280937  53.3349152
  79.7204514  12.0192156  54.5494537  46.5356979  18.4394855  72.3366165
  47.0029411  19.2516155  72.5324860  47.1821480  17.8930569  71.8896866
  32.1912308  43.4883156   2.7307367  32.6333313  44.2995605   2.9810646
  32.5212135  42.8354034   3.3480275   7.8430452  21.2017918  46.0959435
   8.1308784  21.8878193  45.4936562   8.6381016  20.7061157  46.2919579
  15.1425362  63.0866051  71.1381683  14.9955673  62.5504456  70.3589630
  14.9523230  62.5011101  71.8711395  15.4685278  24.3878727  72.6382751
  15.3676634  24.9294510  73.4210587  14.7319965  23.7774944  72.6727905
  68.1959229  26.5578194  48.6991348  68.5039062  27.4046974  48.3763657
  68.9218521  26.2239990  49.2262268  41.3607216  65.1383438  28.3363647
  40.6966476  64.6040955  27.9006882  40.8750381  65.8845215  28.6878757
  46.8209801  68.2182693  73.6019745  47.2004318  68.9935913  73.1883163
  46.5233498  68.5251617  74.4583969  55.0750580   2.5317328  16.9569225
  54.4662476   2.5145533  17.6953583  54.8430061   1.7621173  16.4372330
  70.7493668  20.2432327   8.1319742  71.3519592  19.6586056   7.6722722
  69.9979553  19.6910152   8.3479977  68.8776321  43.4605293   3.2718952
  69.8052521  43.2245712   3.2800591  68.7706909  43.9842644   2.4778571
  80.8104401  17.0547848  50.3752327  81.2191010  16.2069016  50.2010841
  80.5560226  17.0132198  51.2970657  59.0844193  18.1722088  76.9916763
  59.4506721  18.4508572  76.1523590  58.3922119  18.8077602  77.1737671
  32.7549706  48.4392815   4.1518478  33.1324730  49.0741768   4.7606435
  32.0732307  48.9268494   3.6895318  72.5274353  27.2047081  81.3414764
  72.1134262  27.4766979  80.5224228  73.1492691  26.5250740  81.0813751
  29.3345413  11.5511255  22.9769859  28.6204758  11.2699862  22.4048824
  29.4198246  10.8454428  23.6180553  65.1599655  17.4732533  22.9308701
  64.3869247  17.0172501  22.5981560  65.3258362  18.1633987  22.2886715
  50.1937065   7.4417472  70.3130417  50.7802887   7.3361521  69.5640411
  49.6039505   6.6894522  70.2633209   1.9073391  39.2285500   9.1004047
   1.0155455  38.8810883   9.1146955   1.8226756  40.0887413   8.6891422
  15.3068638  16.4598904  28.0356121  15.4605770  15.9196930  27.2605038
  15.9280396  17.1831665  27.9505024  86.3546677  65.1719437  21.1876869
  86.2801666  64.2412720  21.3987255  86.7703629  65.1895294  20.3256454
  41.5851669   9.4595404  58.3578491  40.7898903   9.0151367  58.0641174
  41.6397858  10.2411270  57.8079643  61.0964813  67.8992310   9.1954298
  62.0443802  67.8715591   9.3256359  60.8680496  67.0146942   8.9096918
  42.4458656  12.3974056  54.0354042  42.3560257  11.6295805  53.4709511
  41.8296890  12.2418785  54.7512016  49.6391792   8.0906754   8.5654736
  49.9375038   8.7062130   9.2350597  49.5451050   8.6230698   7.7755761
  14.1966715  48.4282227  86.3230743  15.0818939  48.7261353  86.1136398
  13.9922857  47.7872925  85.6421432   0.9223698  11.5989742  69.4499741
   0.3673401  11.9463539  68.7517624   1.6498259  12.2183676  69.5082169
  25.9600372  48.9678307  70.7195053  26.5883884  48.5341606  70.1421509
  25.3467216  49.3995781  70.1248016  27.3201199  37.5625801   8.4562702
  26.6194839  38.1161156   8.1113901  27.4219017  37.8437653   9.3655596
  84.6140976  31.2504578  37.4339714  84.7690125  31.5873756  38.3164215
  84.2605362  31.9974518  36.9510384  71.0138016  36.2311325   7.5734038
  71.4348297  36.2802887   8.4316311  71.7275467  36.0317879   6.9675446
  78.7870865  61.8919563  39.2248383  78.5167236  62.7879181  39.4258003
  78.4247894  61.3667145  39.9383469  70.8112488  15.8947496  55.3394470
  71.2315903  15.1924648  54.8431244  71.0586395  15.7266645  56.2487221
  51.1399422  51.7732239  34.7470360  50.3657036  51.4558983  35.2118912
  51.0738831  51.3812714  33.8762665  82.5690842  20.7198219   8.6298513
  82.3978348  19.7780743   8.6337013  83.4398346  20.8065090   9.0178070
  33.9217033   3.3073828  45.7338104  33.2829704   2.6025541  45.8409042
  33.3913460   4.0969253  45.6262093   0.1612994   2.2062130  70.7255783
   0.8317834   1.8938329  71.3331146   0.5428798   2.9899199  70.3300629
  54.2315598  23.1634007   2.2103324  53.8509941  22.2867947   2.2647667
  54.2378616  23.4783268   3.1142209  45.5132561  71.4289856  66.5486526
  46.1091805  71.8096619  67.1937790  46.0189705  71.4120560  65.7361298
  19.0691509  50.2429504  78.0463181  19.4732819  49.8144264  78.8008194
  18.7876568  51.0957413  78.3775787  18.1588612  60.7659492  57.7235374
  18.5296478  59.8856239  57.7850037  18.8668480  61.2993546  57.3623390
  85.4566345  62.7701416  42.1438446  84.8730621  63.2682533  42.7161674
  85.0772552  61.8916321  42.1210175  83.8720551   1.5539093  76.1069717
  84.7911530   1.7590420  76.2784729  83.6515350   2.0716953  75.3326950
   1.2129003  53.7878265  81.1961975   1.3476614  53.0627708  80.5859756
   1.0668117  54.5492821  80.6348801   8.5516558   6.9666576   0.3314383
   7.6925335   6.6453104   0.6050743   9.1243744   6.7830195   1.0760875
  30.0660496  69.4647751  31.5274544  30.3982296  68.6547470  31.9144211
  29.4026184  69.7711029  32.1457253  52.8577728  54.6529427  60.6017914
  53.1086617  54.4794846  59.6944885  53.6880798  54.7903099  61.0578117
   4.2675724   8.6130857  37.4329643   5.1933856   8.4342337  37.2682991
   4.2485723   8.9845791  38.3149300  66.9976730  57.6661911  38.1100349
  67.5768051  57.2930908  37.4454842  67.0575333  57.0593643  38.8478775
  44.1925316  62.4227600  39.4921303  44.0325050  63.1376534  38.8760529
  44.3924179  62.8600731  40.3197975  17.9217567  56.9960632  59.8427048
  17.4237251  56.4779968  60.4750023  18.7684669  57.1402969  60.2652092
  55.4621391  41.6419907  26.2528877  54.7891273  41.4839172  26.9149284
  56.2615814  41.7964249  26.7561550  66.2807312  24.0713959  33.5194092
  66.5293579  24.9689312  33.2983971  65.4348297  23.9444981  33.0897751
  53.4914093  33.4182434  54.8526573  53.0457115  32.6004181  54.6318741
  52.8506775  33.9087677  55.3675156   3.4086099  13.4201269  10.8596525
   3.4965253  12.5454149  11.2383099   4.2003574  13.8815212  11.1362076
   6.8539114  36.0517578  73.4642639   7.3470716  35.4729080  72.8829193
   7.5152287  36.4278183  74.0451813  81.9998703  68.0313492  11.2493277
  81.2672882  68.6470413  11.2272110  81.9369278  67.5543747  10.4218264
  64.2971039   0.3860496  19.0465946  63.9984665  -0.0593765  19.8394661
  64.4033890  -0.3150312  18.4036160  37.1604309  46.2848816  64.8133011
  37.7198524  47.0162621  64.5518417  37.5459785  45.9685974  65.6303406
  29.8986683   9.2516603  24.5450230  30.2874756   8.3862982  24.6723309
  30.2019920   9.7632141  25.2950497  13.7961521  56.8172264  45.3000450
  14.0424299  56.1752548  44.6341286  13.9634495  56.3751335  46.1323891
   2.9092779  38.8484993   0.6820734   3.7003891  38.3340149   0.5218216
   3.2105415  39.7570534   0.6830518   0.7264794   5.7594404  34.0167389
   0.6615192   6.6887131  34.2368851   1.2921251   5.7351146  33.2449303
   2.9037156  62.4380493  61.6586952   2.0190544  62.6905899  61.9229469
   3.1752093  61.7954521  62.3141212   0.4195731  44.8690643   5.5670986
  -0.2576106  44.2570763   5.8554130   0.5082319  45.4873047   6.2924614
  81.4551163  32.7584000  35.5384331  80.6851578  33.2762032  35.3033257
  81.3670349  31.9531422  35.0284996  76.7397461  58.4236221  72.9778366
  77.0779572  59.1338196  73.5232468  76.6930923  58.7984657  72.0983200
  66.0636292   2.5418878  79.3337784  66.7452621   1.9467022  79.6458206
  66.5431824   3.2922759  78.9828110  31.5223198  64.0284195  60.3782883
  32.4772224  63.9726830  60.4141846  31.3272972  64.9401245  60.5950584
  34.9933891   0.3925423  10.6576576  35.0988770   0.7325827  11.5461826
  34.2126083  -0.1592824  10.7035141  72.9758759  13.9759750  47.2578278
  73.5736694  14.7007818  47.0747108  73.0590744  13.3992081  46.4984512
  13.7958536   1.1522008  32.0276871  13.0749445   1.1705012  32.6571198
  14.1013269   0.2451320  32.0396919  44.9191399  68.7301712  67.2932510
  45.6057968  68.2122498  66.8731461  45.0241623  69.6085739  66.9277191
  70.7829056  14.7462416  78.6935272  71.5044785  14.6310883  78.0752182
  69.9980545  14.7603216  78.1457672  67.8702393   2.3089778   8.4584322
  67.7676773   1.5226469   7.9223390  68.6888504   2.7010138   8.1544390
  78.1740417  20.0156307  19.7109318  78.2127228  20.1723061  20.6544304
  77.3083649  20.3307762  19.4510956  76.1200562  16.4380608  61.8651047
  77.0267944  16.2425880  62.1014252  76.1781158  17.2247505  61.3229065
  55.8444405  18.1251221  74.1699066  54.9769821  18.5173512  74.0703583
  56.2871971  18.3095837  73.3415527  27.2453747  64.2222137  80.1525574
  28.2015133  64.1777954  80.1449966  27.0252209  64.7725906  79.4009933
  22.3231087  48.1710052  33.7386398  22.4494019  47.3666687  33.2353287
  23.1270103  48.6709099  33.5969696  27.8721581  28.8069916  20.4052467
  27.9119186  29.3619652  21.1841278  28.5449982  28.1418438  20.5504894
  58.8012772  47.9567833  19.3842297  59.5770721  47.5435219  19.7631626
  58.2551880  47.2244034  19.0985012  67.5009003   5.0830979  78.5083389
  68.4058609   5.3944926  78.4907837  66.9762268   5.8609753  78.3189774
  80.4368134  61.4999466  58.7740479  81.0180817  61.3927116  59.5269470
  80.9886169  61.3070679  58.0160599  73.0310516  61.0450020  44.6066132
  72.9560699  61.1722717  43.6608772  73.0241928  61.9310074  44.9687996
   5.8772678   2.5166857  63.2313499   5.6647143   1.6546663  63.5890884
   6.0834312   2.3501050  62.3115807  11.5130568  57.5778160  63.2347870
  11.2599373  56.7018852  62.9433937  10.7647352  58.1306458  63.0097847
  52.2706299  59.0093079   3.7588882  52.8937798  58.3010025   3.5969734
  51.4137459  58.5830574   3.7416492  36.5322914  15.4347019   8.8637438
  36.0299263  15.2140961   9.6480865  36.3862457  14.6977406   8.2706251
   3.4588869  12.1342688  36.2736893   2.5640113  12.0741501  35.9393005
   3.9068563  12.7127104  35.6564674  41.0010223  36.5735741  81.3118820
  41.0865898  36.6252975  82.2638474  40.1056213  36.8625374  81.1358414
   0.8930750  42.3488693  62.5201035   1.1252728  42.5555534  61.6147881
   1.1193327  43.1384506  63.0116348  79.7401886  31.4749660  30.0254230
  79.5871124  30.5413818  29.8797493  80.1872177  31.7709694  29.2324657
  11.8391809  30.9817238  19.3870392  11.7084274  30.1034451  19.0295982
  11.9447794  30.8439350  20.3283653  41.3851814  30.4164715  76.4168625
  41.3438835  29.8729153  77.2036743  42.1681099  30.1133022  75.9571381
   6.0082674   9.4133005  81.6217575   6.2690425   8.7786865  82.2892075
   5.1976395   9.7953024  81.9581909  14.4641142  68.8996658  57.3506432
  14.0809402  68.9175186  56.4736633  15.3220606  69.3109055  57.2455750
  68.8422089  39.8050308  53.3940239  68.4779663  38.9992523  53.0275764
  68.6303940  39.7612457  54.3264656  83.2656784  15.4516602  42.0848579
  82.6194458  14.9211226  42.5508461  84.1079407  15.1746588  42.4455414
  71.6022263  58.6239090  20.4022999  71.2842102  57.7304268  20.5318756
  71.5210724  58.7727661  19.4602356  32.1362534   5.1339660  64.3750305
  31.5367870   5.4114389  63.6823006  32.0743370   4.1787729  64.3769684
  34.0307465  13.5554314  73.7691422  34.7085648  12.8859825  73.6762390
  34.3581314  14.2995081  73.2637711  75.9082336  17.1236897  38.2843170
  76.6000748  16.9134026  38.9115067  75.6841660  18.0352612  38.4715729
  16.7616501  46.6188393  38.1255760  16.8273811  45.7159500  37.8146133
  17.5785713  47.0296898  37.8426018   8.8466282  20.7921314   9.1491213
   7.9889684  20.3672695   9.1611147   8.9777355  21.0412521   8.2342539
  16.9885311  15.4523048  68.2168427  16.3628502  15.2309256  68.9065857
  17.7811069  15.7117338  68.6866837  72.9141235  18.4545116  32.7578354
  73.1726227  18.4963284  31.8371487  72.0530930  18.0365067  32.7461090
  25.6019325  54.0856934   1.1448187  26.4275417  53.6850395   0.8726411
  25.5724850  53.9535065   2.0923903  11.2012691  61.1271172  38.2935905
  11.6093330  61.9760437  38.1231728  11.4690065  60.5801163  37.5551186
  49.6862602  12.6472607   7.3351254  48.9085922  12.0892830   7.3238926
  49.4315186  13.4025097   7.8651600  58.7151260  59.5337219  34.1865730
  59.1753502  58.7042809  34.0583038  58.1087570  59.3622475  34.9070930
  51.1344528  30.2411194  16.8993816  51.2213631  30.2394657  15.9461355
  52.0297699  30.1374111  17.2216930  82.5416107  54.4965820  39.2732582
  82.3166809  54.1299553  40.1283760  82.0687790  53.9493828  38.6461716
  22.1052113  70.5047607  64.3434448  21.7765236  70.2629395  65.2093048
  23.0571823  70.5148315  64.4428482   0.1795181  42.0848160  69.9360046
   1.0769711  41.7904663  69.7805405   0.1008238  42.8921509  69.4278183
  42.9927406   7.1626816  57.9958763  42.5680885   6.8060341  58.7760735
  42.6973419   8.0723324  57.9570694  39.1291313  56.6120033  75.3335495
  38.8296623  57.4879456  75.5770035  38.3249092  56.1260338  75.1510849
  47.5068398  44.7628670  30.7674122  46.6627388  44.8743019  31.2047939
  47.7602386  43.8605919  30.9621620  81.1859894  20.1222858  82.3549957
  81.4598389  20.0729332  81.4391327  81.9437714  19.8089447  82.8487778
   4.3766389  22.1547775  61.8969727   3.4422915  22.2526035  62.0804329
   4.8073626  22.3772888  62.7223206   4.6328630  39.1414490  72.2991180
   4.7899485  38.2138252  72.4753952   4.1214008  39.4445419  73.0493011
  69.6882858  53.8489761  18.4232731  68.9677277  54.4067307  18.1301289
  69.4842682  52.9855347  18.0639954  71.7687073  21.5580807  56.5618095
  71.0755768  21.9359074  57.1031418  71.3129196  21.2187958  55.7915039
  19.7906685  52.2673798  38.8103714  19.1432648  52.6249199  38.2027016
  19.2958622  51.6544571  39.3541756   4.0317430  21.8087196  20.2668839
   4.6079121  21.3911839  20.9071369   3.3497050  22.2249088  20.7939911
  74.7871246   4.1131229  69.8962097  75.5821381   3.5830953  69.9532776
  74.4745407   3.9804509  69.0012741  40.4162369  32.6693077  78.2742462
  40.5425949  32.5435867  77.3337936  41.1747589  32.2461472  78.6765060
   1.0712312  58.1758080  14.5805035   0.7146530  58.3891335  13.7181940
   0.7823350  57.2779617  14.7437191  37.0520134  68.8932266  47.2896805
  37.0614090  69.8491821  47.3375816  37.9667015  68.6383514  47.4105835
  13.0903702  20.1162720  84.7500000  12.4942522  19.8489037  84.0504379
  13.4262094  20.9666233  84.4665451  76.4886856  19.7648849  14.6318007
  75.8091049  20.4235306  14.7752905  76.0549393  19.0802155  14.1225615
  38.1645393   6.2110419  68.2941971  38.7012749   6.9205842  68.6473160
  38.0511246   5.6080751  69.0289078  81.8094101  15.2912483  65.3784103
  82.5386887  14.6912107  65.5344467  82.0648651  16.0994473  65.8231430
  42.1762543  65.2015533  60.4229393  43.0149078  65.6629562  60.4215012
  41.5209808  65.8959351  60.4913635  72.7586517  47.9372330  73.1291809
  73.0780640  47.0661011  72.8939438  73.5178909  48.3747978  73.5143051
  72.1831207  35.4694862  76.4377670  72.7619476  36.2104073  76.6172791
  72.5394592  35.0744858  75.6420059  35.2672768   7.6498184  27.8982067
  34.8207779   7.3759503  28.6993732  36.0084839   8.1727095  28.2038708
  58.5104218  16.4672031   5.7830939  58.6820679  15.5289364   5.7029343
  57.8837090  16.5353622   6.5033832  76.2731400  17.1249142  10.0826073
  75.5074768  16.6397877  10.3902512  76.1032791  18.0303707  10.3424692
  20.4290962  62.8326340  85.0376892  20.0420856  62.8518410  85.9129562
  19.7283421  62.5064850  84.4730682  56.1766472   9.5697432  28.7410393
  56.5642357   9.0845251  28.0126362  56.9260788   9.8622150  29.2597351
  51.5795898  69.8612823  66.3687897  51.7188492  70.7970352  66.5143814
  50.9439087  69.8220673  65.6542206  26.4751968  65.5196381  39.0475769
  25.8160000  64.9234619  38.6922417  26.2700939  66.3667755  38.6519547
  45.1638756  71.3359146  60.1348763  44.3023872  71.7085037  60.3226318
  45.0637665  70.9208221  59.2781944  85.5446091   9.6919746  31.0024605
  85.0754013  10.0977354  30.2734699  85.2022781   8.7988796  31.0401878
  21.3733768  28.1646500  71.9269104  21.7050056  27.3372574  71.5780945
  20.7018986  27.9064102  72.5583115  44.5613289   2.1165795  84.6291962
  43.6293297   1.9062678  84.6873016  44.6142464   3.0401285  84.8751450
  10.8191252  70.7772827  78.5646591  11.0787077  70.8759689  79.4806900
  11.0737333  71.6032028  78.1532593  68.9884033  60.3592415  20.6411972
  69.8493576  60.3188515  20.2248325  68.6919632  59.4494705  20.6671047
   9.5245066  16.2356129  62.7471046   8.6276903  15.9022045  62.7752037
   9.7997808  16.2600327  63.6635437  29.3086243  62.0282707  48.3208313
  30.0244312  62.3551941  48.8657837  28.5291271  62.4681435  48.6601334
  61.0426979  48.9991875  62.5962067  61.8922310  49.4157486  62.4513092
  61.2480698  48.0721817  62.7175217   5.8055530  40.8962440   3.2594657
   5.4572935  41.6433372   2.7728477   6.2827644  40.3857536   2.6053243
  44.8855324  14.1347456  76.9906387  45.4973259  13.8042049  77.6484222
  44.0234718  14.0379725  77.3952560   2.5400379   6.4124241  37.0387383
   1.7610691   6.7786021  37.4574928   3.1313612   7.1584754  36.9388580
  42.6387749  60.6627655  61.3857269  42.8655396  61.4950294  61.8006287
  42.8833275  60.7783966  60.4675446  65.2163239  35.4052238  79.9901352
  65.1167374  34.7676125  79.2831879  64.5382538  35.1689148  80.6230774
  28.4897346  62.8851395  51.0787735  29.1715546  62.2837563  51.3782616
  27.8018665  62.3152275  50.7348709  74.2809982  40.6108322  53.8369408
  74.7060242  41.2562408  54.4017677  73.3524475  40.6704788  54.0616112
  16.9693260  32.1815796  13.7216263  17.4422512  32.0738907  14.5468388
  16.1248550  32.5533981  13.9762897  49.7941475  47.3599014  29.0313568
  49.9241982  47.4178391  28.0848045  50.5011826  47.8873711  29.4029884
   2.5634727  55.3317490   9.6810093   3.1986675  54.6303673   9.8253193
   2.0256310  55.0216293   8.9524593  68.2052231   0.9945738  80.8079605
  67.7209244   0.2250294  81.1071091  68.8649139   0.6445632  80.2091904
  18.5354290  48.6372185  15.2769299  19.3228893  48.9512100  15.7213917
  18.6992683  47.7058525  15.1287975  48.2145805  62.4814644  77.1963196
  48.4154816  63.3068047  77.6375504  48.1474266  62.7149925  76.2704773
  57.8213692   3.4003186  67.5877228  57.0778351   3.6265893  67.0289764
  58.4681702   4.0842781  67.4142990  65.9308853  26.4188938  11.7614679
  65.4038086  26.4081154  10.9625311  66.6703033  25.8425083  11.5683899
  60.9530411  43.9107475  41.8354645  60.6571312  44.8152466  41.7327423
  60.8605042  43.5279274  40.9630470  66.8681030  28.2845917  66.2546234
  66.6876144  27.5322113  66.8181610  66.1214905  28.3205547  65.6566925
  66.5536423  61.0976982   9.8870249  65.6206284  61.2960014   9.9669905
  66.9593201  61.9373665   9.6711206  81.1215591  17.3666039  45.2075500
  81.6671906  17.4045353  44.4220009  81.2132950  16.4663754  45.5196457
  49.9062996  50.8022842  40.7940025  49.3706970  51.2520981  41.4474754
  50.7774696  51.1863899  40.8928070  57.0908737  25.2366352   6.1731710
  57.0669823  24.9736538   5.2531161  57.2415771  24.4213219   6.6514826
  53.7885628  40.6202736  84.6069489  53.0839958  41.2055626  84.8849030
  53.6485443  40.5064278  83.6669159  45.7353249   8.9797268  23.1181946
  44.9050446   8.5823145  22.8556499  45.9292831   8.5886240  23.9700451
  60.2473412   0.6948531  74.0673294  59.5649147   1.1554574  73.5791016
  60.5967560   1.3523777  74.6688309  70.4397278  54.2275734  70.1620178
  70.3919678  54.9973946  70.7288742  69.9883194  53.5406151  70.6524811
  21.8906651  49.2910538  72.1034012  21.2813091  50.0287857  72.0775452
  22.5305004  49.4847717  71.4183350  83.4726791  31.2061882  70.6557236
  84.0349197  30.9178352  69.9367218  84.0385666  31.7577496  71.1958923
   5.7220449  46.1742325  36.6591225   5.7741017  46.3532486  35.7202530
   6.5005836  46.5929070  37.0263062  38.9269257  14.7362251  81.8411331
  39.6890144  14.8876848  81.2821121  38.4448929  15.5628729  81.8180847
  59.7961464  19.6724949  70.9969635  60.2790108  20.1970310  71.6356659
  60.0137978  20.0646935  70.1513672  58.3923035  66.7297592  45.7802963
  57.9790154  66.9721298  44.9516335  58.6449814  65.8139801  45.6630898
  18.6259232  44.7663498  22.0400257  19.5653572  44.5830421  22.0303288
  18.2185612  43.9436951  21.7688618  70.8451767  48.3538780  59.7613182
  70.7108612  48.2276993  60.7006073  70.4795456  49.2199860  59.5813026
  49.9084549   6.1091852  34.1374321  49.5209389   6.1904993  33.2659683
  50.6333046   5.4949856  34.0208778  42.5644760  44.1212921  88.5436554
  41.6766624  43.9850998  88.8745193  42.5839424  45.0417938  88.2818756
  41.7701912  65.0234604  34.8439484  41.6252441  64.5578690  35.6676292
  42.7018700  65.2427979  34.8535461  45.7610168  27.8768406  87.5318527
  46.1828270  28.6144943  87.9725113  46.0244675  27.9627209  86.6156387
  25.0780983  56.6920280  31.8971539  24.4284534  56.8488045  32.5824356
  24.6891212  56.0097580  31.3499432  79.5471039   6.6571960   9.7528524
  78.7804260   6.1368856   9.5126162  79.2054138   7.5420866   9.8811016
  34.3773384  51.0254745  83.2529984  35.0041962  50.3035278  83.2074432
  33.7537384  50.8459625  82.5493393  22.9165688  60.6233368   5.9942493
  22.8047810  60.3357048   6.9003420  23.8262463  60.4104843   5.7858901
  53.3135452  61.4888268  22.5218906  52.4265556  61.5669365  22.1706314
  53.6412888  60.6639633  22.1635380  74.0453415  64.4992981  76.3258057
  74.8642044  64.1455841  76.6730728  74.1873703  64.5481491  75.3804626
  17.6149025  60.6310005  49.2716827  17.1253376  60.5033989  50.0842552
  17.2028923  61.3909607  48.8606529  80.7944946   6.1357050  41.6800461
  81.5381699   5.7022157  42.0986938  80.4390564   6.7099309  42.3583946
  51.6064529  41.1319199  67.3309097  51.9764519  40.4246788  67.8592529
  52.3670349  41.6287766  67.0294418  30.6820507  25.0473480  48.0608292
  30.2321568  24.2072430  47.9711037  30.2462463  25.4748840  48.7980690
  53.0401611  68.2783356  84.2651443  52.8850327  68.5755539  85.1617126
  53.9932556  68.2703857  84.1769791  31.8780403  21.0811272  82.0477371
  32.3924675  21.3847446  82.7956772  32.1554108  21.6414909  81.3229752
  43.7362022  46.3094482  66.2306671  44.0779228  45.4262161  66.3698273
  44.2999763  46.6801720  65.5517349  29.8708477   7.1193156   2.5809140
  29.5739651   7.8821087   3.0771384  29.0641289   6.6825814   2.3076017
  63.2939644  55.2705765  35.2793541  63.1627007  56.1268654  34.8722076
  62.5609856  54.7411270  34.9652557  59.7273445  36.8426552  42.4158974
  59.6724358  36.8206520  41.4605255  60.2066803  36.0468979  42.6466446
  84.2209549  30.3552055  33.7270813  84.3563614  30.9734459  33.0089760
  85.0287094  30.4015522  34.2385597  22.1721878  16.7224979  19.7757053
  22.5311699  17.4320583  20.3085175  21.2234516  16.8108845  19.8669262
  14.3268032  61.8798904  37.4644966  14.5065413  62.5522232  38.1216850
  14.2581463  62.3624878  36.6407127   3.3684785  43.0884819  54.6274223
   3.5414281  43.9736633  54.3068352   4.2199812  42.6522713  54.5974846
  54.3322945  52.0693130  63.6882057  53.9414406  51.5273361  64.3735733
  53.9789429  52.9450340  63.8446960  39.1130066  54.5698586  57.3699684
  38.8080063  53.8692093  57.9464226  40.0430145  54.6623611  57.5767517
  66.0032196  46.8494987  41.2440147  65.1273804  46.6502800  41.5748520
  66.0507736  46.3947144  40.4030952  52.6979065   1.8692280  37.4261742
  52.6592255   2.8224261  37.5045891  53.6205864   1.6548361  37.5637589
  60.4505005  45.9962120  72.4768677  60.2561684  46.2679634  71.5798645
  61.3584328  45.6948166  72.4444427  72.4144058  18.9822006  83.7525101
  72.1318283  19.8967247  83.7576981  72.8411636  18.8585720  84.6003494
  22.4986839   1.8088498  13.9287424  22.3338451   1.2230972  14.6676292
  23.4274712   2.0290303  14.0002155  22.7141838  44.8006401   3.2214193
  22.7068539  45.4109726   2.4840770  23.6416626  44.6180305   3.3719721
  29.6615314   8.4518881  43.8547173  30.5526390   8.4596119  44.2041473
  29.7557392   8.7549763  42.9516716  30.0627975   1.5572273   8.0954857
  29.9057770   1.9821161   8.9387207  29.3694248   1.8910773   7.5262685
  54.0635071  21.4072056  56.4620972  54.7792168  20.7980976  56.6436958
  53.7719765  21.6986065  57.3260002  44.6173019  29.1246872   6.4681339
  44.7793884  28.2758827   6.8798289  43.6784973  29.1249409   6.2813945
   6.7756777   3.2074420  25.5079498   6.4172745   3.9388063  25.0050735
   6.9344764   3.5708120  26.3791428  79.9912796  53.9060440  21.0123177
  80.3780670  54.6472244  21.4784527  80.7311478  53.3282585  20.8252678
  77.4859390  58.9526901   3.0139060  78.4091263  58.6999321   3.0062163
  77.0943451  58.4512177   2.2987742  32.4108505  59.3450470  53.8367958
  32.2904701  59.1474533  52.9079819  31.6444283  58.9628258  54.2642746
  78.0582275   3.0888906   1.8961490  77.5517197   3.3787756   2.6548595
  78.9078522   2.8364859   2.2576234  41.5143433  23.9167938   3.7623599
  41.7021027  23.1872253   3.1718452  42.2791557  24.4876194   3.6885383
  48.1588783  28.1190014   1.4117594  48.4526176  28.9491386   1.0364975
  48.6578941  27.4526768   0.9392902  46.9549751  23.1693592  72.2930298
  46.3077507  23.1290646  72.9970932  46.9778976  24.0925846  72.0413132
   3.6578465  28.7504959   5.8857741   3.3126807  29.6318092   6.0285354
   2.8800259  28.1968956   5.8168297  23.6100101  49.0325470  52.1709061
  23.1856995  48.9833908  51.3143005  23.3038483  49.8597374  52.5427284
  81.1081619  32.5002518  65.6130829  81.2057953  32.0496864  64.7742157
  81.7194061  33.2351532  65.5627975  28.5879860  59.1919823  25.1564426
  28.3296795  58.5632896  24.4824581  28.6763248  60.0222092  24.6883068
  37.9281731   4.6622090  35.0638275  38.2490387   5.0503044  34.2497902
  38.4881477   3.8982911  35.2019844  74.7754517  37.5121078  81.3524628
  74.0950775  37.1017723  80.8186493  74.2957916  37.9578171  82.0506744
  18.8234901  10.7453690  70.6813965  18.6835003  11.6918526  70.6530533
  17.9905663  10.3892107  70.9906235  23.5126972   1.6309514  21.1993408
  23.9665890   0.9523324  20.6996498  23.5908375   1.3497850  22.1109715
  36.7556000  53.2553749  10.8631773  37.7108231  53.2614059  10.9244118
  36.4703903  52.7417526  11.6188745  14.5808506  19.3452301  34.0822258
  14.9458513  19.4580803  33.2045746  14.1334610  18.4996853  34.0486641
  28.1922626  -0.1027725  45.3094025  27.2469540  -0.2378850  45.3755035
  28.2949715   0.8471406  45.2515450  11.7829485  29.8887711  89.0239868
  11.3511820  30.5762539  89.5311127  11.9230480  30.2795162  88.1614838
  21.5034256  41.1112366  71.9632568  22.0052967  41.0619774  71.1496658
  21.9366436  40.4911575  72.5498199  85.2641220  16.9842453  50.9211159
  85.0761871  17.9056015  51.1000328  84.8704987  16.8215885  50.0638924
  84.1421051  32.8053627  14.6158285  84.3418884  33.5674858  14.0722418
  84.4658585  32.0594635  14.1108065  44.5128059  57.4314461  30.1483936
  43.7011185  57.6716805  30.5952530  44.2339363  56.8487091  29.4420795
  61.9662781  15.8877926   2.3332391  61.3174248  16.3411274   1.7949945
  61.4954147  15.6598740   3.1348448  80.9299316  26.6363602  71.0842056
  81.5772476  26.9641018  70.4598694  81.1165466  27.1111450  71.8941345
  23.3016682  43.9789925  69.1172562  23.3894615  44.6108475  69.8309021
  23.6494675  44.4340401  68.3503189  73.1772919  54.4885216  69.0967865
  73.6097870  53.6408463  69.1998825  72.2442245  54.2935028  69.1838455
  48.4211159  61.4715462  84.0901184  49.2228622  61.1898155  84.5306396
  47.7489929  61.4368629  84.7707596  69.9137039  39.4503746  64.4001617
  69.6794891  39.6841125  65.2983475  69.7191849  40.2363586  63.8896484
  86.4463120   3.5272334  51.9441338  86.8494110   4.1328392  51.3220520
  85.5066986   3.6909933  51.8632469  70.6551056  43.1518250  66.8052673
  71.5049896  43.0416565  67.2316360  70.7565613  43.9377861  66.2684174
  69.2328720  19.3601456  68.4794617  68.7961273  20.2008343  68.6163025
  69.8125992  19.2656002  69.2352448  44.0432968  45.1857834  25.1384659
  44.5573883  45.3269386  24.3434715  43.1355171  45.3115997  24.8621616
  76.6720276  70.3392563  71.7519989  77.1560287  70.4808044  72.5655975
  75.8330231  69.9739914  72.0328751  18.3606834  36.0811234  22.2100334
  17.6277199  35.8180962  21.6534233  18.4578323  37.0198975  22.0503769
  72.1277161  51.9902382  64.4087219  72.2953262  51.4950447  65.2105484
  71.2674637  52.3864632  64.5473328  56.6791267  57.4245644   1.7362056
  57.3061600  57.7996979   1.1178740  56.4779434  56.5598640   1.3783611
  20.1136074  27.4111958  56.4773827  19.6172352  27.8616276  57.1607246
  19.8489246  27.8428688  55.6650810  71.4671249  47.1093292   2.6958408
  71.5856476  46.5118752   1.9574430  72.2585831  46.9988747   3.2227397
  28.1407547  15.5664558  28.8018608  27.7497940  16.4041920  28.5537090
  28.6970348  15.7747383  29.5524616  82.8771896  44.6902351  68.6906128
  83.4554825  45.3988419  68.9729080  82.9182510  44.0501404  69.4011230
  14.1726141  44.2955704  46.2822304  13.5944195  44.1595268  47.0328407
  14.6983223  43.4969368  46.2370033  81.2010498  34.4663315  21.2357922
  81.5153580  34.8674316  20.4255066  81.2646103  35.1635628  21.8885231
  20.1519890  61.7329826  45.1455841  20.1901207  60.7998428  44.9357643
  19.3049603  61.8471489  45.5765610  12.6220999  35.9447174  85.9872665
  12.7602224  36.0974312  85.0524750  13.5045891  35.8837395  86.3529510
  74.2527695  61.4276848  69.9535904  73.4969711  61.0638275  69.4925079
  74.5519104  62.1447906  69.3945694  63.3165894  25.3018246  56.6928024
  64.2185516  25.0845261  56.9283180  62.7888451  24.9352493  57.4022675
   2.5387700  71.3971558  52.3666763   1.8468025  71.3676071  53.0273895
   2.2283633  72.0340729  51.7230797  12.5940323  61.2519913  77.7309494
  13.4344110  61.6140213  78.0118942  12.6871576  61.1363869  76.7853317
  17.5587425  16.5084667  78.7330399  18.4772873  16.3586884  78.5092697
  17.0693111  15.9823046  78.1007080  61.9459572  58.4849358  75.0442200
  62.6357956  57.8327484  74.9217148  62.3974152  59.3263931  74.9781647
  63.6907158  35.4032669  84.4107513  63.6987152  36.0726967  83.7266235
  62.8389320  34.9764824  84.3182907  29.8919888  26.0080070  71.7638855
  28.9426346  25.8884525  71.7896194  30.0690155  26.6648445  72.4372787
   2.2072892  41.0029907  55.8416710   2.4713044  40.2304611  55.3419456
   2.6089764  41.7373695  55.3773842   6.8104377  49.4098358  26.4447308
   6.7997899  49.3179893  25.4920063   6.6361980  48.5275002  26.7723770
  81.5478287  69.9952927  68.7580566  82.3319016  70.4641418  68.4723206
  81.1340332  70.5833588  69.3898621  86.7427139  22.6808472  85.4331894
  85.9370575  22.9690418  85.0041275  87.4387665  23.1568699  84.9802704
  58.2618828  12.6117268  59.9116020  58.1863594  13.5657654  59.8932190
  57.5089264  12.3217411  60.4265747  59.4012413  32.4808388  83.3603745
  59.3250389  31.5498486  83.1513596  58.5373268  32.7229156  83.6939621
  32.5888481  66.7507095  60.7200508  33.1648483  67.3477173  61.1975861
  32.0031166  66.3965836  61.3891907  68.1387634  55.7468910  82.3187561
  67.7450485  54.8753357  82.3588791  69.0638962  55.6011276  82.5165405
  62.5204391  42.3098526  52.3496284  62.5791359  43.0520630  51.7480354
  61.9684753  42.6248055  53.0654297  64.2736359  13.5010519  61.0935745
  64.1747208  12.5956564  61.3880310  65.2016602  13.6955147  61.2246666
  35.9168510  53.1128311   5.4601502  35.2255325  53.3642769   6.0725942
  36.6869698  52.9750710   6.0116687  84.7587814  42.5271683  57.5688400
  85.3150558  42.1570435  56.8834190  83.8772278  42.5117340  57.1962090
  63.1756935  45.4904518  24.0966930  63.3067703  45.2537575  23.1785297
  63.7624321  46.2332954  24.2386532  12.1410456  58.0631256  14.1483841
  11.8970604  58.9807243  14.2696953  11.3920813  57.6738014  13.6970406
  30.9307766  30.3525791   7.9334230  31.7569561  30.7445240   7.6505141
  30.6894665  29.7615147   7.2202306  14.1675367  31.5690460   2.2296336
  14.9988775  32.0214615   2.0867224  13.6361685  31.7978306   1.4670476
  46.8740425  70.7384109  32.5461006  47.1364975  70.1193085  31.8648872
  47.5017586  70.5954208  33.2544518  52.5515862  49.2730522  36.5229378
  52.1266403  49.1088448  35.6811028  53.2084503  48.5809402  36.5987015
  35.1519394  34.3501625  86.9761887  35.9501953  34.8134232  87.2299805
  34.7551765  34.0844688  87.8057709  62.9928894  24.9534550  21.7958164
  63.9236259  24.7677574  21.9202194  62.5852318  24.6994953  22.6237965
  17.2591209  63.8660164  16.1059017  18.1198254  63.4472427  16.0989914
  17.2715359  64.4514847  15.3487320  81.9994659  51.6953850   4.8217978
  81.5375824  51.3990517   4.0375266  81.3493271  51.6309204   5.5213675
  64.2205048  61.8979568  49.6781120  64.1040955  62.8443298  49.5940971
  65.1694260  61.7723236  49.6769447   5.5037637   9.1641531  44.3673401
   6.1648464   8.4855080  44.5038795   4.8192830   8.9636402  45.0057106
  33.0190315  20.6493149  18.6082344  32.7271996  20.7964268  17.7085533
  32.2363548  20.3440990  19.0670280  27.7252369  19.6329269  88.3113098
  28.0460167  18.8530655  88.7642517  27.9874363  20.3615456  88.8739853
  83.5367432  50.1396332  21.6344166  83.7432785  49.4790306  22.2956142
  83.8899765  50.9544830  21.9914589  81.6293488  68.2669907  88.3248062
  81.0810242  67.4886932  88.4239120  81.9306259  68.4622879  89.2121201
  72.1110153  19.8218327  24.9137192  72.3713303  18.9371872  25.1703682
  71.7995987  19.7281704  24.0134525   3.3705673   6.8464398  27.4920101
   2.5357914   7.2081141  27.7896214   3.7991471   7.5734367  27.0403175
  44.4524040  22.1735592   1.5013207  43.9242325  21.6577930   2.1106267
  45.0034142  22.7180500   2.0635931  17.8436031  61.1095734  76.6523361
  17.8133831  61.0193405  77.6047974  18.7243271  61.4375114  76.4706497
  85.1354218  49.2543716  35.5479240  85.3264618  49.4135323  36.4722633
  85.7042618  48.5227737  35.3083076  22.8196468   5.9143281  68.0814667
  22.9089565   5.8552141  67.1302795  22.8089142   5.0042949  68.3780441
  17.2345276   7.3060517   6.6122613  16.5051193   7.1233783   6.0199552
  16.9875813   6.8821321   7.4341745  55.2480621  22.2505875  54.0284576
  55.2552414  21.6468525  54.7712097  54.3195419  22.3987827  53.8492241
  15.4201870  55.7756615  33.4836807  15.5868053  55.7504921  32.5414314
  16.2909241  55.8043289  33.8801994  84.2725983  44.1762123  30.2719383
  84.8540497  43.9340324  29.5511761  84.6057358  43.6859093  31.0235062
  86.6946716   0.2349121  87.5132675  86.9663925   1.1416438  87.6555099
  86.6748581  -0.1494813  88.3896713  16.1422043   0.3754334  50.5956917
  16.3929501  -0.4523528  50.1856575  16.9390564   0.6780251  51.0312309
  60.3880386   1.6302124   5.5889139  60.4968758   1.7027037   4.6406884
  61.1589127   2.0658841   5.9524784  74.5884247  23.7351456  46.2262192
  73.6521378  23.8003654  46.0382118  74.7369308  22.8025494  46.3825607
  86.4756470  40.8831558  85.5687332  86.6779099  40.8404770  86.5033493
  86.4076538  39.9680481  85.2963638  27.1271534  44.8685989  80.4430313
  27.8862095  45.0161514  79.8788528  26.6055450  44.2153397  79.9767609
  74.5186920  60.9571037  85.6486816  74.8290482  61.1194572  84.7578659
  73.7776108  61.5532684  85.7565002  23.8731403  50.5315094  73.5962830
  23.7230206  51.2250290  72.9538422  23.0027618  50.1725998  73.7690735
  85.8173370  34.9094734  27.1252766  85.6492615  33.9951973  27.3534966
  86.7712402  34.9730072  27.0777702  19.2255383  58.3546906  85.5894852
  19.4813499  57.4798050  85.8816757  18.5814114  58.1978073  84.8990402
  44.5461426   9.2896433  62.9745750  45.3384895   9.0204048  63.4392586
  44.8676720   9.7210369  62.1828995  59.5991516  61.7888145  57.2310486
  58.8087349  62.1963310  57.5851707  59.5796585  60.8938599  57.5700264
  68.5040741  35.6731262   6.8368196  69.4478073  35.7184944   6.9902253
  68.3416061  36.3201981   6.1504269  48.9833488   5.4177299  72.8001709
  49.1202164   4.6132755  72.2998199  49.7871094   5.5228429  73.3092346
  28.8956184  70.0330429  70.0992355  29.4436531  69.2528992  70.0140381
  29.2922096  70.5271530  70.8167343  44.8800468  67.1218109  82.8006516
  45.3897896  67.9105148  82.6153488  45.4061508  66.6412811  83.4398193
  83.5788116  51.9391098  87.6211243  82.9856262  52.6756935  87.4734497
  83.9416656  51.7467346  86.7565079  37.4491196  16.9919071  73.7963409
  37.5217323  16.1699009  74.2813797  38.1859856  16.9755306  73.1856079
  84.2669525  21.9969864  15.1589766  84.1770706  21.4935513  15.9681158
  83.5182648  21.7293892  14.6259766  19.2914238   5.8538938  15.9991503
  20.1377010   6.2952375  15.9266071  19.1827602   5.4049897  15.1607533
  15.1301003  55.2400246  50.5250626  15.7983761  54.5860748  50.3201523
  14.6140184  54.8433151  51.2268524  54.1755943   8.9086618  52.7230644
  54.6185951   8.1243143  52.3993645  54.8394127   9.5964756  52.6731606
  47.5102615  51.0333748  42.4754944  46.5931053  50.9878197  42.7456474
  47.5135384  50.6934738  41.5806808  39.8166504  57.7568474  36.6560020
  39.0255013  58.1036797  36.2436676  39.8346138  56.8342705  36.4015198
  65.4256363  38.6574860  86.6547241  64.9085846  37.8531799  86.6993332
  66.3102036  38.3619347  86.4392853  64.1701660   2.1760147  88.6238556
  64.9903412   1.6871092  88.6910858  64.2797928   2.9116888  89.2263489
  28.8233776  48.9946785  23.2227554  29.7229958  48.7842827  23.4730606
  28.7206364  48.6096458  22.3524532  69.0682907  43.0237885  49.3569717
  68.9476166  42.7436066  50.2642555  69.0293121  42.2135162  48.8488693
  62.7855453   1.1782908  26.5467567  62.8027840   0.5395436  25.8340607
  61.8547516   1.3159084  26.7225819  67.5331650  13.0573759  25.7892017
  68.0177994  13.6437368  25.2082195  67.8731613  13.2509518  26.6627941
  39.3699799  54.3363457  50.6385040  39.6859474  53.5777931  50.1475906
  38.7321968  54.7495651  50.0565109  85.2039642  11.5344191   9.5199947
  85.2804337  11.3066502  10.4465504  84.5680466  12.2495909   9.5008459
  34.8899307  58.2029648  25.5631351  35.4454575  57.4453468  25.7465458
  34.6516685  58.1076202  24.6409779  81.0181122  49.6893349  29.7233829
  81.3410416  49.7975769  28.8288250  81.5639648  50.2753792  30.2476254
  46.2313118   5.3542037  21.3590469  47.1450386   5.1574702  21.5655174
  46.2151337   6.3015366  21.2229176  53.0521927  17.0241280  57.2625084
  53.4266434  16.4582024  56.5874176  53.7850456  17.2162857  57.8475151
  32.0813828   0.2145987  41.3698921  32.8543968  -0.1870149  41.7666168
  32.4060097   1.0273659  40.9822617  14.6453896   9.9186869  29.0122814
  15.5568504  10.0476542  28.7499104  14.4301167  10.6996756  29.5221310
  41.4444962   0.6918561  44.6767769  41.6915550   0.6187250  43.7549057
  40.5570297   0.3353427  44.7159081  16.6457043  67.4853745  10.4495010
  16.5349674  67.7463226  11.3637629  17.2730751  68.1153793  10.0949135
  75.6548843  66.2196655  85.9518127  75.7671432  66.2360306  86.9022598
  75.6389847  65.2890167  85.7284927  17.2452488  12.4864273  30.6578598
  17.6581821  13.1060286  30.0563507  17.6193256  11.6376457  30.4214935
  70.8750763  71.6073456  29.7854443  70.7694931  71.2936401  30.6835957
  70.7546539  70.8274765  29.2436447   2.0443125  10.0926781  85.3407745
   2.7719510  10.1063118  85.9625320   1.5827941  10.9171362  85.4940720
  73.0388641  10.7827187  15.8746271  72.2068176  10.4160776  16.1737938
  73.3968353  10.1167078  15.2876692  66.4724350  69.9698257  72.3519440
  66.9017487  70.6532593  71.8373184  67.1090012  69.2555161  72.3798599
  23.2009029   4.5987310   2.6134059  23.5327473   5.2425122   3.2392311
  22.3036366   4.8796449   2.4338763  31.0395069  40.3796501   3.6331964
  30.0994606  40.5388870   3.7179656  31.4493656  41.1364746   4.0520787
  86.0692368  57.0703163  47.4138680  85.8958817  58.0014381  47.2753220
  86.5951691  56.8095169  46.6578217   9.2372541  22.8379078  54.2506638
   8.9566278  22.9209442  55.1620255   8.6249285  22.2096519  53.8678017
   6.2077150  34.2455292  22.0783348   5.9393682  35.1504822  22.2373295
   6.0047555  33.7885971  22.8945770  12.6625109  59.8306351  69.5592957
  12.1827564  60.3939247  70.1665649  11.9809217  59.3550758  69.0844193
  40.5098419   6.6161938  62.1598358  41.4367905   6.6516562  61.9237518
  40.1204720   6.0270872  61.5136337  10.9074926  24.4608536  71.9353867
  11.0785275  25.1548004  71.2986679  10.0034075  24.6081772  72.2131653
  46.6962814  38.7744102  79.1247482  46.2199097  38.7924919  78.2947006
  46.1105118  38.3159065  79.7271423  41.3327637  11.3196049  45.0766983
  40.9258881  12.0016518  45.6110191  40.6192055  10.7132111  44.8783150
  36.1556053  51.1272202  20.1525784  35.2499428  51.4362755  20.1303921
  36.0822334  50.1749611  20.2162151  55.2993317  16.2412148  80.5805893
  55.3276215  15.2846708  80.6019363  56.1055412  16.5145035  81.0182724
  83.6680145  21.8841591  87.6038437  84.5566101  22.1050243  87.8828735
  83.1542282  22.6681252  87.7978668   6.8421063  67.0507736  31.1018353
   6.9643764  66.6015244  30.2654991   5.9012980  66.9940948  31.2688656
  54.5782433  16.4299831  13.3599358  55.5199509  16.5896969  13.2974033
  54.3469353  16.7056408  14.2469206   4.9249473  40.8756065  58.8977623
   5.2136059  40.9391327  59.8081894   3.9948275  40.6571846  58.9560928
  77.4916916  36.6451759  83.7024841  77.5740585  36.5174599  84.6475449
  76.5842285  36.4113388  83.5073853  40.9332199  59.6217537  68.3255310
  41.7401772  59.1380959  68.1491013  40.2471161  58.9543648  68.3164215
   3.3329988  64.1984329  18.6018028   3.2065439  65.0780945  18.2462082
   4.2777133  64.0530090  18.5508308  64.4178314  31.4335556   2.8376217
  63.5092850  31.3527031   2.5473838  64.3534775  31.6804085   3.7602019
  86.4347076  17.7798119  47.5420418  85.7302856  17.1839848  47.7970123
  86.1062622  18.2166195  46.7561989  59.4859161  53.1835327  67.6989594
  59.5825348  53.8137512  66.9850082  59.3037338  53.7209511  68.4698105
   3.4325786  68.4835510  26.3789349   4.2401109  68.4928589  26.8927803
   3.4236121  67.6217499  25.9624634  50.6121330  60.9702721  17.0108871
  49.7915039  60.5010796  16.8603535  51.2499123  60.5214920  16.4558506
  84.8254623   0.3293272  54.1275597  84.6359253  -0.0738467  53.2803535
  84.5515518   1.2408233  54.0256767  67.8114548  31.0293999  43.4667816
  67.0501022  30.4629269  43.5920067  68.4016190  30.5184612  42.9128189
  67.3361664  24.7656898  73.0518265  67.9514008  24.5642624  73.7569122
  66.4788513  24.7751446  73.4774323  71.5733643   2.7088315  56.3900375
  71.8487320   3.5766680  56.6854477  72.3610306   2.3263586  56.0033455
  25.6166019  71.3976974  31.1984959  25.0701294  71.9317093  31.7750626
  25.0626106  70.6525497  30.9659405  46.2891769  17.2228222  86.0708466
  46.3477135  16.2693539  86.1316986  46.4375229  17.4132614  85.1445847
  81.5902023  25.5857658  30.8277817  81.6086884  25.1228294  29.9901772
  80.8971405  25.1522865  31.3257732  22.0404072  63.9652443   6.6586466
  22.0403099  63.3458138   5.9288945  22.1995068  64.8162842   6.2504091
  58.3177986  17.4808464  68.0440598  57.8175430  18.1475124  67.5733871
  57.7116432  17.1501217  68.7069550  52.2705345  30.7966938  20.7535782
  52.6364708  30.3573208  21.5212193  51.3482094  30.5407295  20.7480946
  69.6370010  23.4096794  47.4302483  68.7753601  23.0377827  47.6186752
  69.9124298  22.9781933  46.6214294  47.4511871  67.5151367  59.2905922
  48.1065559  67.3609772  59.9710007  46.6490898  67.7176590  59.7721100
   9.2135954  69.7640610  17.5610847   9.5830336  69.6661377  18.4386711
   9.7841949  70.4007721  17.1306877  86.5138702   0.6576923  44.3392296
  86.2768784  -0.0520154  43.7422523  87.4312744   0.8430947  44.1386528
  28.7622337  69.5058517   4.6919107  28.7264004  68.7567749   5.2867527
  28.3434391  70.2169952   5.1767979  80.8567047  62.5528755  33.0557251
  80.9055023  63.1883163  32.3415375  81.1418152  61.7281151  32.6623878
   1.2305658  50.9336662   8.9808073   0.6515980  50.1776772   8.8832779
   1.0715222  51.4598236   8.1971674  70.4845200  20.3754997   3.9469972
  71.3675385  20.1278305   3.6728158  70.3322372  21.2224045   3.5277169
  43.3333626  11.3247652  85.1010208  43.9712715  12.0230246  85.2484512
  43.7499199  10.7517996  84.4572601   6.0802398  52.2215614  88.1058578
   6.7316179  52.1805000  88.8060379   5.8778534  51.3060913  87.9130173
  25.1941814  39.1985779   7.3963966  24.9465790  39.4929733   6.5198951
  24.4968281  38.5948296   7.6521702  76.0278168  54.6482162  11.7183971
  75.8351059  55.5620232  11.5085239  75.4241867  54.4333496  12.4295158
  56.1692963  64.1354980  73.9909973  56.7682915  64.8820572  73.9815598
  55.6515388  64.2337189  73.1919327  58.9896660   2.2534821  71.6195526
  59.5215302   2.9703524  71.2739410  58.1672478   2.6689055  71.8789520
  41.1061668  46.3418236  81.2998199  40.9904594  45.5975952  81.8905563
  42.0264740  46.3004837  81.0399017  81.9403000  50.9721832  15.0535421
  81.0894089  51.3924980  15.1782913  82.5776978  51.6575394  15.2541399
  62.6487083  38.8188362  23.9493065  62.7095184  38.5308228  24.8601208
  63.1364594  38.1590195  23.4563866  45.3309021  70.9961243  16.5560398
  44.7887001  71.7274094  16.8518085  46.1730270  71.3953323  16.3376637
  46.2988434  29.6622009   4.2270865  46.5538101  30.4910927   4.6322570
  45.6770515  29.2755222   4.8435950  74.2917404  31.2879620  28.8942623
  74.8826523  32.0177002  28.7084084  74.7011261  30.5341263  28.4695663
  77.3278656  66.0055771  48.0378532  77.4219666  65.0666428  47.8772545
  78.2163391  66.3525467  47.9574585  20.1958027  42.6090202  79.5583572
  20.5486031  41.9688187  80.1763382  20.2804165  42.1879921  78.7028961
  74.1520844  36.0818214  65.4419556  73.2915573  36.2049713  65.0412674
  74.6286621  36.8864746  65.2379074  26.8843975  59.9483757   1.1442297
  27.3728943  60.6033325   1.6428658  25.9657784  60.1388702   1.3341827
  53.5324364  11.1933317  44.5138435  52.5855865  11.3272762  44.4718323
  53.7493858  10.7569466  43.6899910  42.6198959  46.8521004  86.9879150
  42.5549622  46.6409607  86.0565491  43.4605293  47.3018150  87.0735092
  29.8512478   2.6514528  28.8943920  30.2768631   2.1319833  29.5764732
  29.9102974   3.5536935  29.2085667  55.8445854  42.5720558  60.9020920
  55.2347221  43.1413727  61.3713188  56.7098312  42.9242554  61.1107521
  73.4877472   0.8099219   3.0853529  73.0252228   0.0222525   3.3715098
  74.3327179   0.4899917   2.7692835  18.2973194  45.2305336   8.6960859
  18.1212292  44.4242477   9.1809816  17.5649281  45.8065834   8.9151764
  34.6616135  20.3308926  88.2835922  34.8719673  20.7174225  89.1336365
  34.8476143  19.3982124  88.3919678  61.0615578  51.7352943   6.3428378
  61.4784164  51.2709312   7.0686669  60.1246719  51.5850449   6.4689245
  48.0094070  46.7584763  49.9559097  48.7807732  47.0998726  49.5035019
  47.5739670  47.5354462  50.3065453  58.1245575  60.2609444  54.1360703
  57.6898727  60.4104004  53.2964592  57.5301819  60.6390305  54.7841492
  76.5523376  55.3579178  67.1051788  76.2592163  55.6774559  67.9585266
  75.7990417  55.4878922  66.5290833  77.7165451  30.7325211  35.3054161
  77.2164841  30.0648479  35.7748718  78.0238800  31.3269482  35.9898415
  78.2600632   1.4947121  39.8841705  79.0265808   1.9423633  40.2423477
  77.8949127   2.1137064  39.2519188  32.6032829  17.2960224  87.2803192
  32.5659409  17.5615940  88.1991806  33.5212402  17.4113426  87.0347900
  75.0687561  35.2058716  46.9522934  74.1739578  35.5025558  47.1182709
  75.4328995  35.8631287  46.3593025  36.5210190  49.5131645  85.0065384
  35.7839203  49.1458626  85.4943924  37.2878418  49.0545692  85.3499146
  85.6409760  58.1856232  55.0913200  86.4885406  57.8126526  54.8489189
  85.0744324  57.9994774  54.3425789  34.5398331  70.6753845  42.3083038
  35.0664558  69.8951111  42.4817123  35.1655960  71.3167267  41.9716415
  83.5422745  20.3077450  31.3358746  83.2776871  20.1294956  30.4334030
  83.5379562  21.2626076  31.4025803  28.6644592   4.7426591  14.8701715
  29.5344048   5.1015849  14.6952467  28.7546558   3.8043184  14.7039995
  18.0112934  64.0606308  11.8174314  17.3124619  64.2732849  11.1988487
  17.6272831  63.4010658  12.3951378  77.3539734  19.6408558  84.5154724
  76.7996445  18.8609695  84.4885483  77.1551590  20.1042271  83.7018433
   2.2470083  14.2052565  73.2536926   1.8787667  15.0835533  73.1576462
   1.7734534  13.8266764  73.9944000   4.5460763  27.7904758  76.3411407
   4.3508453  27.3473015  77.1668015   4.0625272  28.6150093  76.3917084
  19.4049740   3.0690267  16.2347374  20.2710266   2.9427521  15.8471317
  19.3263969   4.0169663  16.3418274  75.5238266  13.8590603  38.3187675
  76.4015961  13.6802816  38.6560860  75.4476700  14.8129225  38.3428383
  20.5395470  53.0178909  82.4853516  21.1362896  52.3201027  82.7559586
  20.8211193  53.7822113  82.9881134  28.3692112  46.9787140  69.6314011
  27.6314545  46.4810638  69.2788467  28.4347801  46.6960030  70.5435410
  58.4939728  13.6272945  76.7021179  57.9506569  12.8441086  76.7896347
  57.8760986  14.3556681  76.7648468  48.7393227  28.1273232  54.1067696
  49.4125252  27.6323433  53.6398392  48.0759544  27.4752617  54.3325729
   8.7586613  48.8842201  79.4787827   8.5163441  49.6174126  78.9131470
   7.9730091  48.3385162  79.5133209  12.7403450  69.4292068  68.3108215
  12.7605600  69.6076279  69.2510300  13.1190567  68.5543213  68.2248688
  56.2131767  59.3709412  76.8487930  56.4706116  58.9517708  77.6699219
  57.0353737  59.6838608  76.4715576  50.4841690  41.6308937  11.7409439
  50.1985435  42.0924263  12.5293827  51.1354828  42.2109642  11.3465557
  57.5961761  12.0083551   0.7710835  57.8654289  11.1049719   0.6048487
  58.0687103  12.5233240   0.1170579  24.2042103  12.0344429   3.3850303
  23.2674408  11.8403301   3.3531690  24.2762127  12.7677507   3.9960186
  22.7189980  34.7038536  88.1243286  22.4241886  35.3541374  88.7618637
  22.5361290  33.8611107  88.5397491  85.7515869  12.8586216  67.7685013
  85.1754379  13.4374475  68.2677536  85.2314529  12.0678282  67.6258850
  19.3474503  68.1549377  28.4016533  19.5738010  68.0364685  29.3241291
  19.7357979  68.9974976  28.1660442  16.1599388  17.7761898  69.7602310
  16.8273849  18.1641636  69.1943512  16.6103210  17.6215782  70.5905838
  15.1518240   2.7640429  36.4368324  14.3055906   2.4390814  36.7442780
  14.9920130   3.6832192  36.2228088  55.8753586  70.8463440  81.7576981
  56.0532074  70.8870010  82.6973572  56.1920204  69.9832687  81.4911270
  43.2150002  56.9784393  58.9789047  43.9961548  57.1891365  59.4904099
  43.5067825  56.3078461  58.3613281  71.3589172  65.0613480  66.6563110
  71.6789780  65.4560776  65.8451538  71.5317535  65.7209244  67.3281097
  58.7141724   2.3382564  19.1035061  58.4898338   2.1923587  20.0225372
  58.3973846   3.2220554  18.9170208  74.0147324  23.7797546  32.9322090
  73.4222107  24.1320229  32.2680893  74.0856781  22.8489799  32.7204170
  69.8755569  13.0244093  23.6102104  69.4660568  12.1598291  23.5779362
  69.6105576  13.3834848  24.4570103  16.4991150  44.2032776  36.8474960
  16.8022041  43.3070602  36.7020226  15.7298279  44.1077766  37.4090195
  22.9711075  61.5702171  29.1863518  22.1179905  62.0039940  29.1702900
  23.0416241  61.1486664  28.3298740  55.8754463  31.9128265  77.8768311
  55.8756638  31.1336536  78.4328156  55.9829559  31.5731506  76.9884033
  56.5759583  68.9040375  56.7303391  57.0211525  69.7250137  56.5204849
  56.7456245  68.3399277  55.9758720  65.9841919  20.3732471  44.2278061
  65.8327332  20.1212921  43.3168678  65.9746017  21.3303299  44.2163582
  33.9304619  41.3575630  77.2030945  34.5658875  40.6582489  77.0500336
  33.8952217  41.8348236  76.3741150  33.6873055  49.8252258  40.0418282
  33.7091522  50.6163025  39.5033569  34.6082611  49.6025963  40.1778870
  51.1712990  16.8662014   7.2328987  51.4928856  17.1219349   6.3683662
  51.5063629  15.9786396   7.3601727  77.4933319  13.3939486  76.4207687
  78.1388931  12.7207565  76.2055969  77.8745422  14.2064419  76.0879517
   4.9202871  21.7665234  44.8630714   5.0620804  22.0054131  45.7790718
   5.7999926  21.6236668  44.5138702  49.4930267   4.6642451  24.5501099
  49.5405807   3.9559829  25.1922436  50.0622635   5.3473792  24.9044094
  86.3901138  51.3417130  70.1799088  85.8693161  51.7648697  69.4973068
  87.1824188  51.8752251  70.2420044  76.2634583   6.2170854  71.8042603
  75.6931305   5.8635626  71.1216354  76.9439545   5.5531607  71.9153976
  45.1191597  63.5298462  42.0790405  45.8036232  63.6919708  42.7282333
  44.3148155  63.8371010  42.4972038  54.4957237  61.2321205  73.1753540
  54.2173958  61.9684334  72.6307449  55.3981171  61.0620308  72.9051895
  68.2686844  63.4504852  22.4098454  68.1000214  63.9632568  21.6193695
  68.6055908  62.6150818  22.0860748  22.9158821   9.1428480  79.6199341
  23.6276703   8.5029640  79.6317062  22.3941898   8.9067078  78.8529205
  46.6030579   1.5272131  22.6505470  46.6705780   1.5603064  21.6963043
  45.6622353   1.4902759  22.8229485  39.0695229  39.0872803  18.1892395
  39.5938950  39.4864578  17.4950333  38.4534111  38.5187988  17.7272186
  32.1823502  39.1423874  70.0820465  31.2276688  39.1064758  70.0226822
  32.3797073  38.8239021  70.9628677  75.1356583  54.1335907  23.4104080
  74.9400787  55.0577545  23.2558193  76.0745850  54.0559196  23.2412376
  11.9431782  36.0987434  71.7376328  11.5262527  35.7643013  70.9435577
  12.2324085  35.3148537  72.2046432  84.2520676  40.3797607  59.1805305
  85.0510483  40.2375603  59.6881142  84.3634644  41.2497711  58.7972488
  74.3932800  15.3306389  31.6851139  73.8813858  14.8710384  31.0195580
  74.4585648  16.2283630  31.3594418   5.4789038   5.7189798  21.0940666
   5.0288963   6.5035987  21.4072742   5.3604894   5.7379589  20.1444092
  25.2670803  66.3750305  88.8226929  25.0768452  67.3030701  88.9597321
  26.0517654  66.2115784  89.3459320  34.1880646  68.7253265  68.3376617
  34.1710587  67.8155289  68.6346664  34.6502113  68.6952133  67.4999619
  28.6487198  64.2300949  38.0723877  28.6578407  64.4344101  37.1372948
  27.8857841  64.6976776  38.4122887  56.4705658  23.7485561  76.8487320
  56.6423340  23.5479774  77.7687836  55.6081276  23.3700104  76.6780396
  65.5968704  45.6419334  79.7343063  65.8925476  45.2000885  78.9383316
  66.2569809  45.4197159  80.3908920  19.9998512  47.9965172  40.3976707
  19.4928818  48.7258797  40.0409546  19.3651600  47.4878120  40.9022675
  65.6749573  48.5019836   0.6162519  64.7599106  48.4441605   0.3413254
  66.1006699  47.7583427   0.1896380  52.7409592  38.4714127  73.7919617
  52.0221825  39.0404167  74.0673218  52.3181725  37.7826309  73.2790680
  61.0280457  38.1683578  12.4927998  61.4708405  39.0168533  12.5077667
  61.7335930  37.5320129  12.3766413   1.0360830  12.0006580  35.3188820
   0.7722813  11.0807180  35.3376045   0.4396407  12.4081221  34.6908188
   0.4194377  37.5108070  50.1472778   0.6975052  37.9416161  50.9555588
   0.1544320  38.2286453  49.5722008  55.2930756  60.0586853   1.3152070
  55.0601501  60.0770378   2.2434535  55.8841934  59.3105011   1.2313451
   2.8634293  53.0979462  56.0816383   2.9429111  53.0574760  55.1286049
   2.1466734  53.7132301  56.2362938   2.7197964  70.8446198  78.7449188
   3.5169156  70.5730057  78.2898865   2.7945988  71.7965622  78.8115540
  38.0981255  68.1180954  41.4385986  37.4443855  68.3684311  40.7857628
  37.6679001  68.2721558  42.2796707   1.4693177  50.8193741  16.4937115
   1.1456589  49.9593964  16.7618847   1.0120724  51.0020828  15.6728725
  10.5551233  33.2864037  45.1032257  10.5658464  34.2357521  45.2251053
  10.8457413  32.9336548  45.9442635  43.3417320  28.0635433   9.4946814
  42.8766708  27.2779694   9.7824745  44.1286545  27.7312775   9.0627270
  54.2393608  47.3829231  27.3679199  55.1597061  47.1872749  27.5437527
  53.7593651  46.9039650  28.0435162  73.6154404  15.4380131  55.0215492
  73.7225800  15.5124035  55.9698219  73.9553528  16.2636700  54.6766090
  11.6524200  36.7250328   9.1466608  11.7321663  36.0046234   9.7718649
  11.0262985  37.3252945   9.5514956  41.6640472  58.8161469  24.5915356
  41.3941040  58.5109367  23.7253895  41.0920639  59.5622330  24.7715893
  47.6611938  12.2878189  58.9637718  48.5177956  12.3097410  59.3903656
  47.4234581  11.3606949  58.9513702  19.5479202  12.0372229  15.9464130
  18.7287540  12.5105429  16.0919018  19.4532986  11.6576214  15.0728102
  52.9924507   1.9945904   2.5493338  53.7773438   2.4392910   2.2293041
  52.9346886   2.2446332   3.4714911  11.5211420  17.0516167  52.2857094
  12.1911192  16.4817009  52.6632767  10.9003782  16.4509335  51.8733253
  18.1739140  60.6165848  79.4682922  18.9629116  60.0771255  79.4163589
  17.4530430  59.9991913  79.3441849  45.6822777  41.8911400  62.6568794
  46.3417397  41.4934654  62.0883789  44.8660545  41.8220520  62.1616592
   7.5318160  16.5369015  87.2862549   7.6033792  16.4558048  88.2373199
   6.6796145  16.1546898  87.0767288  71.6413040  20.9046021  18.1354389
  71.1398392  20.3821106  17.5095234  72.5164795  20.5170803  18.1240463
  29.5012512  68.0339508  39.8878250  29.0884609  67.6950989  39.0934601
  29.4978104  68.9842148  39.7728767   1.7035904  47.4227638  61.6147537
   2.0683248  47.6176147  60.7514839   2.2599323  47.9071770  62.2247200
  72.5907745  28.4205723  27.3763714  72.2660522  28.2758389  26.4876423
  72.3796005  29.3354435  27.5625057  40.0088425  51.7384300  83.9813843
  40.4446106  52.5380249  83.6864471  39.0764885  51.9119720  83.8516388
  79.6009369  66.7906342  29.2789803  78.7724152  66.5607910  29.6996365
  79.9772339  67.4655457  29.8438988  64.8651733  43.4468460  43.4917831
  64.9313889  42.8719368  42.7293320  65.4285202  43.0386124  44.1492157
  38.6856232  11.8908072  73.1395493  38.7458534  12.1413412  72.2176819
  38.9907646  12.6618299  73.6177216  37.9506111  50.9860725  76.0689621
  37.2320290  51.2868690  76.6251984  38.6141090  51.6720161  76.1430130
  16.0975513   9.0348263  51.7169838  16.5337982   8.2084951  51.5093842
  16.4127235   9.6459532  51.0510826  17.2045708  54.9674644   5.1759930
  17.5390873  55.8535576   5.3144388  17.9718475  54.4036980   5.2744055
  38.1169090  44.8530617  81.8001785  38.2177429  45.5730972  81.1775894
  37.2443085  44.5024681  81.6216202  50.3604546  49.7469788  69.8908844
  49.5945930  49.8548775  69.3269272  50.4041977  50.5603561  70.3936157
  38.3277702  40.6632500   4.2571049  39.0791130  40.1357498   4.5281396
  37.5795174  40.0711594   4.3331261  31.8401451  36.2126389  74.5213242
  31.5770321  35.5034142  73.9348068  32.3341827  35.7778206  75.2163696
  16.8208542  55.1893959  30.8855820  16.6736431  54.2796326  30.6269417
  17.0767765  55.6303024  30.0754356  20.5795345  35.5234604  12.0811653
  20.0202770  35.3827400  11.3171883  19.9922409  35.4210091  12.8300447
  42.2996712  66.9881897  38.3407707  41.8013039  67.6122818  37.8131676
  42.7159691  67.5240250  39.0159073  47.8844872  70.8983154  19.2119923
  48.3291359  70.5643082  19.9910641  47.5028458  71.7302246  19.4922009
  12.2758131  10.0530558  17.1584473  13.2273483   9.9583158  17.2013054
  11.9400644   9.1697092  17.3107738  21.4206886  13.9893389   2.6662593
  21.3959122  13.9831448   1.7093999  20.7009983  14.5668421   2.9207525
  16.3838654  52.3217506  26.4932976  15.4908581  52.2851334  26.1506195
  16.5359688  51.4503593  26.8590527  31.0263920  58.9261131  34.9013138
  30.1614990  59.2271385  34.6227875  31.6352997  59.3631210  34.3059235
  70.4931641  22.0295753  79.4879761  70.2910995  22.7789021  80.0482559
  70.3996735  22.3650646  78.5963821  68.7690582  40.8811111  73.3504639
  67.8389969  41.0818481  73.4549713  68.9800415  40.3257866  74.1010208
  75.5262451   8.3128586  28.9004688  76.2575226   8.9048653  29.0765419
  75.6413116   8.0555305  27.9857159  45.3771019  53.0985870  70.7736053
  45.7625275  52.4958000  71.4094696  46.0030098  53.1153908  70.0495911
  61.1842041  43.1884766  10.8963261  61.1096764  42.6983948  11.7151651
  61.4836693  44.0574265  11.1636734  82.9113693  67.1199265  47.4010429
  83.4953766  67.2252579  46.6499939  83.4977036  66.9507980  48.1385002
  37.1325760  51.7276268  71.7106323  36.8675308  51.7339592  70.7908859
  36.6017914  52.4123955  72.1175690  85.8482895  14.7787695  65.8057709
  86.0840225  13.9655867  66.2523117  86.0586929  14.6167068  64.8861542
  66.0130463  62.3787155  63.2628212  65.0814285  62.2883072  63.4631615
  66.0364532  62.9106140  62.4673538  20.7041721  34.9895935  72.2960663
  20.3229542  35.3146629  73.1116867  20.0565605  34.3705406  71.9590149
  44.4685135  56.4906311  42.2932930  44.0837898  56.6328545  41.4284248
  44.8702965  55.6236572  42.2370758  82.6852112  28.8898258  84.0154114
  82.8884430  29.5435314  83.3463898  83.3288956  29.0461693  84.7063904
  63.1211281  16.3659019  41.4905739  63.7054100  16.3565521  42.2487030
  62.9114685  15.4444275  41.3383904  18.3496761  65.0325241  24.6559467
  18.0521164  65.5554428  23.9114685  19.1826420  64.6587296  24.3684158
  40.3167496   8.0058975  11.7147379  40.7386627   8.8621340  11.7860155
  41.0305367   7.4039688  11.5039711  58.8979950  28.9559402  70.7391663
  59.1895828  28.0451508  70.7800064  59.6064224  29.4528122  71.1484146
  15.7714882  31.2975407  27.0300655  15.2638416  32.0824051  27.2362518
  15.3179235  30.9085178  26.2822857  36.5970497  68.2477875  83.6247253
  35.8808746  68.3886032  83.0054550  37.2801399  67.8206635  83.1078339
  86.6459656  15.1856337   7.1588268  85.9146423  15.0822515   6.5499659
  86.9219894  14.2905149   7.3558092  72.7534561  56.5697250  32.6233101
  73.2494507  56.1675034  33.3363609  72.9354706  56.0169373  31.8633595
  53.4477310  57.2417755  42.3460770  53.6278114  58.0884972  41.9375877
  52.5380173  57.0532951  42.1155930   8.9094000  20.8608437  71.6679611
   8.3593884  21.4400635  71.1404877   9.5962725  20.5706882  71.0677567
  17.4533367   2.8057296   1.7835772  18.1392670   2.9907789   2.4250500
  17.1673298   3.6683867   1.4831542  69.9018707  30.9996395  13.7876863
  70.3508301  31.8075466  13.5387774  69.2263489  30.8853130  13.1192322
  63.9064407  42.3127365   3.8671710  64.3437729  42.3610115   4.7172561
  62.9761887  42.4102859   4.0705113  18.0368385  36.0820007  26.9546242
  18.6083374  36.8391228  26.8266220  17.8269768  36.0954781  27.8884373
  17.4904957  69.8106155  72.9202728  16.8024864  70.4289169  73.1664047
  17.9383755  69.6109543  73.7423248  42.4334297  47.3095970  84.0334702
  42.0232201  46.5037117  83.7196121  42.0350761  48.0021591  83.5063019
   1.9095163  36.2784843  27.2833157   2.3041959  36.7391014  28.0237827
   2.6530881  36.0156364  26.7408733  62.1318359  57.6205063  56.7371254
  62.5256119  56.7859306  56.9914017  61.3528442  57.3755074  56.2377472
  82.4539719  45.2244492  45.5089493  82.9077682  45.9805145  45.8813324
  81.7516556  45.0361519  46.1314621  57.8339539  61.6970177  28.7093029
  58.2888870  61.0099564  29.1963463  57.0780602  61.2556190  28.3219700
  81.5689774  67.4474258  25.8923321  81.6196976  67.7251511  24.9777145
  82.3524933  66.9136658  26.0243702  11.5288715  11.6882582  37.6903191
  11.2836161  11.3682070  38.5584488  11.4103003  12.6366577  37.7423782
  45.3705750  37.0234604  80.7349625  44.7662277  36.4898262  81.2509384
  46.1602287  36.4875069  80.6612396  40.2715378  58.6181564  55.6480865
  39.3217049  58.6958199  55.5585594  40.4101143  58.4313431  56.5765953
  71.4645615  35.6517754  40.2757378  71.9133606  34.8176842  40.1375046
  72.1192474  36.3150787  40.0574417  17.9528847  39.1589470  86.6686172
  17.7751713  39.2762909  87.6018295  17.2542896  38.5805206  86.3626404
  23.3501949   5.1159420  35.3199005  23.9285965   5.7855902  35.6849442
  23.1271286   5.4416108  34.4478836  79.1946564  43.0942421  12.0515509
  78.3722992  43.4354248  12.4030628  79.8362045  43.7808571  12.2337856
  21.5684776  34.7597466   8.7028236  21.3828411  34.0887833   8.0458775
  21.0225410  34.5194817   9.4514618   6.9325852  32.8126450  54.4149094
   7.4180589  32.7987061  53.5900726   6.1026917  32.3811188  54.2116966
  74.2180405  49.1737938  29.2950935  74.9997406  49.6158943  29.6263371
  73.8062897  48.7996559  30.0740128  83.4947281  26.5158558  83.0781326
  82.7770920  26.4223137  82.4516449  83.4432755  27.4269848  83.3669739
  64.3472672  57.6758919  39.4713173  65.0769501  58.1278915  39.0476570
  64.3540802  56.7986832  39.0883141  71.7183456  32.3776665  71.0899048
  72.3910217  32.0863724  70.4743576  72.0421066  33.2160110  71.4194336
  43.2789955  60.3568878   7.8381090  43.6660080  61.1787033   8.1398840
  42.4723587  60.2711868   8.3462639  29.3306885  52.8300705  42.1047897
  28.7424812  52.3405075  41.5298347  28.7974339  53.5543289  42.4323921
  77.0151291   8.4338036  19.4488354  76.4242096   8.4162312  20.2016563
  77.7439117   7.8677287  19.7031345   5.0564528   4.0784435   3.9333835
   5.9472723   4.2783756   4.2209582   4.4967136   4.6052980   4.5037766
  77.1163483  10.4301710   3.1377530  76.8070755  11.2280169   2.7087719
  77.6972122  10.0225782   2.4953418  54.8492661  19.4555874  21.8798504
  55.6517067  19.9483147  21.7079659  54.4035301  19.9549122  22.5641212
  33.8996429  69.9131622  71.4547424  34.4902458  69.7812729  70.7131119
  34.0583954  69.1603165  72.0241776  13.4660769   0.3202818  26.2557659
  12.5908279   0.2233115  26.6309566  14.0109100   0.6052706  26.9893665
  58.5875702  11.3499861  17.8573723  58.2426109  11.9000969  17.1540852
  57.8102112  11.0382147  18.3207779  34.3303185  67.5839081  56.0277748
  34.4323730  67.7636490  55.0931549  35.0446625  66.9814835  56.2352180
  16.4127655  59.5399361  10.9211626  17.2442436  59.9820061  11.0927734
  16.1274357  59.2250404  11.7788677  86.3054962  65.1000366   0.4517325
  87.0529099  64.7038498   0.0038026  86.5195007  65.0305405   1.3821107
   6.3295994  65.7345505  28.5387421   6.0103564  64.8885117  28.8526325
   6.8441215  65.5224457  27.7599545  48.9825821   9.8282070  37.4867325
  48.3777313   9.5327253  36.8062325  48.5199089  10.5426178  37.9246635
  61.6825638  54.6541481   5.0547638  62.5387611  54.2886620   5.2774148
  61.1020393  53.8943787   5.0102954  14.7089586  60.4682655  39.7024918
  14.6263285  60.9564362  38.8832893  14.3286200  59.6112251  39.5099945
  31.2234516  44.2416534  76.8573837  31.5217590  44.9661865  76.3075638
  32.0255356  43.7788391  77.0996552  48.2394905  48.5979156  80.0911179
  48.4496002  49.4688301  80.4281540  49.0906525  48.2004509  79.9073334
  72.4062881  48.3900223  69.9850922  72.5147324  47.4412880  70.0512085
  73.2998886  48.7328300  69.9710159  50.6866074  11.1231575   3.8897924
  50.8588142  10.2147341   4.1374698  51.5391731  11.5539379   3.9513795
  27.9680328  40.8417397  75.0525055  27.7105923  41.3088264  75.8473587
  27.5945721  39.9666595  75.1573486  72.0803375  51.4357834  48.7699890
  72.2051239  52.3560982  48.5382996  72.9679413  51.0869255  48.8518333
  14.3527966  36.3409538  33.4514618  14.5862122  35.8765945  32.6476440
  14.6815262  35.7816277  34.1552544  34.3196487  58.7323189  20.2355995
  34.4759331  58.7797279  19.2924347  35.0521126  58.2174339  20.5741615
   3.9244561  25.3003502  41.5552025   4.2723732  26.1901207  41.6143150
   2.9848399  25.3999233  41.7082977  17.2547016  36.3391914  81.0307312
  16.4691849  36.3773880  80.4850769  17.6905346  37.1783714  80.8822174
  67.2554550  47.0691032  88.2364731  67.6918335  46.2737961  87.9310379
  67.8810272  47.4684525  88.8409729  10.0043259  55.2410202  34.9142952
  10.1050882  54.3252754  34.6544991   9.7142601  55.6854515  34.1176949
   7.4240780  30.4931831  25.6699543   7.9693294  30.5903034  26.4506607
   7.9423614  29.9428730  25.0827808  78.4696579  58.5347633  84.4405823
  79.1975174  59.0315819  84.8142548  78.2329025  57.9068108  85.1231232
  80.0999985  21.1072273  65.5735092  80.4697266  20.7157917  64.7821121
  80.8623123  21.3650932  66.0917892   0.7490038  19.4149609  56.2952728
   1.4624956  19.9566307  56.6325455   1.1738551  18.8118782  55.6853333
  50.8296089  58.0306511  14.9054232  49.9155693  58.1695023  14.6574612
  51.2656975  57.7903442  14.0879202  58.9125099  65.2319412  87.1820526
  58.8509407  65.3935089  88.1235046  59.3094292  64.3636169  87.1135101
   7.0437145   2.0630159  14.5072250   7.0540295   1.2800686  13.9566631
   7.9585190   2.1916356  14.7578678  82.0684128  12.6375284  11.7874651
  81.2661209  12.4805460  12.2853756  82.6983871  12.9452448  12.4391327
  79.1315613   9.5028229   1.7056167  79.6974792   9.6927471   2.4538839
  79.2750168  10.2342663   1.1050806  72.6979828  14.7621641  18.0758724
  73.4074936  14.1889763  18.3661861  72.4707489  14.4392290  17.2039146
  76.6578903   9.2591362  33.4257507  76.1800385   9.2415667  32.5965462
  76.7673264  10.1901245  33.6194382  60.1069374  45.5390816  62.9039040
  61.0354004  45.7416878  62.7892761  60.0435143  45.2042313  63.7983780
   0.0796962  45.2968330  86.4084167  -0.6845611  44.9595528  85.9411011
   0.8103420  45.1548691  85.8065567  69.0375519  71.8434143  84.4030228
  69.6377869  71.4230652  85.0188599  69.2613983  71.4636612  83.5533676
   6.1530375  11.0556250  79.1905975   6.1046071  10.1041079  79.0983887
   5.7466111  11.2350912  80.0384369  29.2440548  39.0887718  85.0559158
  28.5566921  38.4516068  84.8615189  30.0190544  38.5571327  85.2374878
  34.9696579  43.2519073  61.3284302  35.5992012  43.8626900  61.7116432
  34.2723312  43.8106308  60.9852219   2.9214566  16.2278290  25.2216549
   2.5496438  16.3317261  26.0975513   2.4053376  16.8165703  24.6709862
   6.7491202  59.9507790  54.9976311   7.4276896  59.3580856  54.6743813
   7.0319567  60.8186188  54.7093773  68.6118546  43.8726349  28.8730888
  68.2922668  43.1133804  28.3856144  69.0780945  44.3965721  28.2216740
  38.0837631  13.1296930   2.0741887  37.8606911  12.3095255   1.6339662
  38.9557991  13.3483982   1.7456254  52.4460373  59.2591743  30.8870106
  52.0106392  58.8990097  31.6596298  51.7410698  59.3857231  30.2519970
   3.9814694  14.5800524   2.7240694   4.7100563  14.5362282   2.1048176
   4.1453376  13.8639851   3.3377686  66.1306610  70.2669983  47.9027557
  66.0495377  70.5261841  48.8206177  66.8387375  69.6229248  47.8974342
  79.4066391   4.3071117  21.9393578  79.1280136   3.8948548  22.7570629
  79.1310120   3.6953981  21.2566662  29.0112038   3.4697595  26.1468048
  29.6846008   4.1233044  25.9580021  29.2038517   3.1778708  27.0378265
  56.2485695  13.0416918  64.9358978  57.1694260  12.7987490  65.0320129
  55.9422112  13.1787910  65.8323288  15.5768557  32.5028725  79.2685471
  15.1130571  31.8748283  78.7147598  16.4284763  32.6121140  78.8454132
  86.1455841  52.3480949  20.1928940  86.0703430  52.0508118  21.0996418
  85.4278336  51.9090080  19.7365360  34.8471718  50.9486275  60.5482674
  34.6460724  51.7431259  61.0427971  35.7581367  50.7537231  60.7682381
  38.5606575  67.1356277  82.3475494  38.9081650  66.4461517  81.7817764
  39.1634369  67.1621857  83.0906372  76.7101440  57.0017624  79.9350967
  77.0944672  57.6299553  80.5465775  75.9695435  57.4677010  79.5469666
   0.9379292  64.2417145  38.0676384   0.8950894  64.0728607  37.1264229
   0.3197207  63.6195374  38.4509735  73.7832108  53.8550262  45.1008072
  74.1760864  54.6071434  45.5437469  74.4302292  53.5994415  44.4433212
  50.6432266  11.4662180  43.6719513  50.3535576  11.8684053  42.8530693
  50.0174713  10.7583694  43.8256187  83.2187347  53.6083298  30.1955090
  83.8525620  53.4414711  30.8931198  82.3659363  53.5322266  30.6234913
  20.0560360  66.5566330  39.2673035  19.2566395  66.5327911  39.7932549
  19.7856083  66.9513702  38.4382744  32.4365196   3.3405018  84.6038666
  33.3198433   3.2021120  84.2620850  31.9488010   2.5642867  84.3284531
  77.4949341  37.0552826  36.8542480  78.0561600  37.4562225  36.1905479
  77.1385193  37.7954979  37.3454552  69.0418472  37.1307144  62.8509865
  69.1741180  37.7733917  63.5479088  68.7183990  37.6436729  62.1103859
  60.2906837  64.8505020  41.3520126  59.8026962  64.5853348  40.5724106
  60.4545212  65.7850723  41.2256546  70.8174515  43.8441353  82.4510880
  70.2222748  44.4270554  82.9224701  71.2783737  43.3647423  83.1395416
  63.8796654  48.3153725  44.4620972  64.0178375  47.6412621  43.7967262
  64.7483521  48.6902885  44.6072044  58.0579567  66.5960770  63.2494774
  58.4394493  65.8719635  62.7531433  57.2422409  66.2408981  63.6025887
   8.1908245  56.4930229  74.3556595   7.4136782  56.9260330  74.7089005
   7.9989004  56.3783760  73.4249268  30.9803009  21.8342476  40.3300056
  31.2831306  21.7828922  41.2365875  30.9115639  20.9219933  40.0484047
  58.2306137  44.5354805  55.1209183  57.7796249  43.7161140  54.9172516
  57.7971115  44.8574333  55.9112701   0.7687086  26.6371861  79.2563553
   0.6773814  27.3561325  79.8816605  -0.1212671  26.4792137  78.9413681
  74.7921829  62.1772652  19.5875912  74.9274063  61.7149391  20.4147549
  75.5096893  62.8095093  19.5465107  31.2086372  12.0400276   5.5301785
  30.4389782  12.1056232   6.0954700  31.1740036  12.8268423   4.9861617
  24.3555965  51.7176590  86.6535950  24.1867905  50.7754898  86.6611099
  23.6545162  52.0822983  86.1134491  52.8384666  19.5614605  48.7798805
  52.8369141  20.1359634  49.5455017  53.1737900  18.7268715  49.1073723
  69.7680817  23.2022800  50.3144875  70.6016541  23.2847691  50.7777176
  69.9887619  23.3537598  49.3954773  49.9968414  55.1735764  11.0059299
  50.9006157  54.8678093  10.9289265  49.5402222  54.4610672  11.4532118
  11.9478493  20.7290497  32.9073982  12.0270519  20.5469437  33.8437729
  11.7652454  19.8765736  32.5122147  47.0282211   7.4564037   2.3169765
  46.7559547   7.2904916   1.4144380  47.9775429   7.3342457   2.3070705
  11.4005327   6.1346388  27.1434879  11.4411192   5.1783004  27.1421642
  10.5627899   6.3393879  26.7281609  78.7576523  58.9338341  59.4203339
  79.0841141  59.6774902  59.9269218  78.6327209  59.2818375  58.5374298
  78.1139679  48.1580391   2.2831545  78.8102951  47.5028687   2.2371678
  78.5434647  48.9401131   2.6297493  14.7456150  38.4311638  35.8597450
  15.0784378  37.5346222  35.8188591  13.8677254  38.3440437  36.2311630
  80.3889160  41.7234535  39.6725807  80.4730759  41.0996132  40.3936729
  79.4755478  41.6483574  39.3962746  16.4994087  69.7921066  80.1605301
  17.1013546  70.1378326  80.8195953  15.6337881  70.0760193  80.4543381
  46.6194344  33.5022087   2.6290019  46.3340263  33.8345604   1.7779342
  45.8551216  33.6070366   3.1956320   2.4200351  39.2798309  21.6993294
   2.9334073  39.9600792  21.2635078   1.7474208  39.0416374  21.0612965
   9.6230574   9.9337330  33.8149681   9.1004448   9.1902275  33.5144539
   8.9775209  10.5950336  34.0643616  11.3941631  23.8802299   5.3515830
  10.8480682  24.2493019   6.0456996  11.0384169  24.2512760   4.5441175
  43.1283569  39.6085205  11.4762402  43.3745918  39.4730606  10.5612268
  42.2264519  39.2925797  11.5308561  21.2878952  61.6203079  19.8122883
  22.1021023  61.3216743  20.2173996  21.2636662  61.1738281  18.9659405
  37.9135094  70.8341064  25.5659008  37.3473282  71.5810318  25.3715305
  37.5216675  70.4318695  26.3410740  81.4027405  58.8152084  68.8374329
  81.7062988  57.9174919  68.7025833  80.7072296  58.9326096  68.1903534
  10.7850342  21.5763035  20.7485790  11.4576073  21.2603359  20.1452198
  10.0227432  21.0267277  20.5666180  55.6547432   5.1974530  66.9596024
  55.2543755   6.0207720  67.2390289  56.1909943   5.4363613  66.2035599
  28.1628990  45.9283257  64.4016876  28.2449932  45.1516762  64.9551392
  28.2628155  45.5978737  63.5089111  22.5919724  29.8181133  84.2058334
  21.9894733  29.7519207  83.4649887  23.4114704  29.4440174  83.8822479
  23.3229427  18.2300224  79.2110291  23.6308002  17.3415947  79.0317154
  24.0192947  18.7964573  78.8786392  65.2475891  39.1092491  13.2720070
  66.1161118  39.3022232  13.6250706  65.1897125  38.1539192  13.2871971
   0.9313139  60.2383194  16.1927242   1.1666871  59.4898834  15.6443872
   0.7590130  60.9457169  15.5713263  58.7026711   1.9141456  11.5445385
  58.6622734   0.9922138  11.2902908  57.9573364   2.0331337  12.1332207
  77.8379745  35.5205383   6.2257805  78.7239685  35.3580132   5.9019880
  77.3953323  35.9620895   5.5009847   5.5472674  40.7235641  87.0983047
   5.7099605  40.8098145  86.1589813   5.9300184  39.8776398  87.3309937
  55.3421822  63.2397041  25.8666668  55.6206703  62.6198311  26.5407848
  56.0705643  63.2618256  25.2460155  66.5387573  18.2030735  77.9317627
  65.8887711  18.2625427  78.6319122  66.7535706  19.1129837  77.7264557
  60.7116547   7.4174027   5.4925389  59.8362503   7.3522334   5.1108928
  60.9469604   8.3401871   5.3959436  72.3558578  48.0915833  45.8424110
  73.0093613  48.7009392  46.1857033  71.7320862  48.6474495  45.3753471
  56.3921585  14.7495604  16.5659466  57.0165138  14.1817799  16.1142406
  56.6666603  15.6374722  16.3368301  61.5814018  31.4428978  21.7263927
  61.9674110  30.6300354  22.0527096  62.3321533  31.9786549  21.4703236
  74.2816772  10.9875584  47.8842430  74.2458420  11.7450495  47.3001595
  74.9894180  10.4473677  47.5327759  23.5003567   2.7108436  39.9456596
  23.8444061   3.5989990  40.0407448  23.0248604   2.5496595  40.7606163
  12.2227516  70.0862198  49.5040283  11.6958199  70.8459778  49.2563667
  12.1881742  70.0722733  50.4605026  39.7469292   9.3405619  23.5106964
  38.9898148   9.8760719  23.7478390  40.4816360   9.9540749  23.5041809
  82.8217850  22.6200714   2.0560479  82.3770370  21.8410149   2.3899670
  83.6955414  22.3122768   1.8151158   4.8867331  41.4769936  38.4068642
   5.5769258  41.0271950  38.8942528   4.9416852  41.1133995  37.5231133
  73.9604492  16.0084457  36.6499367  74.7235718  16.3992825  37.0755157
  73.3561401  15.8199730  37.3679314  40.5322151  66.8034286  64.7142029
  40.5716209  66.1799622  65.4394379  41.4481735  66.9967957  64.5145493
  47.5959740   4.6878543  27.1662636  47.0121803   4.1071372  26.6782265
  47.3556366   4.5537853  28.0830479   3.5825996  31.3491116  51.1563797
   3.1094310  30.7814045  50.5480652   2.8985865  31.7422314  51.6984291
  39.2467728  48.0679588  85.5685043  39.7245445  48.6411438  86.1680298
  39.4266739  48.4268875  84.6995773  72.6167755  30.1836605  11.8769045
  73.1066055  30.8154774  12.4033098  72.6609039  30.5293560  10.9854002
  42.2761345  50.2309074   6.3585334  43.0324936  49.8346405   5.9259615
  42.0727425  49.6346092   7.0791521  66.7503662  13.1462879  67.5840530
  66.5057449  14.0588789  67.4305191  67.3878937  13.1858912  68.2969513
  31.7519760  41.2265739  67.9742126  31.8325920  40.6147614  68.7059402
  32.6501198  41.3545341  67.6689377  44.3788681  54.8663292  88.1238785
  44.9551430  55.4605865  88.6044922  44.8831062  54.0567093  88.0433197
  68.8081207  46.9182854   5.4107137  69.5228577  46.4112129   5.7957578
  68.5525436  47.5326614   6.0987954  70.8506546  49.0452538  78.7520294
  70.7781219  48.5000191  79.5354080  71.7729568  48.9852753  78.5030289
  53.4181557  20.3874283  11.4675589  52.6514549  20.4615517  10.8993092
  53.8937225  19.6282539  11.1303320   8.2180939  24.9318066  14.9822378
   7.7265248  24.9543476  15.8032637   8.5197611  25.8318176  14.8589077
   7.4865794   8.0243254  33.6524048   7.1931353   8.4428463  32.8431053
   7.6453924   7.1129112  33.4067764  46.7290573  43.9763756   3.1307113
  45.8296814  43.6999130   3.3065562  47.1934242  43.8177223   3.9525537
   9.8067427   3.8985872  11.7236099   9.6476564   4.7088723  12.2077188
   8.9349270   3.5971873  11.4680176  17.5099735  62.3270569  38.5256310
  16.9135342  61.9890366  39.1936417  18.0392361  62.9790993  38.9849281
  54.8150902   4.2746739  14.9776716  54.8475418   3.6601908  15.7108765
  53.9164238   4.6042566  14.9809818  77.0408478   6.6134233  58.4363136
  77.7662659   6.3008795  58.9769859  76.8357010   7.4796147  58.7882462
  59.5588455  42.0720367  29.4157200  60.4475632  42.4269600  29.4369049
  59.5236282  41.4699135  30.1589813  13.2189960  69.1103668  59.6391411
  13.7455158  68.7355804  58.9330635  13.1492682  70.0392456  59.4187889
  21.1729679  17.6459961  86.0963669  20.3119106  17.8832970  85.7521286
  21.7174835  18.4156418  85.9309006  69.4238205   8.6663294  35.2766190
  69.4125214   9.4513655  35.8241768  68.7145157   8.8022528  34.6484108
  22.1649075  22.3630638  17.1459198  21.9104118  21.4405212  17.1654587
  22.8383198  22.4401188  17.8217983  81.6311798  59.3935661  14.7473812
  81.6871643  58.9054108  15.5688457  81.1568146  58.8108749  14.1543579
  38.2906799   2.2258461   4.0504532  38.0594635   3.1537986   4.0913849
  37.5261459   1.7726128   4.4058423   1.7763896  11.6151495  16.5445232
   1.6204346  12.1806488  17.3009090   2.3152752  12.1445885  15.9567060
  67.4411316  64.7230072  20.1404495  67.3521118  65.5350266  19.6415215
  66.9754791  64.0692062  19.6189671  48.5696602  30.8761539  71.0070038
  48.6408043  31.0858917  70.0757828  48.2391510  31.6795692  71.4088974
  10.8906040  13.7450571  87.6456985  11.8155117  13.9882593  87.6860657
  10.4906225  14.4154720  87.0918121  85.3835526  42.9832115  88.5379944
  85.2105484  43.3362579  87.6652679  86.3050766  42.7254448  88.5137405
  49.6304054  57.3746567  82.4096451  48.8131218  57.1931915  81.9455872
  50.2262154  57.6911240  81.7306061  84.0478516  22.9197674  10.6538181
  83.4709854  22.4471722  11.2539110  83.7568054  23.8299866  10.7088223
  73.2468567  19.4607792  29.9186878  73.9989548  19.0865593  29.4598351
  73.6126709  20.1837845  30.4282722  17.7742043   6.4446807  35.5825310
  16.8551197   6.3887296  35.8440323  18.2269230   5.8365130  36.1668320
   7.5111322  44.5052605  24.5642204   7.6696053  44.1806908  25.4506569
   6.6277289  44.2032776  24.3529472  78.2737808  31.8393803  23.9020996
  77.4705811  31.5742798  23.4539700  78.8869781  32.0410652  23.1953163
  34.6365051   9.7365208  35.1685944  34.9197578  10.5715246  35.5411148
  35.2921181   9.1062994  35.4673042  84.6936798   4.8864727  39.5605469
  84.4914780   4.1171231  40.0929413  85.5505371   4.6953058  39.1791115
  20.8706379  36.8000069  18.0953350  21.5127468  36.6932945  17.3935204
  21.0453777  37.6720276  18.4492836  50.6370049  12.8618813  60.3647537
  50.6927757  13.7496004  60.0110931  51.3907547  12.7895403  60.9502907
  47.0247002  36.3380508   9.0941067  47.8737526  36.4279251   9.5268459
  46.7884789  35.4188614   9.2186995  72.5803375  35.3864899  68.1147919
  73.1966400  35.6777802  67.4428177  71.9169006  36.0757637  68.1462860
  13.6604404   4.1774035  51.2920494  14.3004465   4.2000318  50.5806351
  14.1326075   4.5219827  52.0500450  18.6706066  36.0081444  74.7765503
  19.1261940  35.2877541  75.2121048  18.0608654  36.3394127  75.4358749
  47.4282913   5.0525174   5.8599453  47.5644760   5.2211900   6.7922730
  47.6474533   4.1273241   5.7494130  44.1843643  71.1813965  57.4963608
  43.8765678  71.0868988  56.5949402  44.7146912  71.9781952  57.4860840
  60.7324905  52.4147301  61.7632370  60.8157845  52.6464005  62.6882324
  60.0652466  51.7286072  61.7473145  66.7916183  37.2457581  15.8751612
  66.2142639  37.3637848  16.6294575  66.2408981  37.4461403  15.1183348
  14.9357882  23.5411377  65.9234924  14.0950985  23.7940025  66.3049774
  14.8296795  22.6160011  65.7019119  16.7804546  22.8139839  22.5958138
  16.8952160  23.5916519  22.0496502  16.6693382  22.0970478  21.9714050
  30.8135319  52.3496208  22.8208408  30.2660198  53.0877113  22.5531044
  31.2951298  52.6725159  23.5824394  39.1467743  52.1957359  20.7947750
  39.3520279  52.4477158  19.8944359  38.5304832  51.4687996  20.7054653
  74.3071823  39.1963768  32.4303970  73.4833374  38.9688110  32.8613510
  74.2384720  38.8041573  31.5599518  75.7024078  20.0442829  49.3186531
  75.4768677  19.4282494  48.6216125  75.4224319  19.6082859  50.1234818
  15.2956705  27.0726433  14.2589235  14.3986826  27.0458202  13.9258699
  15.1999226  27.2801590  15.1884403   4.0314994   0.7608494  82.2928772
   3.2428424   1.0277095  81.8206100   3.8359203   0.9484234  83.2109146
  12.4500256  20.3377876  79.7776718  12.6866951  20.5673580  78.8790512
  13.2631207  20.0121288  80.1637421  76.6843567  46.1083298  73.4926987
  77.4313583  46.6678734  73.2802582  76.4556351  45.6890068  72.6631851
  84.9378128  69.7974930  61.8102150  84.2345276  69.5701523  62.4184456
  85.1205063  70.7198715  61.9892960  61.4624596  51.6741791  83.9262238
  61.9103737  52.5015335  83.7498856  61.3954506  51.6367111  84.8803406
  68.9083557  66.1287079  57.3830910  69.1824493  65.4744568  58.0257912
  68.8025513  65.6355972  56.5695305  86.2378464  40.2926941  31.1460400
  85.3422775  40.2861252  30.8081875  86.3282242  41.1468811  31.5684490
  41.7964287  25.9590359  78.1171799  42.2393494  25.9141197  78.9645462
  42.4788666  26.2330112  77.5044327   5.6592069  29.5537739  39.3472099
   5.0924149  29.6261196  38.5792618   5.8714280  28.6219654  39.4013329
  31.9312859   0.9145195  27.7866058  31.4952660   1.7026165  27.4625378
  32.1892014   1.1344148  28.6817913  41.9089279  54.0982475   2.8420608
  40.9953880  54.2093849   3.1053512  42.3578796  54.8607101   3.2071986
  61.3249817  22.3266125  31.6378136  61.7685204  22.8267460  30.9527035
  61.9707031  21.6772881  31.9164753  52.0395775  15.3874121  59.2521782
  52.2262840  16.1649685  58.7260818  51.8179398  14.7120323  58.6111107
  10.0556250  68.2467804  68.0876236  10.6368647  68.8205719  68.5867767
  10.2337437  68.4630203  67.1723404  73.2863312  30.1618233  82.7052460
  73.4331512  29.3504696  83.1914444  72.9928436  30.7879143  83.3671417
  41.6939888  64.4648361  49.5206070  40.8077660  64.3159637  49.8502769
  41.9556389  63.6227264  49.1482849  22.0447693  46.6499786  80.5095978
  21.6162376  45.9417801  80.9902725  22.2895088  46.2569847  79.6718140
  34.0990601  54.0232773   6.8616447  33.4130592  53.9824371   6.1953344
  33.8639450  54.7779160   7.4015265  85.5949097  26.1426125  55.3294487
  85.6070251  26.7084332  54.5574837  84.6758652  25.8948212  55.4303894
  64.4223633  13.1723690  74.0870438  63.5012665  13.1212711  73.8317108
  64.6531372  14.0936794  73.9680481  29.3791676  11.0547295  79.9617615
  30.0896015  10.4332962  79.8025894  29.2403069  11.0224648  80.9082870
   0.7352620  17.8898525  76.8656235   1.4323030  17.5411320  76.3099594
   1.1953679  18.3004417  77.5977097  70.8608856  66.5671005  50.9786644
  71.5697479  65.9253616  50.9348259  71.2736435  67.3563232  51.3293724
  48.1595192  30.5880737  25.1128330  47.5072899  30.5372448  24.4140854
  47.7510681  30.1418610  25.8546524  80.5410156  43.7789574   9.4603176
  80.7794266  44.3953362  10.1527557  81.3314362  43.7014923   8.9260302
  47.3182335  63.7509232  33.9873619  48.0807457  63.4830360  34.5002365
  46.6962776  64.0793915  34.6366005  58.7023926  69.0410461  88.1150436
  58.3216171  68.7475510  88.9427567  58.2972717  68.4808121  87.4530411
  79.2591476  49.0377007  42.2842293  78.4193420  48.6588821  42.0245132
  79.9064636  48.5691185  41.7573090  74.3275452  44.5785522  78.6471252
  73.5064240  44.1811447  78.9370499  74.1153488  44.9786911  77.8038635
  34.0686646  22.0926476  11.9160633  33.7312241  21.9560070  12.8013287
  34.3512039  21.2237663  11.6306734   6.5158081  26.8087845  23.3963146
   7.3039875  27.2387142  23.7282257   6.8304610  25.9834614  23.0274429
   3.4223547  37.7911034  50.0777817   3.7609432  38.5552979  50.5442505
   3.0197210  38.1517029  49.2877922  59.8084221  53.3586922  71.4061356
  59.4084206  52.5238953  71.1625290  59.8173141  53.8659286  70.5944366
  18.7952232  52.1669350  23.7598228  18.4130974  52.0756149  22.8869705
  19.2608356  51.3432770  23.9048138  75.5984879  13.6121845  10.7576647
  76.5336456  13.5363007  10.5680637  75.2131577  12.8199263  10.3833895
  63.3245773   6.0770693  74.1374359  63.7635498   6.7087412  73.5677643
  63.3241348   5.2619209  73.6356735  32.3194008  55.9418068  49.9330139
  33.0838737  56.2775345  50.4010963  32.4799232  56.1700172  49.0173798
  46.8528824  60.7516747  78.7248306  47.2367935  60.7282600  79.6013565
  47.4995079  61.2149887  78.1924286  58.8019867  52.3149109  83.2533569
  59.5434074  52.2683830  83.8569870  58.3948364  51.4502831  83.3069992
  30.9468670  52.7923241  39.7269630  30.4306622  52.9995193  40.5059586
  31.1185513  53.6417618  39.3204956  61.9539108  51.8563309  17.2499943
  61.8759079  51.0256004  17.7190723  62.7457275  52.2591667  17.6063385
  10.5748396  24.6941795  30.7167225  10.2784576  24.5331020  29.8209305
  10.4317455  23.8630390  31.1694489  50.1524124  59.8183746  29.5561333
  50.1069145  59.7467995  28.6026993  49.3385315  59.4205589  29.8652916
  64.1628494  53.7625313  27.0065441  63.6309738  53.0664902  27.3923817
  63.5442848  54.4748726  26.8447208  36.1688042  57.6006279  88.5246506
  36.6059418  58.4057083  88.2471848  35.5794106  57.8776512  89.2261505
  71.0632553   9.0933466  65.2143478  71.5746307   9.8691339  65.4443054
  71.3938904   8.4078140  65.7948227  54.7539024  60.5938339   4.1196747
  53.8941345  60.1730995   4.1237383  54.9704208  60.7052231   5.0453873
   4.4077630  21.1030674  27.0820789   3.9186635  20.2846603  26.9970741
   4.4415936  21.2650566  28.0248642  48.6089134  25.6154861  82.3530960
  49.3188820  25.3797836  82.9502716  48.7801781  25.1027126  81.5631790
  14.0223494  38.2181320  71.8902969  14.6506147  37.9951363  72.5771637
  13.3912992  37.4984703  71.9000854  64.8652649  15.4394598   2.5020058
  63.9209023  15.5616322   2.4045920  65.0226746  15.5291214   3.4419067
  34.1986580  62.8458481  44.3386955  33.7588921  62.9279861  45.1849174
  35.1105156  62.6567268  44.5600014  51.5416260  51.2128181  74.8348541
  51.6157799  52.1544418  74.9900208  52.2603340  51.0115013  74.2355499
  63.8204727   6.3299832  19.4441624  63.7754097   5.8308573  18.6286430
  63.8256531   7.2454624  19.1646938  13.3161688  41.6202965  45.3762398
  13.1198435  40.6841888  45.4135857  12.6212950  41.9891853  44.8309860
  82.9125900  23.1066799  17.7591991  83.2722244  23.4475174  18.5781765
  82.1565170  22.5850201  18.0283775  49.5806694  67.6336670  61.1035004
  50.0256042  67.2385483  60.3537331  50.2595825  68.1466980  61.5418015
  59.6526794  70.1280365  58.1469727  59.7312622  69.3449326  58.6917725
  59.6724091  69.7978668  57.2487335  69.3919830  58.2105255  11.7448502
  69.6037827  58.9948921  11.2387495  68.8500900  57.6848755  11.1563978
  74.8652954  59.6831741  76.3019562  74.0651398  60.2054596  76.3584747
  74.6583176  58.8761292  76.7732010  81.9882355  39.7581177  60.3659973
  81.9354935  40.5320969  60.9267159  82.7849350  39.8887444  59.8517570
  16.0656929  58.0054283  72.1587601  17.0153522  57.9285126  72.0667725
  15.7325954  57.9442101  71.2634811  49.9800186  15.0604353   1.4397336
  49.6178932  15.5172234   2.1989713  49.5682907  14.1965761   1.4611253
  43.0322609  34.3254509  10.5316372  43.2430534  35.2134781  10.2431803
  43.8759308  33.8737640  10.5523949  67.3870087  69.9402008  75.4814529
  66.7842407  70.5326385  75.0321121  67.7960663  69.4359589  74.7781372
  86.7455978  64.7943344  68.3370285  86.8505630  64.0077515  67.8017654
  86.4795074  65.4726791  67.7163162  38.8690262  64.2713165  65.7718201
  38.1461754  64.8648300  65.5681992  39.2546043  64.6290283  66.5715714
  11.8715792  64.1780853  69.3912582  11.1109304  64.5704041  68.9626160
  12.2100325  64.8703461  69.9591064   9.8489609  23.7363262  68.5797501
  10.3702917  23.0668736  69.0227814  10.3498278  24.5440636  68.6934280
   6.2628565  50.9778557  36.5431480   6.2926698  50.1947174  35.9935646
   5.3548818  51.2755775  36.4868011   2.7478135   7.3863792  43.5191269
   3.2872097   6.8364062  44.0872917   3.3168938   7.5964360  42.7786827
  72.7081070  37.6957436  79.3373566  73.0823364  37.8993607  78.4801941
  72.7801819  36.7440453  79.4102173  83.2932205  28.2082825  10.8407364
  83.3464050  28.4660511  11.7610407  82.9597931  27.3112869  10.8621321
  43.0813866  62.5654755  26.7609520  43.5356369  61.9211655  27.3038635
  42.6222458  62.0432892  26.1031170  82.3329697  68.6603317  55.5529785
  81.6575775  68.2867203  54.9868584  81.9710999  69.5003052  55.8353233
  42.4642944  50.6914444  25.6303177  43.1822281  51.2708855  25.3752689
  42.8592758  50.0799866  26.2518787  30.0536957  71.3148956  12.7155094
  30.1316280  70.4311600  12.3561087  29.3987980  71.7413406  12.1628017
  16.5797539  45.3044968  74.3932648  15.6891289  45.5909805  74.1909103
  16.8163338  44.7270508  73.6674423  33.6107979  34.4802361  20.6474991
  34.3279839  34.0476494  21.1109104  33.9078331  34.5293007  19.7388783
  10.9143448  38.9737892  85.1413193  10.7921305  39.6076927  85.8480453
  11.8460550  39.0286255  84.9288559  72.3986511  43.8904495  76.3260422
  73.2709274  44.0599556  75.9701767  72.4489136  42.9979706  76.6683655
  85.4238968  13.6034422  58.5135689  86.1820450  13.3221998  58.0013695
  85.6682892  13.4239569  59.4214706  34.7227173  14.8462620  11.1590796
  35.3957062  15.1453829  11.7705088  34.0605316  14.4346466  11.7143412
  61.0495071  26.2871552  49.1539040  60.5660973  25.5281410  49.4801636
  60.4009399  26.7908821  48.6621208  43.3648262  33.5089226  27.2697697
  43.7015266  34.1600494  27.8853188  44.1356926  33.0052032  27.0084972
  53.2834549  65.3719711  75.5245285  54.2284393  65.4742432  75.6375656
  53.1630592  65.2881241  74.5786438  16.5611992  39.8954506  26.9558792
  16.4310532  39.9775009  26.0111237  17.1489162  40.6168938  27.1802406
  83.6621933   9.3364506  78.1617584  83.7726440  10.0485802  77.5317535
  82.9133759   9.6026449  78.6952820  77.3891678  39.2308693  86.6463394
  77.7975235  40.0472298  86.3581772  76.5035629  39.4847221  86.9061203
  21.6288681  44.7867088  20.4072018  21.0578289  45.4715462  20.7552547
  22.4707088  45.2220726  20.2730560  14.9135923  68.4634247  85.9948349
  14.0309029  68.2933273  85.6659622  14.7830563  69.0536118  86.7370453
  54.5358086  47.9012642  87.7193527  53.6758156  47.6912766  87.3552856
  54.8573570  48.6199532  87.1749954  60.4338036  27.8600464  18.7160587
  59.9792061  27.0179195  18.7359104  61.1094666  27.7834282  19.3897362
  10.5891190   3.5079575   7.9910917  10.7277575   4.2341366   7.3830824
   9.9718962   3.8510973   8.6372519  16.2251396  70.9579315  84.6320343
  15.5670547  71.4935532  84.1890106  15.7196150  70.2812347  85.0823135
  85.7579041  41.6039886   4.5153680  85.6207047  42.5439301   4.6333609
  86.6876297  41.4724579   4.7011962  10.3623343  48.6000977  84.0111694
  10.6585274  48.5259209  84.9183655   9.6919651  47.9226952  83.9219360
  41.7400436  36.7674408  14.2043495  42.2649574  37.5578842  14.3304529
  42.3817673  36.0587883  14.1570873  33.4280891  17.9184189  13.3510704
  33.2857437  18.0078030  14.2933979  33.3233452  16.9823360  13.1807480
   6.1561594  39.4073410  19.4147396   6.9060187  39.3797188  18.8204498
   6.5425520  39.3711014  20.2897358   3.8546679  65.9967880  25.4193439
   3.4760809  65.5429382  24.6663990   4.7779942  65.7445145  25.4116344
  83.7913666  13.6810589  22.5284634  83.9061127  13.3175182  21.6504517
  83.5408096  14.5927696  22.3793354  14.8502445  35.7079391  67.8777008
  14.2828274  36.4573822  68.0582657  15.1995754  35.4602623  68.7337723
   5.9896073  19.1860981  55.5073090   6.5051804  18.6189480  56.0806808
   5.7901530  19.9525299  56.0449219   9.0132790  64.7819138  49.2578125
   9.4050722  65.2661667  48.5310211   9.1567059  65.3398056  50.0222855
  21.4205475  53.5894279  35.5722733  21.0431442  52.9311485  34.9887772
  20.6672230  54.0852203  35.8930893  48.2206306  53.1524582  43.9550781
  48.7584724  53.2340393  43.1674843  47.6919136  52.3689728  43.8039551
  53.1504021  50.5449791  65.5482407  53.3052521  50.0975456  66.3801422
  52.3527145  51.0534096  65.6945953  71.2695923  14.5740891  44.6921158
  70.4800797  15.1126194  44.6383743  70.9701004  13.7469692  45.0694885
  72.4341431   9.9332523  85.6352005  72.9425812   9.4513712  86.2875137
  72.1307449  10.7146111  86.0974350  46.0881844  32.7782784  82.3284302
  45.3571892  32.4226379  82.8338013  45.9248314  33.7210655  82.3019562
   3.4528027   1.8406248  24.4234905   3.8189340   2.7135003  24.5658569
   2.9137697   1.6778245  25.1975517  41.4906044  60.8540955  42.7317810
  41.6022682  61.7493973  42.4121017  40.5428543  60.7432022  42.8073196
  44.6445618  64.1120834  66.1994934  45.3421822  63.7195091  66.7243195
  43.8413544  63.7084618  66.5284119   5.5574460  23.0561180   4.0822096
   5.3355026  23.9461288   4.3558006   6.3595653  22.8508949   4.5625429
  77.4276276  23.2438755  78.4965591  77.2162247  22.3762951  78.1518250
  78.1723022  23.5356445  77.9706650  73.0275726   4.9358315  66.0211563
  72.2571106   4.7816253  65.4744949  73.7692566   4.8269420  65.4259338
  58.8842773  50.7503395  19.1489525  59.7216301  50.8353767  19.6048489
  58.7093124  49.8092842  19.1429691  16.8793621  14.6577206  76.8096771
  17.0573597  14.6753845  75.8693390  17.6867828  14.3231745  77.2000351
  23.6076565  48.8134499  77.3254089  22.9126453  48.6089783  76.6997986
  23.1564674  49.2407990  78.0534439   5.1704912  41.4363670   8.9953299
   5.0345454  41.7081566   9.9030085   5.9107509  40.8308296   9.0349407
  62.5919113   2.7831397   7.2753057  63.0419960   3.5642025   6.9534397
  62.9465370   2.6473458   8.1539593  26.4417477  65.0390472  20.9208641
  25.8098221  64.9337082  21.6320648  26.5964489  65.9825821  20.8757172
   6.4318953  28.1258659  62.0428772   7.2282438  28.3284187  62.5338287
   6.4627275  28.7097416  61.2850075  85.6826096  17.4811325   0.1272122
  86.4069977  17.9573822  -0.2785992  85.4398041  18.0141602   0.8842843
  61.6690521  59.4802513  69.9287949  62.5451279  59.5015945  70.3138428
  61.0764809  59.5125580  70.6798248  85.0768127  45.3798599  71.1828461
  84.1486740  45.2795525  71.3943558  85.0836792  45.6991844  70.2805023
  54.2394142  64.3310928  83.4504700  54.5988007  64.3482285  84.3374710
  54.7548599  63.6647263  82.9960327  68.1236267  41.6768456   0.6246171
  68.5042419  40.8176041   0.4427581  67.4110565  41.4981461   1.2382394
  18.1156082   5.7868805  10.3968964  18.6879711   6.4724350  10.7413483
  17.3840847   6.2615337  10.0021725   2.7145488   3.2207961  11.8493013
   3.2864408   3.1794477  12.6157618   3.3044045   3.1077471  11.1039677
  48.0051842  70.3429489  58.3235130  47.9964714  69.4193268  58.5746727
  48.7742119  70.7038651  58.7646141  29.3730335  12.2243662   7.3866434
  28.5093250  12.2321224   6.9741149  29.4358501  11.3607512   7.7946329
  60.2490196   3.0458426  41.6348877  60.6743813   3.5710838  40.9570808
  60.4800911   3.4811532  42.4554634  63.7433815   4.7114010  34.7587585
  63.7764359   5.2021084  33.9375725  64.3440781   3.9784184  34.6241188
  86.1917191  47.1097908  62.9182014  86.8726120  47.0946007  62.2456017
  85.9869766  48.0380325  63.0308266  27.5230274  69.8731308  13.2583456
  27.4818611  69.6885223  12.3200197  26.8142357  70.4981155  13.4108076
  16.2646809  20.9420834  74.8291550  16.4075909  20.7502422  73.9023285
  15.6963863  21.7123260  74.8294601  81.0101318  70.0753708  74.0403290
  81.0464325  70.0196152  73.0854416  81.7921982  69.6101913  74.3373108
  78.1250610  57.6117592  69.2242355  77.9239120  56.8009605  69.6915436
  77.2705688  57.9590492  68.9683838  79.5302124  10.4357681  23.8636665
  80.2861862  10.8175020  24.3097820  79.1074448  11.1777487  23.4312725
  43.9160690  68.4599915  16.1724052  44.4848900  69.2175446  16.0353279
  43.7207451  68.4735641  17.1093655  12.2973747  43.7079277  47.9912529
  12.2083654  44.1216240  48.8498383  11.4000473  43.4983711  47.7321777
  21.0237274  21.8213215   4.7488146  21.3014450  21.6352139   5.6457362
  21.6300335  21.3218784   4.2018404  12.2911825   6.3620415  56.5855217
  11.8298492   7.1615992  56.3323212  12.9980478   6.6638298  57.1560440
  86.8874588  12.7028818  78.3769302  86.0175171  12.7959576  78.7652283
  87.3936615  13.4259520  78.7472839  70.9468002  62.3124275  21.7970200
  71.8102570  61.9029579  21.8518734  70.8628235  62.5723572  20.8796234
  76.1534271   8.9532480  45.8926010  76.5641785   9.1034279  45.0411530
  75.2644730   8.6671286  45.6825447  76.1160583  49.3964119  38.2901344
  77.0009918  49.7057076  38.0965958  75.8363037  48.9541016  37.4886818
  66.3352280  65.4628143  61.6897125  66.4730377  66.0821838  60.9730377
  65.5600967  65.7918015  62.1448746  15.2137928  28.2355824  26.4694633
  15.1771660  28.3204842  27.4221859  14.3640327  28.5565090  26.1675587
  18.8770351  49.1081696  69.3515472  19.6069431  49.4258003  69.8831329
  19.2846012  48.8117561  68.5377579  11.7071438   7.2291274  29.6859970
  11.2105217   6.9475784  28.9176674  12.6176453   7.0283055  29.4694557
  15.4940195  51.4755669   4.5103445  14.8846712  50.7499008   4.3749337
  16.2627888  51.0709610   4.9122410  85.2718658  27.5709381  15.8829679
  84.3739700  27.8695641  16.0272999  85.7939606  28.3732185  15.8825865
  67.7394867  30.5071678  61.3745575  66.8480148  30.4587269  61.0293617
  67.6924210  31.1654472  62.0678711  30.6195240  21.2191658  11.4250679
  30.3072147  20.3163033  11.4845209  30.2866840  21.5328541  10.5842056
  -0.0278089  53.9182129  72.1420975   0.0160041  53.0888062  72.6179123
   0.4455672  53.7519836  71.3269196  14.9137430   0.2984466  60.3627548
  14.5080910   1.1225791  60.6319809  15.6427212   0.5624614  59.8013992
  61.9950562  67.3614426  36.6052475  61.3357964  67.7633209  37.1710205
  62.0959244  67.9777145  35.8798103  13.1475315  17.4421368  16.4200096
  12.5650072  17.1899376  17.1364536  13.9787931  17.0142250  16.6252594
  48.5752563   7.5345683  86.6210556  49.1594696   7.6748524  87.3662033
  47.7057610   7.7582622  86.9529800  28.7964935  46.3838463  72.2157593
  28.3464890  46.9615479  72.8321915  29.3115768  45.7972145  72.7696457
  47.8068047  59.8123665  37.4248009  47.7051315  59.0364532  36.8735733
  46.9771614  59.8809052  37.8972664  29.3582821  66.4522552  83.6754227
  28.9896927  66.0809784  84.4769974  29.5091286  67.3738251  83.8856354
  16.4216194  12.5541248  67.5396652  17.1988163  12.0527201  67.2931061
  16.6084480  12.8654327  68.4253387  57.2415199  20.3437996  61.4978409
  56.9565620  21.2007427  61.8151436  57.1162491  19.7581329  62.2445221
  73.5703888  46.8333626  39.3934555  73.1570892  46.9462128  40.2494202
  73.9999619  47.6715050  39.2225342  22.9916515  13.5605955  67.2494659
  23.6213951  13.8595438  67.9054260  23.2460117  14.0173073  66.4476242
  77.0007935   2.0821581  83.3932495  77.1640701   2.4384394  82.5199585
  77.8701859   2.0021362  83.7856674  67.5664825  69.4275513  78.2892303
  67.8609238  68.6262665  78.7222137  68.0403214  69.4384003  77.4576111
  49.0741158  62.8718452  71.2984467  49.1992989  61.9361115  71.4564438
  48.6101837  62.9135971  70.4622345  13.6914072  46.9646339  53.6145859
  14.5860014  46.9765587  53.2743034  13.5428028  46.0529976  53.8657074
  21.9489117  28.5970688  20.8654251  22.3291874  27.8087883  20.4778252
  22.6637173  28.9842606  21.3707638  83.9811172  30.9732780   5.9556174
  83.1741180  30.6547985   6.3600392  83.8511429  30.8317394   5.0179057
  82.7544632  15.1714230   1.4424624  82.3821869  15.5680666   0.6548617
  83.3330307  14.4834223   1.1135954  54.9109077  45.9720116   0.8064917
  55.0905647  46.7785988   0.3234049  55.7703705  45.6758842   1.1062647
  32.4530411  11.2456617  82.5513763  32.1779480  11.8176899  81.8348999
  31.9865570  10.4245949  82.3949356  46.4207382  58.7186852  16.2713776
  45.5299339  58.5682564  16.5877247  46.6001434  59.6338577  16.4870338
  68.1272888   0.4101485  76.9477005  69.0781174   0.4857945  76.8674622
  67.9068985  -0.3776252  76.4506378  74.7515488  33.8325157   5.5368142
  75.1180115  33.8313141   6.4210844  75.5029297  33.6720428   4.9659371
  81.0857773  66.8533783  61.6966553  81.6990662  67.5662079  61.5178070
  81.5941162  66.0565033  61.5456200  25.9347515  11.9139814  31.5377674
  26.2797737  11.5753918  32.3639336  24.9845867  11.8396292  31.6266022
  34.0331917   7.6250782  41.0099487  33.8328362   6.7889061  40.5893440
  33.9168358   8.2755013  40.3173828   9.8689308  22.4360962  32.4786110
   9.3201675  21.6981678  32.2129974  10.7234344  22.0454731  32.6615601
  18.7005520  42.0151329  30.1714764  18.1036015  41.6575890  30.8287754
  19.2031059  41.2591553  29.8678761  78.0551147  31.9877224  65.6735382
  78.8383255  32.5308533  65.7619858  77.9171600  31.9183807  64.7288742
   8.7361975  32.3646545  22.9061909   7.8165207  32.1627388  22.7339764
   8.8628521  33.2384720  22.5365582  12.9125805  23.9703445  81.8457794
  13.1662226  23.2215519  82.3854141  13.2209435  24.7333126  82.3346786
  22.7651730  52.6637535  33.0309753  22.7121754  53.2990685  33.7449722
  22.3079300  51.8912735  33.3632927  34.2495537  13.6832724  86.2463913
  33.8958321  13.7269297  85.3580170  33.5084229  13.9042530  86.8104172
   8.2795076  62.0000420  54.2032013   8.5243492  61.5312767  53.4053612
   9.0648518  61.9693794  54.7495766  86.3128281  33.6869392   9.5996246
  86.8911133  33.9953804  10.2972479  86.4486694  34.3078117   8.8838768
  77.0036545  11.1383171  79.8546982  77.4545975  10.8465424  79.0623932
  76.3480148  11.7614012  79.5414429  16.9013996  13.4983845  18.1379986
  16.9193573  13.1895113  17.2321796  16.0547352  13.2047749  18.4744282
  33.9867935  62.4111061  64.1756287  34.3505020  61.7108078  63.6338387
  34.1182518  63.2062683  63.6592331  45.5692062   3.1643777  55.0366707
  46.3083763   3.0509894  54.4391785  44.8259773   3.3556542  54.4646111
  78.6056442  46.6746178  44.0786285  79.2578354  46.5292168  43.3932495
  77.7810287  46.3820190  43.6905174  22.6493435  39.8102798  31.0517826
  23.3216400  39.2774658  30.6270905  22.8178539  40.7001381  30.7419605
  32.8950577  64.9671326   9.2163639  32.3612976  65.4264374   8.5680046
  32.3662415  64.9795761  10.0141287  16.6809216  32.5847931  85.2266312
  17.2344360  31.8157368  85.0909576  17.0485821  33.0109329  86.0008774
  79.4862823  35.9445457   0.5891275  79.7467575  36.8510246   0.4257872
  79.4591599  35.8713303   1.5431379  79.9943314  10.0822229  49.5023117
  79.4503250   9.9399738  50.2769432  79.3926010   9.9798231  48.7649689
  12.4848948   5.6928577  34.3369293  11.9973335   6.3342152  33.8200378
  12.3283167   4.8590808  33.8936119  31.4048901   1.6166698  15.8867168
  31.9736691   2.1441803  15.3259535  31.9831829   1.2925006  16.5771675
  35.3379860  43.2975922  23.2815762  34.5071945  43.4090195  23.7437477
  35.1241455  42.7359734  22.5365334   0.4721847  59.4336739  51.3452377
   0.3668026  60.2317924  51.8630562   0.6242225  59.7453423  50.4530602
  71.6728363  12.8978510  30.8503399  71.2854156  12.3712339  30.1511879
  71.5583801  12.3690615  31.6399689  40.7788315  37.1998138  19.3097172
  40.3433723  36.4955597  19.7899551  40.1438484  37.9160652  19.3069077
  14.8315639  25.1251125  77.2258911  14.3953152  24.7391491  77.9854660
  15.4422417  25.7613354  77.5980835  11.3877487   1.7004977  82.7382431
  10.7177935   1.7131432  83.4217834  11.6942425   2.6058242  82.6864929
  30.6222916  38.6739159  65.9034805  30.2407475  38.7276154  66.7797012
  31.5035648  39.0338860  66.0035095   5.4420462  67.8144760  57.0526886
   6.1369119  68.3903580  56.7336998   5.7565703  67.5079727  57.9031944
   4.7111006   6.6824841  49.1947098   4.1651063   7.4557252  49.3369064
   4.0880194   5.9806204  49.0065918  15.1688337  25.5137177  56.3981819
  14.5775509  25.1580448  57.0615921  15.2668562  24.8063927  55.7607536
  75.5844879   3.4213822   9.5311241  74.6520691   3.6360240   9.5586061
  75.7511978   2.9714136  10.3593569  14.1201334  34.9362640  82.7076263
  14.6813345  35.3621483  83.3556290  14.3091030  34.0028305  82.8036575
   1.3430220  47.1358261  34.8930206   1.9265919  46.6537933  35.4789581
   1.7633828  47.0774345  34.0350494  57.6578903  22.3828392   7.1947541
  57.5138321  21.6087208   7.7390146  58.1584587  22.0592632   6.4457803
  21.5159721   2.4518886  44.6575241  21.8874683   2.1415236  43.8317528
  22.0100574   1.9864067  45.3323860  84.6872787  49.7417526   6.3259330
  84.9979782  49.4532471   5.4677567  84.3518219  48.9461441   6.7391000
  50.3729362  49.9126892  76.7726898  49.5189743  50.3220482  76.6333923
  50.9736023  50.4198685  76.2266235  49.2004318   5.8948812  12.3621874
  48.4207306   6.3329067  12.0209665  49.9118958   6.1988773  11.7985926
  59.6379662  56.5904007   4.7323785  59.9221420  57.4256935   4.3612204
  60.4401398  56.0723267   4.7983308  84.7075272  67.7728271  70.3384705
  84.5407181  68.5609512  70.8554382  85.0972900  68.0970078  69.5265427
  16.7632484   7.0932779  14.1087189  17.4703293   6.8420882  13.5144367
  16.3594761   6.2639885  14.3646059  56.5787621  20.2787075  11.0657797
  56.0628624  20.3230114  11.8708363  56.0633659  19.7228279  10.4813166
  49.7858086  23.9199123  23.4867001  50.0032730  24.7507038  23.0639400
  49.1700401  24.1578541  24.1798420  59.9877090  10.8164129  50.8789253
  59.3026352  10.6416197  50.2336693  59.5240631  10.8575993  51.7153282
  47.6697083  52.4324265  53.7398148  48.2765350  52.1620903  53.0506744
  47.9628716  51.9569817  54.5171432  79.9605865  36.4600410  56.2859993
  79.9454422  36.8066826  55.3938980  79.0629654  36.5682945  56.6002922
  81.2918472  70.3966751   9.5810213  82.0346451  70.9864044   9.7102718
  81.4256973  70.0309677   8.7066240  19.8889923   4.8252974  62.3152847
  19.2648220   4.2935891  61.8213921  20.6065388   4.2252831  62.5186081
  44.4491577  59.4257545  87.2620163  43.7630272  60.0547180  87.0387268
  44.2238274  58.6391220  86.7653656  56.9747505   9.3820686  52.7611504
  57.5973816   8.7729197  52.3642921  56.7850952   9.0048962  53.6202240
  55.4583549   2.3509362  43.7876244  56.2378120   1.9662503  44.1884918
  55.7453117   2.6185215  42.9145317  14.7139473   6.2914243  42.0402489
  14.4800205   6.4876175  41.1330452  13.9371271   5.8638992  42.4008102
  16.0349960   9.4570017  68.7831573  15.2355118   9.8681602  68.4545135
  16.7000999  10.1425152  68.7203979  76.7988281  20.6810837  71.4416351
  77.0795975  21.3920860  72.0177231  76.0990753  21.0637932  70.9123764
  72.5744019  41.3830757  76.9438858  72.3847885  40.8148842  76.1972733
  72.1072388  40.9805031  77.6759644  13.8945398  49.0738220   4.1880083
  14.0865231  48.4918709   3.4526815  13.2720079  48.5837288   4.7251244
   0.9620043  22.8853264  42.9102097   1.5407596  22.1814823  43.2032585
   0.1643856  22.7702446  43.4267311  64.6582108  67.0005722  27.3947029
  63.7422562  67.2517471  27.2756634  64.9209442  66.6437912  26.5462265
   7.3654952  45.2624969  62.1515503   7.8127623  44.9777679  61.3546104
   7.5743213  44.5877037  62.7975197  60.4068985  59.1599121  86.9785461
  59.4987068  58.9294014  87.1742096  60.3753662  60.0905571  86.7568817
   3.8246582  66.2292938  83.9666138   3.0841577  65.6277924  84.0446548
   3.7095294  66.6410599  83.1102142   0.2521507  45.9021263  14.8248425
   0.9861816  46.2790794  14.3397284   0.4013603  44.9573021  14.7890396
  43.1957741  38.0071144  18.0842628  42.2948685  37.9891434  18.4071808
  43.4782639  37.0929565  18.1115437   1.6718664  23.7475281  24.2537041
   1.5270336  22.9363461  24.7407761   1.9446241  24.3803596  24.9180508
  32.3356400  52.5242157  28.3940163  31.7320442  52.1235085  29.0195847
  32.6022758  51.8035851  27.8232021  58.4998627  39.1438141  53.9786949
  58.8176842  38.9982147  53.0876160  59.2320328  38.8867416  54.5391235
  10.0860033  55.1888809  19.7816849   9.1785269  54.8866692  19.8189430
  10.6054401  54.3851509  19.7608070  77.3231125  64.3717422  56.8761673
  77.9236679  64.5381470  57.6027107  76.5307083  64.8578415  57.1042824
  10.8890991  59.0884323  83.4521790  10.0777988  58.5965462  83.3254089
  11.4277840  58.5233040  84.0059662  48.7898254  10.8980017  75.9329529
  47.9435120  10.8236742  76.3739243  48.8240547  10.1389427  75.3508072
  21.6799469  34.2064438   5.5750723  22.6140079  34.0745583   5.4126868
  21.4424076  33.5094414   6.1866236  22.3579998  19.2162666   4.4770107
  21.9023380  18.6233387   5.0745387  22.1738968  18.8660469   3.6054122
  86.3092117  57.8220520  62.5032425  86.7306061  58.5818100  62.9050293
  86.7673416  57.7064400  61.6707840  22.7964134  19.5337048  26.0539780
  22.4894161  18.6828403  26.3670502  23.7490196  19.4899025  26.1367588
  20.3241329  57.8324928  13.9195585  20.8294868  58.5595360  14.2832336
  19.7584286  57.5507584  14.6384726  30.7875462   8.1287889  19.6100502
  31.4467335   7.6411948  19.1161327  31.0456924   8.0207224  20.5254269
   5.6195130  32.8513336  78.2964706   5.9655085  33.5472565  77.7377167
   6.2117991  32.1130104  78.1539612   2.6172812  46.2765617  13.4047747
   2.5683608  45.8958282  12.5279169   3.2614906  45.7378883  13.8641844
  24.8127670  67.7221680  76.2626495  24.1817894  67.0709763  76.5693207
  24.4865818  67.9849701  75.4019699  66.7666321  16.8162422  75.3908920
  66.5749512  17.6569538  75.8064575  67.3676529  16.3815250  75.9958878
   0.5470278  12.3477526  86.7164688  -0.2596690  11.8326244  86.7272186
   0.7694902  12.4637089  87.6402130  78.3487549  70.8694916  19.4436512
  78.2595825  70.4565887  20.3025970  78.6528320  71.7567444  19.6348267
  63.7748070  40.0843201  43.2345200  63.1147804  40.7177353  42.9527702
  63.4652519  39.2466049  42.8900757  30.8188572  18.8450336  67.4811325
  31.1797371  18.2281189  68.1178589  30.0032959  18.4379749  67.1889114
  81.8600922  46.3329659  13.8912687  82.5422287  46.0062103  14.4779139
  81.1648560  46.6337738  14.4764166  86.4109726  66.1774292  51.2904053
  86.3964081  65.6431580  52.0844955  87.0592270  65.7532501  50.7281990
  84.3559113   5.4893303  66.8695908  83.8136826   4.9387689  66.3047028
  84.5429306   4.9402890  67.6310425   2.5665383   4.6182294  29.2165585
   2.6918612   3.7189856  28.9134312   2.3465047   5.1093516  28.4249668
  21.4905853  25.2063618   7.7604790  21.1801682  24.5383453   8.3717279
  21.1125832  26.0232277   8.0861731  39.0114059   1.5765436  78.0851135
  39.2876129   2.4685872  78.2953568  38.8982353   1.1539267  78.9364777
  45.0515137  56.1252518  35.2788162  44.3175240  55.6994476  34.8358917
  45.2565918  55.5464058  36.0130539   5.4976068  33.6809464  17.8549824
   4.8609452  33.6876717  18.5697193   6.2530599  33.2136307  18.2115498
  75.2404633  30.4711590  31.1748524  74.7207336  30.7746601  30.4305439
  74.6157761  30.0016594  31.7276325  64.6746826  22.9173794  30.5139198
  64.9048233  22.6175060  31.3933201  65.2404709  22.4098434  29.9320889
  68.8314514  41.9207687  35.0780487  68.3827820  41.2892189  34.5158424
  68.2261200  42.6597710  35.1387596   4.2919426   0.9389215  56.4799614
   4.5598712   0.9438949  55.5610390   3.9936993   0.0431429  56.6376419
  36.1522865   3.4257987  12.6785841  35.2848854   3.3732891  12.2772236
  36.0611305   2.9569924  13.5081272  32.2072563  36.7014427   9.3746653
  31.9441929  35.9144745   8.8974724  31.4940548  36.8554878   9.9942179
  80.7898407   5.2970986  30.4702415  80.7244263   5.9540248  29.7771320
  81.6712952   5.4108753  30.8256645  12.4057331  45.3903770  15.9400616
  12.3047590  45.4313240  14.9890833  12.4005337  46.3053780  16.2210903
  13.0996389  69.1056747  41.9998741  12.8940248  70.0148087  41.7820969
  12.9894295  68.6311874  41.1758881  72.5495834  64.1921005  11.3033342
  71.8125305  63.6144409  11.1051025  72.1504974  64.9540253  11.7233820
  68.2398987  67.3039551   7.9590850  68.2672424  67.8079758   7.1457915
  68.9960251  67.6131363   8.4580021  25.3635254   3.8644118  80.3782272
  25.1748886   3.0707684  79.8774490  24.5146961   4.2972279  80.4698410
  55.6515274  45.3164635  41.9955711  55.3753700  45.3374596  42.9118271
  56.3568954  44.6698036  41.9727707  48.9819870  60.2362137  66.6581573
  48.3250923  60.6225166  67.2373734  49.6011391  60.9467278  66.4906616
  83.5164413  25.8642712  47.7312927  83.9454880  25.1458492  48.1960678
  83.6488266  26.6268234  48.2945137  33.0889549  62.4270477   8.4931669
  32.9064636  63.3088799   8.8176680  32.3426476  62.2195473   7.9308481
  56.9039345  51.1576843   3.1576662  56.5557632  51.9073143   3.6404293
  56.6397133  50.3964233   3.6742914  10.8690472  55.1219292  72.4814453
  10.4781055  55.8824005  72.0512390  11.4267702  54.7277603  71.8107681
  52.3886528   4.4374719  21.3346062  52.2950859   3.6307979  21.8413162
  53.2851486   4.7255936  21.5063877   2.4276950  66.0550385  53.4858589
   2.1772068  66.5717392  54.2516937   3.3521783  65.8507614  53.6266975
  57.0200729  19.6331062  67.3542328  57.5041656  20.4587860  67.3660660
  56.4358864  19.7087650  66.5997543  33.0275993  31.5123291  21.0479698
  33.7010956  31.4257698  21.7226086  33.2484169  32.3244019  20.5918903
  83.7652969  39.7221756   0.8711244  83.0230789  39.8242188   1.4668814
  83.3739777  39.4249687   0.0496821  22.2043610  10.9753675   7.5302763
  22.2813625  11.7688828   7.0005240  21.2914982  10.7064018   7.4274731
  36.3182640  31.1972752  15.9185085  35.6537628  31.8701591  15.7705326
  37.1450233  31.6232185  15.6920614  15.3704691  11.9565306  25.0815544
  15.6609697  12.8673592  25.0343075  16.1801968  11.4497423  25.1427002
  66.0440674  25.8541222  67.9584885  65.9701004  25.0997276  67.3739777
  66.5054245  25.5175838  68.7266846  83.7042007  64.0644531  55.7430992
  83.2416763  64.4250259  56.4995956  84.5264587  63.7306671  56.1018715
  74.3603439  18.8882885  40.5788651  74.5092850  17.9923172  40.2767296
  73.5470123  19.1537189  40.1496048   8.6502991  49.0071373  36.0058784
   8.4686174  48.2012520  36.4893761   9.3952875  49.3977280  36.4626770
  23.9285984  59.1473618  44.8525467  24.1473694  59.1866379  45.7835808
  23.5263844  58.2864685  44.7371292  76.3715668   3.5674412  25.4880905
  76.6381836   4.0629029  26.2624702  76.3741684   2.6543624  25.7753391
  11.2103529  37.9432297  31.1736050  11.8694572  37.8356705  30.4878597
  11.7168798  38.0303192  31.9811172  26.2166195  12.2139883  62.0367355
  26.9332409  11.5809641  61.9923820  25.9035816  12.1585217  62.9395981
  33.1878281  13.2350988  20.5099964  32.4821091  12.6277103  20.2880211
  32.8297615  13.7695513  21.2187843   9.1169748   5.7891078  30.8362331
   9.0444689   5.0717235  31.4657841   9.9001284   6.2678251  31.1077709
  77.4232025  44.6394920  38.8537903  78.2510757  44.2914734  38.5225182
  76.9355545  44.8862495  38.0679550  42.3886948  61.8207512  75.1960983
  43.1036072  62.2786827  74.7540207  42.7912445  61.4496307  75.9812469
   3.9831800   2.2731009  50.9329453   3.4386561   2.0124199  51.6757584
   4.3397527   3.1249979  51.1846581  64.6845245   2.6322787   9.3443718
  64.3428421   2.4709070  10.2238302  65.2009048   1.8523434   9.1411991
  18.0594883  35.8434067  29.8597584  18.3083935  36.7652588  29.7929516
  18.6230602  35.4925156  30.5493183   6.0963378  41.6795998  11.7879601
   5.7003641  41.2879829  12.5664673   6.9784560  41.3093643  11.7559061
  59.4644585  26.9313335  36.9392052  60.3459320  26.9568157  36.5669289
  59.5006981  26.2332039  37.5930634   0.6826361  15.8991966  14.7595005
   0.0285424  16.4607792  15.1754560   1.4709491  16.4404926  14.7171583
  40.6051750  67.5974121  18.2921619  41.1712837  66.8403854  18.4427166
  41.2067566  68.3026657  18.0535221  52.7498932  47.3570518  20.4049492
  51.8611641  47.6807175  20.5520267  52.7524223  46.4807053  20.7899780
  60.8472748  43.1847839  54.0950966  60.9336700  42.3321724  54.5214958
  60.0186920  43.5339127  54.4234123  23.9978371  40.7717819  19.1000309
  23.0947094  40.9955215  19.3248272  24.5039768  41.0096359  19.8768711
  20.0693722  15.5169630  53.0728493  20.4463177  14.6588459  52.8784790
  20.6658077  15.9004908  53.7158127  30.4861107  32.9189911  25.3272419
  29.7848568  32.6850090  25.9352951  30.2493973  33.7915993  25.0129890
   9.4103069  18.5268364  86.3522339   8.9799109  19.2584705  85.9098511
   8.7149324  18.1141186  86.8644409  77.6029968   3.8920286  71.7360535
  77.4834900   3.3659852  70.9453354  78.4830933   3.6705086  72.0403442
  85.5542831  53.3467560  14.1186981  85.8168259  52.4323463  14.0130396
  85.1824951  53.5887337  13.2704954  56.1152687  64.2866898  28.7793140
  55.3737946  64.2618179  28.1744747  56.5170174  63.4213753  28.7014294
  39.6569252  35.7515030  23.0987720  39.4893913  35.2904510  22.2768250
  40.5462036  36.0929718  23.0048981  83.9847488  69.7389603  40.5397606
  83.3729172  70.3405380  40.9640274  83.7126465  69.7283096  39.6221123
  77.1867905  11.8350325  61.4754257  76.7714081  12.5408354  61.9709396
  77.4762955  11.2123957  62.1423111  18.9565544   7.6940727  86.6258240
  19.8645096   7.4697723  86.8296280  18.6645012   6.9985666  86.0365829
  40.5135956  30.9975204  73.1345825  40.7307816  31.3844090  73.9827499
  39.7019424  31.4326687  72.8736267  15.7397127  42.2245636  85.5937881
  16.0449123  42.4855080  86.4626923  14.9225264  42.7078476  85.4718323
  69.1730957   7.5935802  41.1852188  69.9225235   7.2995543  40.6673965
  68.8365860   6.7960463  41.5937958  63.8018570  53.3957825  32.7659912
  64.5564041  53.9788780  32.8489685  63.2378998  53.6273766  33.5039253
  32.6596870  67.1291275  52.8503113  32.3036346  67.0579376  53.7359695
  32.5423698  68.0503540  52.6183434  66.3725891  10.2163248  25.5817528
  67.0147629  10.7769928  25.1464367  66.8564758   9.8125811  26.3022232
  46.5722198   3.6474249  29.3484631  46.1705284   2.7837515  29.2538834
  47.0114861   3.6155069  30.1983204   8.7916603  51.9192886  80.5502014
   9.4346266  52.4881668  80.9735184   9.2302790  51.0712280  80.4820938
  11.0991726  70.7729492  88.2975845  11.0520868  71.2384720  89.1326370
  10.2141266  70.4346161  88.1617432  19.6421928   2.1922829  78.0371170
  19.5059357   1.2679964  78.2453537  20.3948193   2.1961334  77.4457016
  53.4281807  22.2502308  77.1918640  53.6152992  22.6275387  76.3322983
  54.2308083  21.7859612  77.4295120  65.7782822  66.2021942  82.5969391
  65.7418594  65.2713013  82.8168106  65.0937347  66.3196869  81.9382782
  80.0992737  18.8785019  37.5322876  79.3115082  19.2155094  37.1055717
  80.7308502  18.7735615  36.8207169  13.4180822  41.1804810  67.0567322
  13.9650030  40.9446220  66.3074112  13.8851414  41.9031105  67.4761353
  77.4465179  50.8514633   9.8725338  78.0433426  51.2711487   9.2529402
  76.7159042  51.4644852   9.9540186  23.5424004  16.5653114  24.7799397
  24.1464329  16.1799278  25.4146500  22.7292442  16.6911449  25.2689953
  78.1352386  39.2533875  16.7436905  78.5459976  39.8319969  17.3861256
  78.8671646  38.8951416  16.2415123  14.4790001  16.1852283   7.9634008
  15.2160997  15.8681679   7.4414930  14.2294006  17.0109501   7.5485320
  67.7638168  63.5495796   8.7386923  68.4205399  63.1089211   8.1994658
  67.2935333  64.1167297   8.1276217   5.0510588  14.4565058  69.1194229
   5.0887146  14.8723993  68.2581177   5.5625019  15.0335455  69.6865921
  13.4312115  59.9290390  32.0648537  14.0075407  59.3732300  31.5403023
  13.0333157  59.3314476  32.6979370  74.6548309  66.5877304  31.6447811
  74.6592026  66.3999939  30.7061825  74.0742645  65.9249954  32.0188942
   6.8298182   3.4697289  82.6517410   6.1072335   3.4342253  83.2785187
   7.5570970   3.0379918  83.0999603  85.4782791  23.2103233  65.8373947
  85.3519058  24.1098728  65.5356140  85.9173737  22.7725163  65.1081772
  61.0993233  23.8817902  51.5022202  61.5757370  24.6606216  51.2146721
  61.5761948  23.1506882  51.1093903  33.9211044  44.5577393  12.0636616
  33.4066887  44.3856316  11.2749996  34.5079651  45.2721138  11.8156738
  61.4642601  45.3305130  68.5740356  61.8228912  44.5377731  68.9730072
  61.1292763  45.0410538  67.7253723  78.8806992  49.6521492  31.4039154
  79.5650940  49.7264748  30.7388458  78.7711792  48.7097092  31.5306072
  56.6609764  57.0251656   4.5691509  56.7928314  57.3056717   3.6635239
  57.4674873  56.5624199   4.7963967  37.3538399  11.2578049  42.1501350
  37.9347725  11.1349173  41.3993721  37.1669540  12.1965570  42.1572380
  21.4091263  61.9057121  48.2080994  21.7067604  61.7506371  47.3116646
  20.8255768  62.6613426  48.1393814  58.9289932  61.7601929  61.1998367
  58.4197578  62.1674309  60.4990730  59.7808304  61.5789490  60.8026505
  61.7325516  65.7222595   6.7349172  61.8199272  65.4303131   7.6423106
  60.8062668  65.9454727   6.6432714   8.2753105  10.4950924  12.1969748
   8.8378401  10.4751644  12.9711809   8.1479473   9.5740337  11.9696836
  54.8420639  70.9540100   4.5095119  55.2043304  71.7756042   4.1778803
  54.1787949  71.2238235   5.1447310  22.8159180  12.7630920  15.0120220
  22.1953373  13.4642029  14.8131371  23.4249840  13.1530771  15.6390638
  56.6301842  53.1646805  62.7701378  55.8660355  52.6671677  63.0613213
  57.3446388  52.8534431  63.3259468  26.5177059  19.4231911  68.9501801
  26.4772358  19.0552998  68.0674286  27.0811424  18.8203392  69.4353027
  81.9697189  15.9007082  85.2207489  81.2517776  16.4073086  84.8410797
  82.6585922  16.5454006  85.3821793  26.0330372  23.0887451  68.5150604
  26.3447323  22.7247887  69.3436813  26.8229027  23.4170837  68.0854797
  83.2158356  32.3617172  60.9258194  84.1403656  32.1153755  60.8975830
  82.7822113  31.7308350  60.3511963   7.9032383  18.3796215  38.5188446
   8.7904902  18.5120182  38.8527412   8.0283985  17.9801369  37.6580429
  34.6692734   3.8906009   8.0676012  35.0755692   3.0527229   8.2892179
  34.0156097   3.6716046   7.4035244  19.0026512  60.8841400  41.7722702
  19.6613579  61.5291328  42.0298004  18.2192574  61.1328735  42.2628403
  50.5193825  63.1003075   6.9574862  50.7856865  63.6783180   6.2424922
  50.7664070  63.5730400   7.7523036  17.5355053  24.1415081  69.6563187
  17.4430580  24.7897987  68.9581757  16.9425659  23.4331799  69.4054718
  69.8125534   2.9559035  28.6892548  69.4186325   2.4827013  27.9563560
  70.1653900   2.2695796  29.2555561  42.8759079  68.0160141  61.1492844
  42.5663414  68.7224045  61.7162170  42.4342690  68.1684265  60.3138428
  52.7490425  62.6626472  25.1633968  53.6355896  62.8920670  25.4420261
  52.8584175  61.8600197  24.6534367  25.5378857  39.8420372  88.4491959
  25.3114147  40.4127731  87.7148895  24.7650852  39.8600082  89.0137253
  14.5938177  57.9240723   2.6157935  15.2128134  57.9691734   3.3445191
  14.1081018  57.1126823   2.7639832  70.5088348  27.5859432  20.2925339
  69.5751724  27.7020798  20.1164246  70.5410233  27.1938934  21.1651688
  49.7997284  63.6474724  59.6084290  49.1863747  64.1030884  60.1850090
  49.5460205  62.7264748  59.6686897  65.3038177  44.0974045  76.9293518
  64.3886032  43.8181000  76.9047470  65.7976074  43.2883987  77.0631638
  77.6011963  70.5786591  69.2331314  78.2724075  69.9083481  69.1050797
  77.2921906  70.4402161  70.1284409  47.6009560   0.9701719  52.6223030
  46.9222870   0.5329187  53.1365509  48.2049675   0.2691126  52.3775253
   6.7978239  13.1183186  72.4162369   6.6021576  12.8849316  73.3236923
   6.3528361  13.9552402  72.2828903  80.6803055  21.0834656  76.6992188
  80.5594330  21.7827377  76.0568466  79.8920135  20.5463390  76.6197433
  18.6991539  44.4512939  16.8188820  18.5320606  45.0551758  17.5425129
  18.0441322  44.6804390  16.1595860  79.0222244  41.0558281  85.3544083
  79.7955399  41.5066109  85.0152664  79.0176239  40.2133331  84.9000778
  75.1360245  19.7240658  37.7161980  74.9337692  19.3619919  36.8535080
  74.3674774  20.2479668  37.9422455  38.0545158  17.4326248  80.6115875
  37.8794365  17.7233849  79.7165833  38.9397163  17.7464046  80.7965164
  60.2904015  26.7447968  16.0975513  60.8485527  27.3887539  15.6616411
  60.4497681  26.8827019  17.0312634  14.8523502  30.1472340  22.5665302
  15.5141420  29.6865845  23.0823460  14.5503683  30.8523026  23.1391716
  43.2869720   0.8906976  88.5082932  42.7887802   1.5452600  88.9977646
  44.1868896   0.9940510  88.8176498  79.1008377  70.5598907  33.5085373
  78.3893661  70.0897827  33.9433250  78.8314590  70.6068649  32.5912285
  82.8372879   1.5260544  28.5420837  83.1139297   0.6347296  28.3293839
  82.5184708   1.4693639  29.4428463  65.1776047  34.4468155  19.5184822
  64.3330002  34.0415192  19.3219986  65.7279663  34.2304649  18.7657986
  24.1872559  66.7184753  30.0759945  25.0538082  67.1159363  29.9902821
  24.0689240  66.2246704  29.2645855  28.3997784   5.6389542  51.3741264
  28.6761875   6.5014191  51.0643120  28.3793201   5.7221546  52.3274841
   8.4064178  40.6602249  10.9551601   8.5939837  40.0062714  10.2818165
   9.2681770  40.9598045  11.2447395  45.1416359  19.6127682  83.5909042
  44.2653923  19.4470863  83.2430801  45.6034813  18.7813873  83.4825592
  61.9492798  51.6224747  31.7008495  62.6549530  52.1443710  32.0827942
  62.3965492  50.8955994  31.2674503  35.3254204  16.5258217   4.3592420
  34.6035347  15.9439383   4.5969868  36.0419884  15.9355717   4.1260662
  85.3020096  61.1050529  55.9409485  86.2254028  60.8654861  56.0196152
  85.0738525  60.8859596  55.0375214  63.5001030  13.8301601  10.1887341
  63.4089508  13.8552160  11.1412544  62.9253845  14.5282316   9.8746834
  18.5579243   0.0368249   1.2022390  17.9701366  -0.5055555   1.7281291
  18.3370781   0.9356188   1.4464290  63.5754738  30.5013103  50.7788239
  62.9841957  29.9695225  51.3115730  63.0147705  30.8744984  50.0986977
  79.5714645   5.9765348  17.4240685  80.4959183   6.1792436  17.5673275
  79.1662064   6.0857506  18.2843418  82.6587372  27.2633095  26.4108467
  83.2866821  27.5988998  25.7710876  82.9807587  27.5837517  27.2533722
  85.4483032  49.7577286  81.4197998  85.1947784  50.6258316  81.7334213
  86.3621445  49.6634254  81.6885452  40.6521416  17.4397430  13.1021881
  41.3685379  17.9572697  13.4698505  40.9003448  17.3026714  12.1879454
   1.5385395  17.1038666  19.4771347   1.2313735  17.9887581  19.6742363
   1.7325976  16.7215233  20.3329296  53.0038795  19.8971825  81.1226273
  52.2524719  20.2675495  80.6595383  53.5605316  19.5414276  80.4299469
  14.2239361  54.4423447  65.4817276  14.7328930  54.1306801  66.2300949
  14.2593441  53.7226830  64.8515930  14.1491728  55.3864250   3.3430581
  14.9263086  55.0050163   2.9346242  13.7167330  54.6476860   3.7714207
  17.4095478  53.0585289  32.8900642  17.0315914  53.6738129  32.2617264
  17.5382423  52.2532082  32.3889313  83.5964661  20.5077667  76.6510620
  82.6847458  20.6992893  76.8708725  83.5510101  20.0696964  75.8012085
  77.8197937  62.5667953  64.2764053  78.7312927  62.3241158  64.1135559
  77.4198837  61.7722282  64.6299057  47.9145660  70.6287155  88.6172867
  48.7420158  71.1067047  88.5617523  48.1691628  69.7061844  88.5985947
  54.4956627  42.8888359  70.6258240  55.0855408  43.5903206  70.3497849
  54.6443214  42.1874504  69.9916382   7.6569118  60.8072014  30.7772293
   7.0296640  60.9570427  31.4845772   8.0023890  61.6767387  30.5752735
  79.4961700  30.5036430  52.9606590  80.2696991  30.9755630  52.6521568
  79.2659378  29.9217339  52.2363586  12.0252361  54.1424751  41.5202141
  12.8041487  53.9295540  42.0342102  12.3629160  54.3529053  40.6496239
  15.1541872   8.9659491  43.2464256  14.4603462   9.3210897  43.8020248
  14.8727589   8.0715065  43.0540657  61.4650116  46.3689423  59.2089767
  61.7946396  47.1588058  59.6375732  61.0190620  46.6900597  58.4252396
  80.2505722   4.4918957  44.1908379  80.2466660   5.2886896  44.7212524
  81.1369629   4.4471836  43.8322983  45.6387825  63.3270340  63.3674698
  46.5698967  63.1069107  63.3958702  45.4626236  63.7329140  64.2162704
  54.0803413  40.9803238  88.1766281  54.6245079  40.2889824  87.7995834
  54.4663315  41.7934227  87.8508759  37.8609657   1.9803691  25.0573387
  37.8854065   2.0324545  26.0128078  38.7679977   2.1223116  24.7864532
  38.0346870  57.0920677  29.0327244  37.9041519  56.1566200  29.1880608
  38.3980255  57.1396065  28.1484394  70.0439987  63.1219101  65.4075775
  69.7818069  62.4713364  66.0589142  70.6417542  63.7035942  65.8772202
  37.4228439  65.8689651  13.9767504  36.5219994  65.9864044  13.6752110
  37.9120483  65.6401672  13.1864586  34.4606018  48.1328888  85.7512512
  34.4706421  47.2804184  86.1864777  33.6215706  48.1570549  85.2911758
  24.7951641  58.9694901  38.9846153  25.6250153  58.5553246  39.2213631
  24.1610394  58.6056366  39.6024551  59.2740173  52.1622734  64.1282120
  59.4323921  53.0200348  64.5224228  59.4409828  51.5391693  64.8353882
  51.9007874  26.4412365  33.2636642  52.1894569  26.8076191  34.0995255
  52.3677826  26.9535046  32.6035652  55.3219261  17.2603493  24.5017300
  55.9713097  16.8272133  25.0557346  55.2158661  18.1284103  24.8908997
  19.9161415  45.4200516  76.4372482  19.5631008  44.9062881  75.7108612
  19.5014839  46.2780952  76.3475113  47.4838142  49.5629845  24.8867817
  48.3743248  49.3654594  25.1769562  47.0044708  48.7436752  25.0100307
   7.5578747  40.8108940  40.0749435   8.0327158  40.0528450  40.4157104
   8.2435379  41.4112816  39.7823181  57.9883690  33.1350060  22.1840420
  57.8294754  34.0648193  22.0214691  57.1312370  32.7842712  22.4260044
   0.1444243  60.6219139  83.6517105  -0.2563918  59.8466415  84.0448151
   0.1941750  61.2550430  84.3678818  68.5091858  19.4512043  57.8664627
  69.3189697  19.0112343  58.1251106  68.6273422  20.3573151  58.1514740
   0.7363428  48.0412521  70.0793076   0.1752875  48.0553436  70.8547058
   0.7983468  48.9582291  69.8118362  36.8178940  52.3593025  85.6177444
  36.8367882  51.4049911  85.5458984  35.9432564  52.6049194  85.3162231
  69.4288177  26.9192505  64.4426422  69.5450897  27.0957451  63.5090675
  68.5362396  26.5807610  64.5130615  85.7461243  33.3117599  50.1607933
  86.6568680  33.5830994  50.2754784  85.6316681  33.2518806  49.2123489
  61.7650986   7.0289001  57.6063194  62.2050362   6.2149463  57.3610344
  61.5265160   7.4330173  56.7720528  47.2312775   2.9866724  70.7439804
  47.2456131   2.4714658  71.5505753  46.3273087   2.9236989  70.4355850
  20.7475910  49.3297043  16.5869312  21.4890728  48.7253876  16.5517368
  21.1279469  50.1588821  16.8768044  35.4188194   6.3317504  54.5309219
  34.8765068   5.5475559  54.4462624  35.9929771   6.1468043  55.2741356
  34.2586861   2.6653295  26.8325405  34.5240211   2.0137539  27.4815998
  33.7704697   3.3181441  27.3342476  85.3697815  19.4744072   1.8125079
  85.2627335  19.7388153   2.7262146  85.2331467  20.2792301   1.3126869
  36.6443291  60.1100426  69.9215546  36.8821106  59.2824936  69.5033951
  36.7191811  59.9346161  70.8595581  71.2882385  38.7571297   5.1354585
  71.2364426  38.4822884   4.2200289  71.0253372  37.9829483   5.6332092
  44.9743347  15.6277370   1.0169923  44.5538139  15.7295551   0.1631609
  45.7818680  16.1370831   0.9485213  54.3521729  43.6463394  87.4845886
  53.6886482  43.7990074  88.1573868  53.8563690  43.5894279  86.6677780
  22.8966389  56.8869972  28.5635319  22.0803833  57.3802834  28.6449471
  22.8630238  56.2489700  29.2762871  47.0797958  37.6488380  54.6339684
  47.5984154  37.1501656  54.0026283  47.5729141  38.4591713  54.7621269
  67.4284363  70.4759293  68.3869247  66.7834091  71.1444397  68.1561508
  67.7908936  70.1929092  67.5474243  67.2279816  35.4420586  37.5922394
  67.2283936  34.5230026  37.3247185  67.7623672  35.4606552  38.3861656
  35.2926674  61.9720154  13.7492218  36.1914902  62.2920303  13.6721487
  35.0166397  61.8134689  12.8465023  84.9437561  55.4627457  53.9846611
  85.5642471  54.7340813  54.0009842  85.1917267  55.9712448  53.2125397
  21.6549225  67.6473541  69.6335297  21.8892136  67.4308090  68.7310562
  20.9321213  67.0554504  69.8419418   9.0296001  20.5956802  16.5913754
   8.7169495  20.7966118  15.7092714   9.8389931  21.0990925  16.6790695
  31.4091606  52.6297722   0.5038099  31.1348763  52.1607857  -0.2842568
  32.1533928  53.1605339   0.2198338  72.7281876  67.6902084  29.1519089
  73.5140839  67.1483002  29.0817509  72.0305786  67.1495361  28.7814312
  10.4732752  27.2729702  41.4259262  10.1417179  27.9103069  40.7933884
  10.2556095  26.4221497  41.0451889  65.9751511  62.2114067   4.3900752
  66.1150131  62.9203796   3.7623610  65.2625656  61.6951065   4.0133915
  67.5752029  38.4827957  30.2760544  68.1041641  37.8193283  30.7190437
  67.3328018  38.0787621  29.4428482  81.5369644  35.1976891  18.7642841
  81.8091431  34.5342026  18.1303024  80.6750870  35.4811554  18.4592304
  26.3277817  68.2935104  82.4587784  25.4555798  67.9726486  82.6880112
  26.8620358  67.5027542  82.3845901  15.6253252  71.0905457  19.5488701
  16.5171013  70.7846146  19.3834171  15.2060394  71.0830765  18.6884193
  41.1418076  62.2245407  39.3963280  41.8786354  62.1121368  39.9968948
  41.0197868  63.1723595  39.3416901  73.7202454  59.4656601  73.1921921
  73.7582550  60.4112053  73.3361893  74.3817291  59.1065483  73.7835541
  37.7966576  64.0426941  77.8742065  37.4250755  64.3861923  77.0616989
  37.5197639  63.1266747  77.8957443  75.3850632  16.3647099  20.9680519
  75.7411041  16.7751675  21.7560844  75.7218552  15.4690228  20.9914913
  28.3591919  57.4459915  23.0000725  27.6154213  57.0131989  22.5808716
  29.0780487  57.3445930  22.3762169  64.7962723  26.9094086  23.8771667
  65.4992218  27.4330196  24.2617741  64.1369553  27.5509624  23.6126976
  63.2125969  45.7612000  80.7118149  63.9548798  45.7517700  80.1075287
  63.4862671  45.1984634  81.4361496  26.7467175  62.3578873  16.3481598
  26.5658855  61.8521614  17.1404819  26.5013332  61.7742348  15.6302681
  83.3738937   0.6907523  33.9689827  83.7223282   1.1801089  33.2237587
  84.1248398   0.2032863  34.3076363  67.6647873  21.8689976  40.0633812
  67.7780609  22.0408363  39.1285706  67.1951828  21.0356522  40.0985413
  25.1930065  42.3166046  72.6335678  25.4995880  42.7779541  71.8529282
  25.4896774  41.4148521  72.5108337  40.5907974  60.6827011   8.2245855
  39.9585991  59.9884644   8.4105673  40.1546669  61.4861221   8.5083780
  38.7800789  63.9169197  11.7227612  39.7175369  63.8642998  11.5366688
  38.3955841  64.2665787  10.9189367  69.2551270  40.6218567  77.2200317
  68.4518356  40.7810211  77.7156296  69.0000381  39.9914246  76.5464478
  21.2820873  31.0866375  59.0307770  21.8584023  31.7764854  58.7018356
  20.6390896  30.9588985  58.3333054  75.0414734  26.3111649  19.5004063
  74.9639206  26.3125782  18.5463543  75.9779968  26.2004089  19.6644173
  61.5332108  16.3230896  13.3810844  60.9267921  16.7608929  12.7837429
  61.5358162  16.8724918  14.1649084  18.7912731  58.4274483  71.6354446
  18.5741405  59.2954788  71.2954330  19.5523071  58.5737686  72.1972733
  85.1747971  70.5853577   6.1948419  84.9164886  69.7095184   5.9077764
  84.3470688  71.0418243   6.3456025  24.8580608  69.0218506   0.1405241
  24.5388641  69.8116608  -0.2959941  24.1450634  68.7670975   0.7261593
  17.8143787  46.9660149  72.0325089  17.7711601  46.0149231  71.9335632
  18.5390491  47.2329636  71.4669800  77.4856186  70.1268234  50.0090408
  76.7183456  69.5749512  50.1605530  77.7051392  69.9842758  49.0883217
  55.6672668  55.5172539  42.4259186  55.4131241  54.6401024  42.1391335
  54.8460884  56.0084648  42.4506416  31.6441822  38.4155731  78.8632202
  31.1709633  38.3131599  78.0375061  31.2708759  37.7471237  79.4377213
   4.0498276  58.1520805  84.2011337   4.6088309  57.7079659  83.5635529
   4.6605301  58.6231918  84.7679901  21.3184147  49.8199234  27.3660526
  20.6547775  50.3406143  26.9136143  20.8865681  48.9846001  27.5448704
  48.3369827  39.6022110  76.2217636  47.8694115  40.4059715  76.4488831
  49.0635109  39.5638542  76.8437881  62.0024986  43.4047737  73.9371262
  61.1077309  43.0914536  74.0692444  62.0364532  43.6495781  73.0123825
   3.8183959  14.9554567  37.6186485   4.1230359  14.0644732  37.4466782
   2.8680246  14.9078436  37.5149231  76.2562943  34.1398087  69.0399170
  77.1549072  33.9485474  69.3085175  76.1984406  35.0950470  69.0600967
   6.6034870   7.8510785  62.6119728   7.0658565   8.6193504  62.2770042
   6.2277913   8.1411867  63.4431915  81.8403473  50.5613594  84.1533661
  81.1059570  51.1693954  84.2381744  82.6177902  51.1063385  84.2750702
  41.4920044  32.2003860  19.1486702  42.0441055  32.6409645  19.7946644
  40.6288528  32.1581535  19.5602703  45.3618584  71.5048141  35.0512466
  45.4696083  71.2428589  34.1369133  46.1864052  71.9361191  35.2755852
  64.4753189  29.0745735  11.5884047  65.1299133  28.4180317  11.8265123
  63.6401176  28.6098309  11.6402006  73.5141678  64.1367722  22.3967419
  73.8198547  64.2514725  21.4969463  72.9954147  64.9211578  22.5752831
  44.4962044  55.8149796  25.0074024  45.4377022  55.8666801  24.8426590
  44.3331680  54.8869705  25.1760616  66.9986801  11.2461748  42.0863762
  67.1220932  11.2385235  43.0355568  66.3016281  11.8857965  41.9406281
  22.5395756  61.8380585  78.8757782  23.1059895  61.3215828  78.3024902
  22.6398678  62.7376099  78.5643692  56.7834053  32.4235077  18.1059418
  56.4748383  31.9593601  18.8841362  56.0005150  32.5329590  17.5661869
  36.2422981  53.3561554  37.5013123  35.9206047  54.1721725  37.1180878
  35.6384430  52.6864090  37.1803246  47.7881699  58.9261780  33.8275757
  47.6719551  58.5043983  34.6789436  47.1995850  58.4498711  33.2419739
  44.6131859  37.8715210   9.8031979  45.0643692  38.5508652   9.3020401
  45.0307999  37.0548439   9.5295897  49.5811539   2.9497228  65.7006149
  48.7559242   3.1093078  65.2426147  50.2469521   2.9849315  65.0138016
  31.4350948  58.9272842  61.4520340  31.6777973  59.6232033  62.0627899
  30.4924259  58.8173065  61.5765724  25.2381897  11.7610769  80.7115402
  25.1947250  11.0659628  80.0549164  25.7367172  12.4598484  80.2879639
  46.8593483  65.4411774  50.5402870  47.0972061  65.7034149  51.4296036
  45.9087067  65.5474625  50.5054131  43.6802139  44.8332901  63.4460564
  43.4949188  44.3591957  64.2566910  43.0881500  44.4459229  62.8013573
  39.5559464  62.5825424   2.8751063  39.0986404  63.4072266   3.0394218
  39.6218300  62.1695290   3.7361002   3.8901887  45.9052010  82.3676834
   3.0830104  45.8088493  81.8623047   4.5561271  45.4617043  81.8422699
  36.7892227  70.5135193  17.5654621  36.9264336  70.5375977  18.5124702
  36.8704834  69.5880051  17.3351326  20.9294395  21.2200832  75.6322708
  21.0106182  21.7872162  74.8654633  20.1580544  21.5496540  76.0933380
   5.4169607  11.2281580  11.3907814   6.1997561  11.4745970  10.8981047
   4.9449706  10.6328974  10.8084402  15.0656214  63.2909164  17.8073978
  14.5879660  64.1076279  17.9525299  15.7730236  63.5303268  17.2086525
  38.8307610  69.7355499   7.5239077  38.8322029  70.4825439   8.1224260
  38.9416237  70.1237946   6.6560330  64.9479141  61.4715881  82.9459534
  64.4668503  62.1637039  83.3995819  65.8579712  61.5965118  83.2150574
  67.4503021  15.6212702  78.1643600  66.7580109  16.2537403  77.9721527
  67.2321014  15.2839832  79.0331802  70.7923050  39.0840530  50.4411697
  70.2127151  38.6853104  49.7920837  70.3722076  39.9162941  50.6582413
  41.8413124   0.6585734  72.7993393  42.3441391   0.8010748  73.6012726
  41.0750275   1.2244322  72.8933792  41.5049896  43.8433037  74.5341644
  41.8240929  42.9947777  74.8414307  41.9191322  44.4801254  75.1165466
   3.0673647  70.2676315  10.7148838   2.4269490  70.9706879  10.8235683
   3.9079094  70.7190781  10.6380005  31.6785145  56.0816345  53.9011383
  32.5181160  55.9418793  53.4632225  31.3337765  56.8833313  53.5078621
  57.4714622  66.3384857  35.9749298  57.3882904  65.6580429  36.6429977
  57.9386215  65.9126129  35.2561607  75.6344376  25.8315182  43.2923241
  74.9951172  25.7078323  42.5907555  76.3485794  26.3194923  42.8823013
  48.6137924  69.3443069  50.1722260  48.7247391  69.3625107  51.1228027
  47.7041016  69.6071396  50.0321884   7.6625156   0.8306200  56.3279343
   8.4586267   1.1265329  55.8864899   7.6417308   1.3297974  57.1444054
  37.8725128  34.3606987   3.0672982  38.5985985  33.8407288   2.7228181
  37.9639931  34.2994156   4.0181441   6.8851695  41.6369591  68.9525833
   6.6993322  40.8199577  69.4154129   7.1462893  42.2483139  69.6412735
   3.4565747  40.5674782  46.1585312   2.6863461  41.0896149  45.9341354
   3.5249145  39.9254951  45.4518394  27.5291100  30.4377766  17.0581341
  26.6039639  30.6783924  17.0087395  27.9893780  31.1707191  16.6492558
  42.4723701  36.3306656  74.2780380  41.5463676  36.5490379  74.3832092
  42.8592377  37.1117821  73.8825378  63.8597298   5.0756054  31.8028755
  64.2596817   4.3783178  31.2832031  62.9934006   5.1970453  31.4143429
  64.8272781  14.7325010  32.2203293  64.4961395  15.0127153  31.3670654
  65.7507248  14.9843330  32.2133446  37.5179863  14.9912357   3.9757292
  37.5518608  14.3374767   3.2773855  38.2705727  14.7876844   4.5310812
  72.2138596  22.5739613  60.6947403  71.4292679  22.0282059  60.7477074
  71.9224930  23.3697109  60.2496338  11.4923058  10.1979933  87.2035294
  11.7186575  10.7070694  86.4251785  12.3042650   9.7503891  87.4414520
  71.7795563  35.1159210  29.2657528  71.9725266  34.2323685  29.5793285
  72.3990250  35.2565651  28.5497131  81.4799805  36.2946472  71.9943848
  81.7194138  36.2329254  72.9190903  82.1327209  36.8842163  71.6167908
  74.5337601  24.0319729  67.6365051  73.9479752  23.3151875  67.8800354
  74.2446136  24.2908440  66.7615128  29.0684471  51.0494499  24.9833622
  28.4007435  50.4804497  24.6004257  29.4704227  51.4860802  24.2323627
  80.9983749   8.4020777  59.7506447  80.8354721   8.6798220  58.8492279
  81.8759537   8.0204830  59.7288017  51.4874077  23.7340584  86.7925034
  52.3689651  23.8334637  87.1519623  51.5590935  23.0005169  86.1817627
  10.2175732  39.4736099  22.2619286  10.3532257  39.7460022  23.1694698
  10.6470280  38.6203117  22.2012329  68.6275101  69.3126068  25.3255882
  67.8499603  69.0395660  25.8125134  68.3014755  69.5182495  24.4494343
  25.0823059   7.7585244  30.4831142  24.4254856   7.1112514  30.2264900
  25.7913723   7.2415838  30.8655128  18.4732227  55.0943375   2.1975310
  17.8148823  54.4264679   2.3892891  18.8728027  55.2872467   3.0456777
  22.9809971  55.8286591  22.1177940  22.4250298  55.0561371  22.2194920
  23.8330231  55.5571938  22.4592514  80.4067001  44.9684296  59.5082359
  81.3244400  44.7217636  59.3935661  79.9141159  44.2476921  59.1156387
   1.5398858  64.9203033  84.2038116   1.5507253  64.4946136  83.3465500
   0.6631485  64.7465820  84.5464249  76.5792084  14.5333900  80.9727325
  76.5082321  14.2294788  80.0678406  75.6765213  14.5521040  81.2906036
  81.7745819  70.4864044  22.0401192  82.7147751  70.3079605  22.0195198
  81.4041672  69.7613907  22.5434933  10.1925983  15.7909613  26.3622017
  10.5288343  15.4403353  27.1869678  10.9417429  16.2388191  25.9692192
  47.6068954  35.6539307  80.5580902  47.6634407  35.8383446  79.6205292
  48.0261765  34.7994804  80.6598434  12.3165321  18.1656227  32.1233902
  12.9738665  17.5317287  32.4103050  12.4938507  18.2890987  31.1908970
   2.4992931  34.8415108  68.1981430   1.7577262  34.2432175  68.2895432
   3.2704363  34.2768135  68.2499924   7.5453372  33.1420670  32.4538383
   8.2512207  33.6657715  32.8329048   7.8774352  32.2444801  32.4706917
  61.0970497  23.7544022  82.2050476  60.1603737  23.6324425  82.3599625
  61.1423874  24.2391624  81.3809204  38.8898888  56.7583809  15.8075609
  39.4296608  57.3038139  15.2353916  38.3205719  56.2741356  15.2095490
  83.6089096  13.5204115  88.0211182  83.8859863  12.6101713  88.1256332
  84.4255676  14.0195866  88.0099335  23.5431442  61.1279526  73.3944626
  24.0060596  60.7474632  74.1408997  23.2822227  60.3743973  72.8650208
  64.4679565  37.7785263  31.1551266  64.6285019  37.1705551  30.4334431
  63.9103241  38.4580574  30.7762928  79.9421539   3.3342149  35.5041084
  80.5595551   3.8512692  34.9867058  79.0840302   3.5503612  35.1392365
  44.5636749   4.5948758  44.1792717  44.1829681   5.4375439  44.4266663
  43.8094788   4.0191207  44.0530777   4.8294163  71.0470047  74.5618668
   4.7169127  70.1147842  74.3759995   5.1189833  71.0761795  75.4737473
  23.9334755  51.1096878  42.6859932  23.8930073  50.1827087  42.9211693
  23.5905495  51.5667992  43.4538994  53.5930023  61.6583366  30.1295738
  52.7062683  61.3326569  30.2840748  54.1457214  61.1309853  30.7063160
  57.4154510   9.0672178   1.1900574  58.2306252   9.0924120   1.6911446
  57.4587402   8.2440443   0.7034956  69.2053146  48.5014877  46.7181549
  69.7747803  49.2092628  46.4165077  69.4692154  47.7431602  46.1970711
  75.4315948  67.7595367  11.2798471  75.9469528  67.2629166  11.9154615
  75.4264603  68.6535492  11.6218281  82.4081192  70.4086151  57.9837570
  82.0111160  70.4172516  58.8547058  82.6026840  69.4860992  57.8183708
  24.7872162  50.9323006  12.5015888  25.2070961  50.2210541  12.0177927
  24.3039074  51.4219818  11.8361120  13.8460226  60.5609398  16.8764248
  14.1082735  61.4416466  17.1444016  14.4575672  60.3314209  16.1767349
  13.6663837  18.1415195  76.1095657  12.9777451  17.9068680  75.4875183
  14.4279966  18.3336372  75.5625153  68.3155441   5.2275724  42.2391815
  68.1485519   4.9886694  43.1509209  69.1252670   4.7685828  42.0157661
  32.6123352  41.9647026   5.0075803  33.5403862  42.0839691   4.8057747
  32.5643463  41.0978241   5.4106278  74.8069000  17.9371243  58.5858116
  74.7978821  17.0032883  58.3758125  74.0475998  18.2936459  58.1247330
  75.5636215  58.7119522  40.6441154  76.0748520  58.4650612  39.8734512
  74.8638000  59.2667580  40.2996254  49.9425087  31.8636723  52.4747887
  50.5472298  31.1425495  52.6494980  50.5092621  32.6064529  52.2667122
   8.9669952  63.6634331  24.2899246   8.9092255  64.5625153  23.9665794
   8.4773207  63.1468163  23.6499577  15.3045187   2.3400509  88.8995056
  15.7495832   2.5754819  89.7135849  15.9808464   1.9170579  88.3704605
   8.7799940  29.1652260  64.4023514   9.3030281  28.4671497  64.0081940
   9.4090786  29.6790333  64.9087982  77.4130402  31.6745052  54.1947556
  77.4713516  32.6080055  54.3982391  78.2969208  31.4343014  53.9167404
  46.0650940  45.8926048  15.8012047  46.2849197  46.4176102  15.0316095
  45.1081467  45.8743057  15.8132801  26.7795506  44.8970680  73.6080017
  26.6152554  45.5736694  72.9511566  25.9534664  44.4174690  73.6696396
   4.6865439  49.7036324   7.7845836   3.9118578  49.8119812   7.2329001
   5.0464845  48.8546181   7.5279737   8.2541018  46.6577225  38.0759010
   8.5868645  46.5426598  38.9659920   8.8696833  46.1735115  37.5256004
  39.9769669  46.2098198  87.6898575  40.8609886  46.5642052  87.7854767
  39.5575066  46.7825050  87.0477371  29.4740200  18.9670887  27.5224991
  29.7204895  19.4591370  26.7393169  28.5311604  18.8291378  27.4318390
  73.2716904  20.3584938  71.5506287  72.4737625  20.0965729  71.0913391
  73.7856598  20.8244686  70.8911285  61.1249657  62.3816910  81.4269714
  60.5849648  62.7273712  80.7162399  61.4152794  63.1576576  81.9063721
  45.6260185   5.1494875  80.7407379  46.0567627   4.4845114  81.2778549
  45.7633629   4.8557725  79.8401260  26.0556469   8.8268461  38.8805618
  26.4026279   9.6728086  39.1637344  26.4277344   8.6951218  38.0085335
  50.3982201  18.1616707  70.6771851  51.3154106  17.9203720  70.8066788
  50.2165909  17.9323101  69.7657928  79.8297577  27.1975460  35.2332077
  79.5713043  27.7511768  35.9700432  80.6220398  27.6104870  34.8897018
  56.7841492  54.8207512  49.9062843  56.3427277  54.2276192  50.5142097
  56.0762177  55.3310051  49.5129585  57.1100235  69.1165466  25.3473110
  57.3313980  68.2119827  25.1259785  57.0443993  69.1202774  26.3022518
  27.2723560  58.4265594  37.3864326  27.4029369  59.3223572  37.6974373
  26.8697491  58.5287170  36.5240517  33.9414520  56.2698288  62.1381226
  34.4655952  55.6667328  62.6651688  34.1284943  57.1336632  62.5056000
  76.3793030  41.7997513  12.1654215  76.7237625  41.6077805  13.0376186
  76.5232925  40.9944382  11.6684561  14.5654325  20.1563206   3.3603206
  14.8022289  20.1731720   4.2876153  13.6180668  20.0194931   3.3574927
  78.0562820  18.3691788  81.2036057  78.6679230  18.2982655  80.4707336
  77.9963684  17.4798374  81.5524826  76.2439423  58.4917908  37.5873032
  75.8685532  57.6317558  37.7761230  76.4858856  58.4496422  36.6621475
  72.8636246  52.4447746  61.6790619  72.2748413  52.5137291  62.4306068
  73.6259689  51.9730530  62.0145340  27.6698666  66.1589203   8.6036634
  26.8758011  65.7813110   8.9819498  27.7214375  65.7789841   7.7266111
  11.4687824  32.7216759  81.4264908  12.1120415  32.2277565  80.9180679
  10.6966267  32.7611046  80.8621750  69.4022446   8.3121157  51.4815941
  69.3056412   7.3602977  51.4508820  68.5818787   8.6239080  51.8637276
  81.4312439  65.9538879  70.5102615  80.5313187  65.6959076  70.7098007
  81.5437012  66.7941132  70.9547958   2.6693783  45.3425636  23.7897701
   2.0779426  45.7877274  23.1829224   3.1108167  46.0515518  24.2574234
  38.2803993  38.8953934  85.1956482  37.4941368  39.0828629  85.7083664
  38.1411018  38.0104485  84.8584595  10.3696766  49.5563469  19.7749958
  11.0437355  49.0783539  20.2581062  10.0142193  48.9139633  19.1608105
  60.1946487  70.3492279  35.9015961  60.7564774  70.6979675  35.2095222
  59.3215561  70.3216934  35.5102081  53.5628242  20.4710007   1.6251796
  54.1283417  19.7810516   1.9721494  53.6306839  20.3808956   0.6746493
  39.1300583  51.2887535  15.2683563  38.4090843  50.7091827  15.0223322
  39.3744316  51.7264709  14.4529314  86.6093369  19.9241486  32.3168793
  85.6625900  20.0614414  32.2846184  86.7694855  19.5635262  33.1889648
   7.4917560  31.7950706  18.8767452   7.8226314  31.3122025  19.6341038
   6.7176967  31.3048725  18.5996723  52.7079201  65.8517151  65.8009186
  52.6740532  66.5084076  66.4964981  52.6329346  65.0142288  66.2583313
  11.0427122  35.8990974  44.8694267  10.5428219  36.7152710  44.8551025
  11.9517698  36.1769562  44.9818611  55.4567337  62.5972519  78.7548676
  55.0726089  61.7221222  78.8080521  55.7942696  62.6567497  77.8611374
  43.2150116  64.3939362  23.2534351  43.3343506  64.5830994  24.1841354
  42.2960663  64.6005783  23.0829334  82.0824661  38.7514038  43.5625648
  81.7978210  38.2123184  44.3005295  83.0384674  38.7157021  43.5945625
  74.1755829  15.9204416  51.9829979  73.9472733  15.6877184  52.8829689
  75.1284485  16.0108395  51.9933624  49.7092781  20.8691578  74.6554489
  49.6767616  20.5887604  75.5700836  50.5029984  21.4008617  74.5960159
  28.9784164  15.0327129   8.6557112  29.2373066  14.4580431   7.9353199
  29.6020069  14.8362007   9.3548183  86.4158020   7.3975062  51.1370430
  87.0067825   8.0682068  51.4792900  85.5585251   7.6285400  51.4947243
  82.3927689  40.5297966  37.8411865  82.7312164  39.7348595  38.2532043
  81.6373215  40.7737503  38.3759880  57.9131622  21.8998260  54.7560730
  57.5380745  21.2055988  55.2979126  57.2106743  22.1371670  54.1507530
  37.3097992  57.8930397  59.6480904  37.5325127  57.1274223  59.1185074
  36.3535957  57.9302025  59.6251450   6.7148819  27.3755054  72.3441849
   6.6566858  27.6335068  71.4242477   6.8471513  26.4278164  72.3192444
  64.2888184  11.7298374   7.4587083  63.4178047  11.4063845   7.6888237
  64.7116928  11.8988495   8.3006344   7.1043067   2.7528758  69.2424545
   6.4140759   2.0900352  69.2211075   7.0371823   3.1405444  70.1150589
  14.8269663  66.3836899  19.6919785  14.7042322  66.9987335  20.4150887
  14.7720518  65.5197601  20.1004333  37.5824013  50.2328453  17.4061699
  38.3530159  50.6933556  17.0740318  37.9041634  49.7418861  18.1622524
  42.1338081  70.3301697  18.0239391  42.2028618  70.6974182  17.1426945
  42.8636780  70.7211380  18.5042152  -0.1375043  45.9169426  50.7045937
   0.0686052  45.9849205  51.6368637   0.4929236  45.2814102  50.3656387
  38.3849297  69.9920425  74.3834839  38.6822166  70.5779495  75.0795975
  37.9694939  69.2634583  74.8447952  46.2905617  46.8050156  13.2048502
  45.8038826  47.2974625  12.5438890  46.9673615  47.4115753  13.5052805
  69.5531006  44.2167244  46.8816528  69.1617203  43.8106804  47.6550751
  70.3054733  44.7017784  47.2206116  10.8523016  38.3991699  82.0615387
  10.9911528  37.4671288  81.8934555  11.6849031  38.7041702  82.4220657
  27.6462612  12.4587412  17.1367798  27.3445282  12.7466888  16.2752247
  27.4641056  11.5191669  17.1526508  42.9504967   1.6549959  78.4284592
  42.9186935   2.5242560  78.8279724  42.1870995   1.1999381  78.7839584
  25.4845028   0.5360558   7.7279887  24.7925587   1.1685596   7.5346355
  25.0175610  -0.2705773   7.9460282  39.5511246  62.0119247  48.6719742
  38.7571220  62.0609665  49.2043152  40.0360260  62.8075485  48.8912582
  44.6808319   2.4461946  74.7475357  44.2542381   2.9312661  75.4538956
  44.0215187   1.8156447  74.4578018  45.0065422  26.7189369  82.0694199
  45.4906616  25.8955956  82.1324387  44.7456779  26.9129066  82.9697266
  60.1666718  13.9448872  84.5116196  60.4826164  13.5472059  83.7002869
  59.9607201  13.2015076  85.0783691  85.1898041  25.0869312  52.1623573
  84.3537292  24.8933125  51.7384338  85.8333740  24.5833511  51.6638985
  62.8385658  51.6792107  88.8379517  63.7105904  51.7754936  88.4551544
  62.9065666  52.0965042  89.6967163  19.8126621  60.2560234   7.7337279
  19.1641502  60.9599419   7.7208252  19.7988262  59.9012909   6.8447933
  31.7135563  22.8857117  13.4505682  31.5647659  21.9675865  13.2244310
  31.9393902  23.3035126  12.6195002  57.9407425  52.2887802  60.1748657
  58.4260330  51.4825287  60.3500366  57.5415268  52.5153351  61.0148239
  77.3896484  69.3538818  47.1474304  77.5190659  70.0600281  46.5143013
  77.3365326  68.5607910  46.6141243  31.1407890   0.7761405  84.5547791
  30.4188519   0.5094887  83.9856262  31.7347355   0.0255013  84.5558777
  43.8026848   4.9375396   1.5996826  44.6512947   4.7824683   2.0144734
  43.9272842   5.7392554   1.0917860   5.0000424   5.5797400  87.5938416
   5.1529574   5.5372715  88.5377960   5.8669019   5.4623103  87.2052612
  20.2915916  22.5117340  88.0903702  20.4219513  23.4379959  88.2935410
  20.8820038  22.0504646  88.6860809  25.3971729  60.7781830  32.6532364
  24.7442913  60.6907806  33.3477440  26.0466232  60.1027107  32.8486519
  66.1870422  38.6481857  19.6667156  65.8229141  38.4042740  18.8157444
  66.0171967  39.5873756  19.7396030  81.4711838  59.3280830  82.6622696
  81.2271347  60.2487640  82.7572403  81.6409454  59.0318298  83.5565033
  20.4901333  60.9428596  71.9088821  19.6874580  61.1601639  71.4348297
  20.5743885  61.6333923  72.5663757  12.3792048  44.9192505  50.6131401
  11.9689178  45.7775116  50.7193718  11.8700075  44.3387032  51.1787491
   9.2810192   6.5659666   7.9011149   8.6007919   5.9426341   8.1560259
   9.4490061   7.0748048   8.6942701  57.4861832   1.9699409  31.6618538
  58.0050888   1.7457056  32.4343071  56.6009750   1.6737010  31.8737144
  79.9497147  69.6622314  62.4976578  79.2031555  70.1510086  62.8440323
  80.2046356  69.0770645  63.2109795   3.6835911  56.7440605  47.1064682
   3.2347362  57.3441811  46.5109711   3.6021128  57.1550827  47.9670830
  22.7317314  37.3128471  81.8649597  23.0300217  36.4330025  82.0954590
  21.7786732  37.2708473  81.9433594  42.1468849  48.0371361  72.7502365
  41.4177666  47.9582596  73.3653717  41.8448410  47.5863037  71.9617233
  50.4040108  28.9216824  22.2735538  50.7185173  28.0350819  22.4503498
  50.3747444  28.9794464  21.3185463  34.5790443  64.3840485   4.2143836
  34.0168610  63.8554268   4.7807245  35.4644775  64.0670929   4.3926706
  12.9688158  24.7318535  39.7721672  12.9438343  23.7774467  39.7034988
  12.5671110  24.9215794  40.6200294   9.7371225  44.8041267  14.1505451
   9.9242134  44.8470917  15.0882998  10.0049915  45.6590195  13.8134527
  14.3687553  30.5863419  37.2226715  15.3122931  30.4406643  37.1537666
  14.0527182  30.5399647  36.3203430  60.8583679  59.1241798   4.2073288
  61.0525017  59.1159744   3.2700584  61.6986313  59.3147392   4.6243091
  67.1258774  60.5350838   6.2748847  66.6412659  61.0993690   5.6724210
  67.9332504  61.0161133   6.4565263  80.9109344  10.6728945  42.5951309
  81.5601349   9.9743071  42.5129700  80.7225952  10.9321299  41.6931572
  18.1182117   7.6296000   1.3995241  18.6022625   7.6334105   2.2253041
  17.8740387   8.5446777   1.2608000  51.6475372  67.4284668  68.0069122
  51.2740326  68.2404251  67.6641998  51.0123940  67.1283875  68.6571274
  84.3261566   8.8883705  19.0933609  83.4862061   9.3431749  19.1555805
  84.9142151   9.5257702  18.6882267  10.3286018  13.8014584  61.3105202
  10.2407370  13.3413906  62.1452980  10.0477848  14.6967602  61.4997520
  21.8765087  27.2876549   4.0669355  21.8745251  26.3785496   4.3665295
  22.7879372  27.4599781   3.8306396  48.6300735  32.3080788  74.8010330
  49.4244537  32.8069267  74.9916611  48.0608101  32.9288177  74.3462143
  73.3980026  23.9476318  88.1302795  73.5912170  23.0643730  88.4445267
  73.4210510  23.8728199  87.1762848  55.4000359  52.2610092  58.8623466
  55.5973434  52.8727264  58.1530457  56.2551880  52.0337563  59.2274551
  60.1394997  55.6739044  56.1537590  59.8243637  55.5636253  57.0508423
  59.4839897  55.2325058  55.6136627  72.1647644  50.4952888  66.6763229
  71.6169510  50.8705254  67.3657684  72.9007874  50.1001778  67.1436539
  12.7271852  64.4935608  34.2503662  11.8717489  64.1191483  34.4607964
  13.0298929  63.9896851  33.4949150  69.3237000   0.9896662  69.8736343
  68.6877823   0.3791818  69.5006180  69.9263153   1.1772140  69.1539764
  21.0394001  57.3103676  46.9979210  20.9678326  56.4815292  47.4713554
  20.9715805  57.9810181  47.6775246  64.5190201  36.8450699  17.8263378
  64.3631058  36.2468529  18.5571327  63.9342918  36.5356102  17.1345558
  13.7715330   9.7893400  88.5654984  14.4248409  10.4420443  88.8172913
  14.2268324   9.2225742  87.9428406   8.9582453  55.7182884  62.8180428
   8.2574768  55.4049797  63.3898773   8.5353127  55.8462448  61.9689331
  25.0269680  65.3125992   4.1863160  25.2255383  65.3103714   3.2499416
  24.6712055  66.1853333   4.3536358  55.8226891  37.5850410  81.1376343
  55.8264046  36.6421127  81.3022537  56.6985931  37.7727356  80.8003006
  81.2255936  54.3086853  66.9127884  80.5511703  53.6364632  67.0102768
  80.7399750  55.1331367  66.8865585  60.7896347  20.4106865   7.0658140
  59.9187393  20.0802517   6.8453856  61.0480995  20.9308338   6.3049760
  68.2184677  47.3598480   8.6653719  68.6836472  46.9193306   9.3765554
  67.4547577  47.7540817   9.0867414  74.5144882  63.1650009  12.6047678
  75.0865021  63.7599106  12.1198845  73.6624527  63.2501755  12.1769543
  68.9508209  62.8356667   6.2898645  69.8487625  63.0367584   6.0262542
  68.4184189  63.5006332   5.8532858  46.5351448  23.8877773   2.3778546
  46.4400635  24.5073166   1.6544173  47.4249001  23.5469971   2.2859788
  18.3308506  27.8741779  73.8296432  18.0473385  27.2375202  73.1735001
  18.4201260  28.6944923  73.3445206  76.3422852  54.0744019  43.5412483
  76.1112518  54.7793846  42.9363861  77.1586761  54.3653526  43.9475632
  80.4262619  57.4388771   9.9401035  80.2569046  56.7085152   9.3450203
  79.6519012  57.4748116  10.5016289  38.4852715   9.4445477  86.2101517
  39.3329582   9.0070782  86.1308823  38.1557465   9.1747570  87.0673904
  83.5541534  19.2608871  74.0093002  84.4371948  19.3222065  73.6449966
  82.9882812  19.6242638  73.3281403  12.0411787  49.4098320   0.6658337
  11.8181057  48.8663177   1.4215205  11.1999712  49.7439651   0.3544554
  61.2984047  45.3737373  33.8346825  61.4033279  46.3111877  33.6721535
  62.0028000  45.1561890  34.4452019  80.6558914  53.5642014  72.9553070
  80.4634705  53.5094986  72.0192413  80.9444351  54.4671516  73.0881500
  30.0994911   6.6945949  55.0626793  30.3549442   7.1117253  54.2398911
  29.2834225   6.2386594  54.8568039  14.0463762  50.6201553  14.3141928
  14.5731792  51.2371483  13.8062267  14.3041239  50.7764664  15.2226887
   1.8855585  48.9005966  75.9116211   2.0397556  48.0235214  76.2626114
   2.7329595  49.3398399  75.9837723  42.1161919   2.2945285  81.5028076
  42.1071053   1.4793417  81.0011902  42.0664940   2.0140080  82.4166336
  16.5069408  57.0861168   0.1121488  15.9699068  57.8698311  -0.0045443
  17.2475700  57.3800659   0.6425204   9.8978205  10.0576401  54.0209045
   9.0408335   9.6368389  53.9521141  10.3392315   9.5878277  54.7284813
  21.7979279  64.0514297  82.8807144  22.3909168  63.3406754  82.6369324
  21.4871273  63.8149338  83.7546158   0.6994517   7.4935818  73.4055405
   1.3328726   7.1894884  74.0555649   1.1926785   8.1044416  72.8579941
  10.7863951  69.5393829   6.0711007  10.6193981  70.4489136   6.3182750
  11.3592358  69.6002426   5.3066521  86.9014969   2.7449450   2.6115067
  85.9685135   2.6764464   2.8141975  87.3217773   2.8804402   3.4607627
  12.8674936  70.9182129  62.6073685  12.0248499  70.4659653  62.5666962
  13.3057032  70.6821899  61.7897491  43.7400246  33.1249046  75.9032516
  44.3329048  33.8413010  75.6763153  42.9635887  33.5593071  76.2563400
  27.3003826  17.0427475   9.0862446  27.8609104  16.2702827   9.1593237
  27.7422409  17.5995140   8.4451485  60.7053680  44.2846375  87.5057831
  60.0109520  44.0560112  86.8879242  60.7031212  43.5708122  88.1435013
   7.5065470   0.8745881  44.1393051   7.3192215   1.3476385  43.3285255
   6.8248758   1.1614900  44.7469597  86.1009293  38.0978317  62.3061180
  85.4214325  37.4988747  61.9966507  85.6855621  38.5836945  63.0186043
  48.7323189  29.9544792  64.7185364  49.5122757  29.4123459  64.6002579
  48.9373741  30.7715397  64.2640076  59.8323250  23.9657688   2.2445161
  60.5027084  23.9439297   2.9274082  60.3001633  24.2479401   1.4585522
  81.1729050  63.4992180  25.4203358  80.6789398  64.2486877  25.7527752
  81.7768631  63.2770653  26.1289425  30.1091557  22.8109436  68.5819168
  29.4459839  23.4441967  68.3072739  30.6591206  23.2927742  69.1996613
  27.6970196  67.1461029  65.6627502  26.8913593  67.5836487  65.3876266
  27.9777069  67.6280899  66.4406509  20.5396233  67.2488251  56.2875443
  20.2899685  67.2384720  57.2115555  21.3154526  66.6899719  56.2427826
   9.9556990   1.3269476  43.3099861   9.0432854   1.0477419  43.3859978
  10.3411579   1.1202198  44.1614075  85.5949707  29.3047180  73.6657028
  85.8663101  29.8142204  72.9021454  85.8141937  29.8596706  74.4141693
  25.5275669   6.7871985  22.5438499  25.1998653   5.9388857  22.2451706
  24.7596512   7.3584948  22.5313625   6.5309191   6.7469707  25.9428215
   6.0328608   7.5604258  26.0231972   6.1759863   6.3251348  25.1603203
  38.0271454  25.6149330   6.9099164  37.6294518  26.1806870   6.2481050
  38.9636002  25.6376400   6.7130070   9.1136189  49.3884964  53.5169067
   9.7514400  48.6753464  53.5457268   8.4091635  49.1034508  54.0989075
  80.2310638  28.3148861  31.4220848  79.9242325  28.1416435  30.5320988
  80.8850632  27.6355553  31.5864487  40.5848694  16.6478901  19.6550655
  39.6849060  16.3230114  19.6276264  41.1166382  15.9044981  19.3707790
  61.3467827  50.6450729  51.4749069  61.4925957  50.3355446  50.5809479
  61.3105240  51.5982742  51.3954124   3.9772818  47.1192856  40.4809875
   3.9959373  47.5999947  39.6534615   3.7906525  46.2150307  40.2285423
  63.5025253  65.9609299  29.5840187  64.0936890  66.3724823  28.9536400
  63.0001030  65.3320847  29.0659847  76.3341293  29.4861965   1.6664349
  75.5160294  29.1162777   1.9982673  77.0095367  28.8737755   1.9579749
  12.7257576  19.3093147  14.5519514  12.7009678  18.6512280  15.2466011
  13.0463104  20.1012459  14.9836016  37.0162354  25.1271191  75.3850098
  37.0915298  26.0802536  75.3392105  37.3329048  24.8207378  74.5352554
  55.2657051  39.9387283  41.5118179  55.6469269  39.2262955  40.9986496
  55.3453674  40.7087135  40.9487839  29.9612980  26.7014160  10.8971148
  29.6397877  26.6959553  11.7986879  29.5682201  25.9252796  10.4979486
   2.6413565  49.0528030  68.2227097   2.0969315  48.5779190  68.8506546
   2.2757285  48.8245926  67.3680344  37.1338768  31.8463116  86.0197296
  36.4605598  31.7431087  86.6922073  36.8216515  32.5705795  85.4773407
   0.1218506  61.9825630   1.6971726   0.5122400  61.7177620   2.5300641
   0.6192217  61.5014458   1.0358263   7.3499999  14.3578787  38.1619644
   6.8000522  14.8663864  37.5659714   6.7885218  14.1856995  38.9178276
  40.3554649  14.9969034  14.6015177  39.6271820  15.3458128  15.1154203
  40.7568245  15.7679367  14.2007093  19.2797852  45.0014458  30.5941219
  18.3323746  45.1331062  30.6303291  19.3952751  44.0586472  30.7125473
  75.4010391  24.8082180   6.2081161  76.3283539  24.6411324   6.0396051
  75.3480911  25.7550220   6.3384676  35.7625046  57.9927711  14.2343464
  36.2422676  57.9106102  13.4101458  36.3450928  57.6092186  14.8898668
  73.6187668  40.8105621  16.0081005  74.0717697  41.1471863  15.2349882
  72.7078018  40.7161674  15.7297668  70.6369400   8.8852577  30.0495148
  70.9402618   8.4072561  30.8213577  70.8858109   8.3298512  29.3107204
  41.9975510  66.0537338  54.7443504  42.0180702  65.7275925  55.6440392
  42.9189453  66.1382446  54.4991493   9.6506472  54.2758179   3.3716080
   8.8570147  54.7966309   3.2486000  10.3651094  54.9098663   3.3103480
  18.5746059  17.4860497  74.6714325  18.6373386  18.1346474  75.3725815
  18.8078556  16.6574554  75.0900726  74.6638718  50.0580597   8.2131720
  75.6129913  50.0509071   8.0893011  74.3691635  50.8481331   7.7602305
  45.6450577  22.4600086   4.5626221  45.9618149  22.9433746   3.7995663
  44.9434242  21.9058552   4.2207789  78.4518127   0.9678246  52.9970131
  78.3311157   0.2403590  53.6073074  79.3428116   1.2752043  53.1639633
  25.7799702  48.8666039  22.7969894  25.7274227  48.1869507  22.1250210
  26.4677811  49.4562416  22.4880009  11.9628401  26.9310436  28.3046913
  12.1622581  27.7055588  28.8306103  12.7594500  26.4019451  28.3459072
  82.6498108  31.9221077  21.0687370  82.1464081  32.7328110  20.9940510
  82.3928223  31.4091549  20.3025322  39.8256645  28.8342724  11.1510677
  40.6690331  29.2421341  11.3475676  39.2044907  29.5624390  11.1389809
  24.4608822  55.0302773  38.1854362  24.4455662  54.1442223  38.5472450
  24.6133595  54.9039764  37.2489357  46.4927254  44.3028984  75.9134369
  46.3177299  43.3656273  75.8289871  46.8315887  44.5614624  75.0563812
  12.2552433  39.1123772  45.8448601  12.8119373  38.3371353  45.9178543
  11.4809265  38.8075333  45.3718491  13.9481392  22.8107357  21.3147068
  13.0474825  23.0814247  21.1364479  14.0255928  22.8492661  22.2679901
  43.6139793   3.7407541   4.4751573  43.1451607   4.5511031   4.6745973
  44.4553185   4.0312490   4.1230268  24.8571625  29.1354046  11.4997120
  25.7282925  29.2735348  11.8715801  24.2716637  29.6341457  12.0695190
   5.3444958   0.4815464  68.9607391   6.1975431   0.0729040  69.1075516
   4.8187490   0.2161683  69.7153244   7.1003656  41.7614059   5.4653335
   7.9790010  41.7486153   5.0857711   6.5286126  41.4686165   4.7556815
  85.9957657  38.3896141  84.2105713  86.0734634  37.4604416  84.4269791
  86.7019806  38.5495949  83.5845413   3.1161468  38.9860916   4.9170175
   3.5110846  38.7491455   5.7561321   3.8487856  39.3020172   4.3881860
   2.3207073  31.2810307  88.5294037   2.1673710  31.4283085  87.5961151
   2.7499232  30.4264069  88.5696716  82.5553741  51.5804863  52.7577744
  81.7460861  51.3408165  52.3062744  82.7884369  52.4347763  52.3943214
   0.3081091  32.9810257  88.8623505   0.9173248  32.2469177  88.7837906
  -0.1687124  32.8106956  89.6746674  81.5186615  37.4479675   7.7624974
  82.2991409  37.7803955   7.3191333  81.6851501  36.5115776   7.8705926
  84.7584686  40.2866745  63.6600342  84.6417007  41.2353134  63.7118683
  83.8747864  39.9434624  63.5276031  34.3853188  59.4385719   5.9743567
  33.6716499  58.9218445   5.6003251  34.9607430  59.6245842   5.2323880
  17.8202782  50.9047890  44.0317345  17.0243759  51.0938568  44.5287514
  18.2432766  50.1965637  44.5172424  30.1114330  49.0623817  26.6692028
  29.2060661  48.8704987  26.9135838  30.0492477  49.8346062  26.1070347
   7.8714252  37.3455658  35.0674934   7.5058885  38.1620827  34.7270279
   8.5197945  37.6246300  35.7140045  77.6251526  26.2758312  32.8756218
  77.6468201  27.1721687  32.5404434  78.2963257  26.2589550  33.5578766
  48.2264824  32.1210327  83.9176636  47.3510933  32.2963829  83.5724411
  48.0971146  31.4154377  84.5514069  36.7424660   9.6866388  33.0735359
  37.4946785  10.2540874  33.2420998  36.2567329   9.6815014  33.8983192
  63.4086838  55.8081093   2.9053686  62.9062576  55.1175194   3.3376706
  63.8631210  56.2560959   3.6188335  56.6055984  15.3406878  48.9428177
  56.2077675  16.2016945  49.0717812  57.0411835  15.1512098  49.7738380
  77.2900238  42.7497559   1.9397601  77.1936493  42.5708046   1.0043881
  78.1752472  43.1035576   2.0259671  30.5654354  27.0322704  14.1203289
  30.2526398  26.1442852  13.9474897  31.3091393  27.1437473  13.5281210
  82.9766388  17.9456711   2.4271646  83.3162003  17.0513096   2.3948224
  83.2321014  18.3293400   1.5882556  60.5362968  67.2033386   1.8204683
  61.1835060  67.3689880   2.5059674  59.9095497  66.6021957   2.2230308
  63.6425171  22.3066063  35.0111008  63.8310318  22.8452435  34.2426186
  63.9115562  21.4239120  34.7567406  59.9700394  50.0407677   0.6499979
  60.5563927  50.5290680   1.2279109  60.5272560  49.7623024  -0.0767745
  84.7054062  11.6066685  28.6692028  83.9474869  11.6621008  29.2511940
  85.0309219  12.5051003  28.6136284  28.4942207  57.8161354  56.8845329
  27.5929451  58.0549812  57.1010666  29.0294952  58.3212585  57.4965515
  30.1277695  60.6132278  36.9748497  30.6188240  59.9088707  36.5517921
  30.3846836  60.5647697  37.8956528  61.0439453   3.0064564  75.6420517
  61.5993500   3.6018009  76.1453629  60.2368011   2.9427102  76.1526260
  41.7517853   2.4549079  51.4094315  41.2168312   2.6621854  52.1756516
  41.1910858   2.6637049  50.6622696   7.4858847  39.0508156  22.0109024
   8.4204350  39.2028084  22.1514244   7.3024163  38.2368507  22.4799747
  73.8423309  14.7411680  82.8289490  73.9270935  15.6788197  82.6561584
  73.5074387  14.3760138  82.0099564   3.8178351  12.1279917  58.2388268
   3.7210267  12.7198915  58.9848289   4.3874264  12.5997114  57.6311455
  70.4226532  19.5763016  29.4053268  70.3263702  19.6248398  28.4542179
  71.3678970  19.6096230  29.5523872  83.0446472  16.5219879  69.4461670
  83.0869827  15.5800886  69.2810440  83.9598923  16.7983456  69.4928436
  14.0448456  63.8685684  43.3328323  14.2058878  64.7093201  42.9045448
  14.5688505  63.2415619  42.8343163   4.8486443  59.0846024  11.9655972
   5.1796937  59.9369888  12.2485666   5.6348186  58.5776978  11.7625866
   5.1206083  11.1858044  18.8165054   4.2240314  10.8817024  18.6754246
   5.0690289  12.1366959  18.7196655  70.7496033  27.9019699  11.8141594
  71.3418655  28.5590286  12.1798563  70.1172867  28.4073486  11.3032827
  43.5487404  63.8921204  84.2319794  42.6527824  63.9177704  84.5678940
  43.6230659  63.0345993  83.8132095  19.4066257   8.6528482   7.2542262
  18.5239086   8.2972469   7.1513257  19.8423939   8.0434427   7.8500147
   8.4093924  46.0422096   6.7538218   7.7625027  45.4894104   6.3154387
   9.2515945  45.7433434   6.4108863  83.0769501  25.4774666  64.0657959
  83.0307770  24.5235634  64.0012207  82.2317657  25.7337341  64.4348755
  10.5160170  28.1547318   5.1059322  11.0503645  28.6301384   4.4697776
  10.0313854  27.5165901   4.5823503  46.0344391  65.1038055  61.4685707
  46.9797974  65.1095505  61.3185654  45.9143639  64.5203857  62.2178574
  54.3173332  61.5913467  51.3820686  54.6461792  61.7225418  50.4927559
  53.5013390  61.1045341  51.2663116  56.3056984  32.9417381  55.1261826
  56.6712608  32.2829170  54.5358009  55.3580666  32.8256836  55.0572433
  74.0589066  33.9364357  15.7797775  73.7366257  34.4283943  15.0245657
  73.3549576  34.0001297  16.4252434  44.8578835  32.5784569  13.8611012
  44.0359993  32.5939903  14.3515053  44.9099045  33.4429321  13.4534111
  56.3856049  58.0432358  73.3808212  56.1825180  57.9353027  74.3099823
  55.5307999  58.1003189  72.9538803  13.0435324  18.5528259   6.8106565
  13.1659136  19.4142056   6.4115562  12.1278543  18.5459328   7.0894351
  52.7658691  42.4860344  30.1721973  52.1924515  42.5016098  29.4059219
  52.2125206  42.1530266  30.8786983  27.6016006  15.5348186  17.5585804
  27.2560596  14.6435070  17.6075344  27.4136848  15.9120874  18.4179935
  17.0017471  56.7020226  21.7504578  17.6178970  56.4701767  21.0555935
  16.5511284  55.8824883  21.9542656  80.7117615  36.8310547  76.6826096
  79.9372787  36.5088005  77.1436462  81.4201050  36.7546692  77.3218689
   6.8536863  27.2569637   8.1587038   7.3792772  27.6692257   7.4731193
   7.3706288  26.4999199   8.4341764  67.9536667  42.9689331  39.3083344
  67.4821243  43.7889137  39.4550095  67.4833374  42.5475426  38.5889931
   3.7307558  48.8072777   0.6837524   3.5418596  49.6514511   0.2739693
   2.9354391  48.2920914   0.5485259  23.6332970  71.2911606  79.2730713
  23.6902676  72.2394485  79.1559143  22.7245407  71.0778198  79.0612106
  18.3686028  39.0278740  80.7980423  18.6498470  39.8755798  81.1423187
  18.0933437  39.2133751  79.9002380  48.4170799   1.1084945  15.8256569
  49.1973076   1.6593343  15.7619743  48.1373482   0.9836717  14.9187946
  71.4353333  32.3069267   9.9420347  70.8432922  32.3347473   9.1904030
  71.7071228  33.2162323  10.0666218  37.2187424  36.4110222   7.8313313
  36.3896790  36.6133652   8.2648563  37.7100372  35.9047890   8.4783173
  84.3727570  50.9340935   8.9024172  84.1356659  51.8508606   8.7625599
  84.7512360  50.6547241   8.0687866  39.5740814   6.8199048  82.6527252
  38.7651711   7.3079424  82.8067017  40.1935349   7.1758895  83.2897339
  55.6761169   9.0822916  46.5670204  55.6364441   9.9691715  46.2091064
  54.8852158   9.0036774  47.1004333  13.7918234  60.4661331   8.7777081
  13.3957453  59.7424088   9.2630663  14.3025875  60.9423943   9.4323282
  72.1390686  14.3478870   5.4541750  71.7362747  14.2895966   6.3205414
  71.9700470  15.2466211   5.1714382  85.8665619   5.4430847   2.0130651
  86.4707336   5.0831079   1.3637359  86.1083679   5.0095344   2.8314767
  84.6270676   9.4357233  11.8525620  84.8109207   8.7451830  12.4894180
  84.9902802  10.2284899  12.2473145  35.7976570  11.7311687  73.1631775
  36.6996002  12.0382223  73.2550964  35.8522186  10.7847033  73.2953033
  78.7029495  68.7543030  55.5762253  79.1909943  69.5505219  55.3662720
  78.6978226  68.2542801  54.7600212  83.1497803   0.5591857  14.9108658
  82.8169327   1.3163624  15.3926630  82.4895859   0.3945816  14.2376108
  43.2356949   4.5343370  87.4006424  42.7965202   4.0153327  88.0744324
  44.1446571   4.2350883  87.4223404  43.4957581  20.8407116   3.4670169
  42.6060066  20.8556252   3.1143880  43.5119553  20.0771275   4.0439997
  23.8575420  43.3979416   6.1608624  23.9095535  43.3193588   7.1134124
  23.4260826  42.5919418   5.8772478   6.2756600   4.6453147  43.4587631
   6.1880469   3.9481401  42.8087616   6.5780487   4.1988215  44.2496109
  63.4468155   5.5686092  10.2955484  62.4916382   5.5855818  10.3553762
  63.6832542   6.4443479   9.9899149   2.9856431  64.1118317  67.6388779
   3.9035177  64.3800354  67.5963974   2.7472587  64.2187195  68.5597382
  11.0182962  69.9604111  83.9863129  11.5970945  69.2321014  84.2116852
  11.2297850  70.6409988  84.6253052  38.9679413  16.3293304  71.6248245
  38.2200165  15.7342396  71.5728302  39.4041786  16.2403488  70.7774734
   3.1393526  67.0656509  80.7262344   3.6409585  66.7601776  79.9703827
   2.6373591  67.8104858  80.3953934  38.1160164  53.9054909  18.2750053
  37.4615669  53.3321495  17.8759995  37.7886047  54.0627670  19.1606102
  74.5538864  38.3141251   5.1286883  75.1977310  38.9882431   5.3460941
  74.0768661  38.6712227   4.3795800  65.9022598  24.0181026  87.5646591
  65.5505142  23.6292419  88.3654633  65.9495010  24.9551697  87.7541504
  54.9903488  30.8256035   5.1173496  54.0355225  30.8094730   5.1827497
  55.2019005  31.7392731   4.9258132  26.4060898  33.3690224  84.1604538
  26.1572113  33.6326256  85.0463486  27.0938644  32.7158699  84.2892303
  46.0195122  67.6605682  21.7782364  45.8400688  66.9204407  21.1983738
  45.1542854  67.9942245  22.0154858  11.9891615  -0.0079651  41.9101944
  11.3065805   0.3845148  42.4545059  11.6480608   0.0522148  41.0178604
   6.4567604  59.4873543  85.2917099   7.1184664  59.7982635  85.9095383
   6.1565199  60.2783966  84.8441238  52.7641830  51.7738686  49.5685158
  53.5250816  51.8571815  48.9937744  52.9125137  50.9572945  50.0454140
  68.9804230  36.9451065  52.7618027  69.7706146  37.3417091  53.1285896
  69.1679764  36.8576698  51.8272362  71.9933853  26.6449490   9.9535913
  71.7879944  26.9405956  10.8405180  71.5143356  25.8217163   9.8585768
  67.3199539  36.8245430  11.1044931  67.1761322  36.6724739  12.0385275
  66.4403610  36.9193840  10.7390423   4.8121729   0.4955064  35.7313004
   4.4809518  -0.0711116  36.4280548   4.7102389   1.3828714  36.0754280
  40.5282555  43.3298416  79.9586716  40.4080429  43.5464935  79.0340958
  39.6762543  43.5046577  80.3583755  70.9995651  63.0567436  75.5649948
  70.2931595  63.4707413  75.0691757  71.6918564  62.9118195  74.9200516
  37.7413483  14.8841915  75.5944443  38.3171463  14.8987789  76.3589554
  37.0467682  14.2689104  75.8294373   9.9280767  10.0802174  42.6809654
   9.1929808   9.8703556  42.1049232  10.0342264   9.3014021  43.2272339
  75.6916656  47.3493958   5.6578546  75.2528152  46.5009575   5.5962157
  75.2169189  47.9097633   5.0439863  14.3446865  16.4250946  86.2104950
  14.2881832  17.3152523  86.5578537  15.2832966  16.2405338  86.1761246
   4.8067951  68.2158432  74.0685349   5.4244022  67.5205231  74.2950745
   4.2177892  67.8142776  73.4297562  66.7606430  44.8366776  58.5350800
  66.0443039  45.0769463  57.9473953  67.2944870  45.6286697  58.5982742
  82.5495529  43.4581070  71.1167603  82.6787262  42.9941826  71.9439926
  81.7031403  43.8939056  71.2161789  38.2278519   3.2013135  81.5567856
  38.3215446   2.4083183  82.0846252  37.9726067   3.8777876  82.1840591
  72.1500473  52.0846825  29.2991619  71.6094894  52.8525734  29.4845562
  72.9380264  52.2133560  29.8271351  84.0606842  28.4455090  28.5764561
  84.2362671  27.7073269  29.1599712  83.9273453  29.1890602  29.1643200
  78.0230026  27.5854130  24.3843670  77.6379395  26.8812981  24.9060802
  78.7170029  27.9422169  24.9386997  49.0955696  64.8652115  78.6703949
  48.9480667  65.3998032  79.4505768  49.9634743  65.1258011  78.3620682
  40.3772964   5.8809590  30.4497414  40.0806427   6.5846138  31.0268879
  39.6373024   5.7243094  29.8631401  30.0096245  60.0520935  85.4433289
  30.6828861  60.6678238  85.7328644  29.6378269  59.7049980  86.2542114
  54.0488358  40.4761200  28.3795147  54.6050034  39.9014511  28.9055023
  53.6216965  41.0465775  29.0185471  63.1689720  71.5134430  11.7275906
  63.5186462  71.4703064  10.8375921  62.8307076  70.6337814  11.8949242
  72.6335907  31.2375278  16.7898808  72.3023834  32.1310158  16.6992493
  72.0027771  30.6986694  16.3124523  48.2011566  69.2740021  30.6708832
  47.9880600  69.2668152  29.7377319  48.8830643  68.6090317  30.7659702
   9.5929260  41.6498413  58.6852608   9.8830891  40.7511139  58.5293007
   9.7697639  41.8009033  59.6137772   6.8893476  58.3393822  27.4446869
   7.4363174  58.9964104  27.0141449   6.7565036  57.6646996  26.7788105
  56.2068405  64.0485001  36.9942055  55.9446182  64.2932281  36.1067467
  55.4088287  64.1427612  37.5143242  20.3435001  54.6359711  -0.0174759
  19.8623257  53.8599014  -0.3045655  19.7183304  55.1191101   0.5228657
  83.9481354  28.5607071  24.2429562  84.5222397  29.1882820  23.8038750
  83.0649033  28.8191090  23.9795990   8.9398508  55.0337181  79.3957977
   9.4531345  54.9282532  80.1968231   9.1567144  54.2642860  78.8693237
  62.8396187  35.7860985  15.6357527  63.0822830  34.8796082  15.8245010
  61.8901863  35.8097076  15.7551374  24.1430550   7.9510822  10.2014427
  24.1480408   7.2308235  10.8318672  25.0509529   8.2532339  10.1758108
  23.8704987   4.5292425  49.5487518  24.6000633   4.4904723  48.9303131
  24.2804127   4.7281027  50.3905678  16.2873135  47.2959976  52.9941330
  16.2046013  48.2344360  52.8246574  17.0705585  47.2191238  53.5389748
  51.0125084  18.8224354   2.2684722  50.9069862  19.0797043   1.3525517
  51.6847153  19.4136219   2.6073911  65.1878738  11.6103191  14.6565008
  64.7679977  11.2479877  13.8763371  65.9121933  12.1356916  14.3165455
   9.1530075  16.4012966  44.0330772   8.4096661  17.0043259  44.0385475
   9.2609406  16.1458511  44.9492264  46.7929535  67.8461533  15.0379944
  46.1157379  68.0082169  15.6947632  47.4833069  68.4759521  15.2453499
  16.1469479  42.8322716  15.7328606  17.0695705  42.8743668  15.9843111
  15.9032459  41.9166183  15.8685818  10.5924444  52.5018692  57.9717674
   9.8584862  52.3395424  58.5643806  10.2824268  52.1995239  57.1181221
  58.2971992  33.0607071  51.9865494  58.2548447  33.2271843  51.0448914
  57.7142105  32.3141212  52.1242447   3.7082341  63.0014954  42.1738396
   3.1783876  62.2291603  42.3713112   3.8190234  62.9793091  41.2233315
  82.8380051  56.1086502  55.7700615  83.6167374  55.7164421  55.3751221
  82.7578812  56.9624023  55.3447151  81.2988281  25.4378433  19.4816647
  81.1430740  24.5852604  19.8879623  81.5485153  25.2318535  18.5808582
   9.1852226  26.4120369   3.4651673   9.2981529  25.7847118   2.7510655
   8.4193926  26.9275551   3.2122304  77.7875137  15.0210609  54.6284904
  77.7193909  15.0650635  53.6747322  77.3126526  15.7922411  54.9383621
  49.6773796  53.5577126  41.5548935  49.2266045  54.3119659  41.1752396
  50.0969543  53.1290436  40.8089485   4.4561453  54.2792740  46.3610725
   5.2067499  54.0245209  46.8976593   4.2708535  55.1815681  46.6213875
  35.5523262  66.7944794  40.2985916  35.2011642  67.2579727  39.5382690
  34.8689423  66.1665573  40.5329666  17.2406998  35.8564644   3.1936150
  16.6433525  36.5422173   3.4921966  17.7017765  35.5790901   3.9852617
  36.8359909  14.0787392  42.2075043  37.0790634  14.9716816  41.9629593
  36.0229836  13.9126348  41.7303658  86.0612183  64.0233383  53.3048668
  85.1432648  64.2068405  53.5046463  86.5404358  64.3356323  54.0723686
  48.8086014  39.9028244  80.4394531  48.1429749  39.3105392  80.0896378
  49.0102463  40.4924278  79.7128601  44.8317108  45.6124573  20.3283615
  45.0621338  46.0059280  19.4867458  44.2321548  46.2410049  20.7304726
  10.0722895  21.3219032  26.7826977   9.5159874  20.9131508  26.1196117
  10.6141615  20.6062355  27.1150036  20.6171741  13.5647612  18.1513405
  21.0457191  14.1785822  17.5548477  20.1722069  12.9426527  17.5758247
  79.9863358  62.2914429  47.8346519  79.3223572  62.6970291  47.2771072
  80.5681076  61.8389740  47.2238731  81.8591843  58.8231239  24.7569504
  81.1897125  58.2825050  25.1761971  81.9479980  58.4553566  23.8776932
  38.4374237   1.6262882  66.4469757  39.0371780   2.0460417  67.0636902
  38.7550545   1.8935050  65.5844574  78.5606918  69.5148697  81.5665970
  78.6787109  68.6858444  82.0303040  77.8601837  69.9589539  82.0444107
  24.6118259  14.2479477  16.7946796  24.9899025  14.2104473  17.6732483
  24.3995647  15.1721964  16.6645241  70.2034760   5.4744191  68.5764999
  69.8252640   5.4807811  69.4557800  69.5283356   5.0746193  68.0282516
  50.5261841  26.5093651  12.9074001  50.8043327  25.6199837  13.1261854
  49.6836433  26.6124744  13.3498096  75.4104462  48.3639069   2.9396124
  76.3637238  48.3661690   3.0261703  75.2308121  49.0057373   2.2525768
  83.8981171  67.5239105  60.4250946  84.3945770  68.3414612  60.4620361
  84.4574432  66.8839417  60.8653526  33.5726776   9.4904757  18.1028099
  32.9251022   9.2078314  17.4570618  33.5590019  10.4462910  18.0531960
  81.0286636  36.4762535  23.4078789  80.8540115  37.4062996  23.2638378
  81.9402771  36.4459000  23.6981735  16.0847721  17.3410950  51.0444756
  15.7084417  18.1457748  50.6879654  16.9564495  17.5973225  51.3457336
  50.7054596  24.6984367  71.4696960  50.0131226  24.3442287  70.9116287
  50.3216934  24.7144375  72.3464508  72.4575043  19.3346252  53.9038429
  72.8600998  20.2006874  53.8399086  71.5340118  19.4842510  53.7013588
  19.4364758  54.4991951  12.8407431  20.3065643  54.4398270  12.4462156
  19.5441628  54.1258316  13.7155209  32.7802849  68.2731094  29.7932568
  31.9397545  68.5380554  29.4196930  32.5472527  67.7485962  30.5592957
  39.9029541  20.0081749   5.6497741  39.5792389  19.3375511   5.0483541
  40.8356514  19.8149242   5.7444358  34.7703552  56.8559723  30.8218765
  34.1072350  56.9369278  31.5074043  34.9535789  55.9176178  30.7754917
   7.0758390  17.8164749  82.8654251   7.6404099  18.5689621  82.6886292
   6.5833611  18.0650826  83.6476593  63.1361504   5.0376463  22.9655380
  63.0523529   5.9833021  22.8432903  62.4799919   4.6612434  22.3790150
  70.8867035  36.0038071  19.4308701  71.1369476  35.2594070  19.9781189
  70.3672562  35.6184349  18.7252598  80.1429443   3.5779300  66.1020813
  79.9274216   3.1374221  65.2800522  80.5886688   2.9094343  66.6223450
  49.4378967  36.5185966  10.8280363  49.4488945  35.6224327  11.1641865
  48.8827400  36.9982224  11.4428482  53.0340233  14.2756472   4.5162053
  53.1607323  13.4803104   3.9988883  52.1187935  14.2374563   4.7939239
   4.7060499  59.1687241  49.9465866   4.1994891  58.7052307  50.6135216
   4.5136881  60.0938225  50.0996361  42.9026299   4.3634906  40.2907372
  43.6788406   3.9417052  40.6592789  43.2333183   4.8636618  39.5446091
  80.3044968  41.0730515  17.3591843  80.9082565  40.5223999  17.8576679
  80.8705902  41.5969925  16.7923927  76.0873260   3.4985096   4.5989103
  75.3529053   3.4747887   5.2123466  76.0938110   4.3965459   4.2676697
   2.2382436  51.1968002  22.0255871   2.1993654  51.1518669  21.0702324
   1.4123974  51.6086082  22.2798004  81.1548004  52.7460365  37.7456665
  80.5317307  52.5770645  37.0389366  81.1227417  51.9572144  38.2869263
  86.3458786  21.5913086  48.4428940  85.4371719  21.7492886  48.6988792
  86.6860580  22.4578400  48.2201157  65.5106430  71.6576080  41.0905952
  66.1744766  72.2941284  41.3559380  65.7419052  70.8587189  41.5644341
   3.9861774  16.9505997  11.5296297   4.5132780  16.2816410  11.9665394
   4.0524683  16.7375965  10.5987883   2.0359538  65.9730911  65.4718018
   2.4105842  65.2312927  65.9467926   1.3569137  66.3125381  66.0548248
  74.4655228  33.2649803  34.5548019  73.8871841  33.7856407  33.9974251
  75.2281342  33.8253899  34.6983223  53.6506729   7.5263214  11.4025803
  53.7896271   8.4557943  11.5842485  54.5257454   7.1406660  11.4444256
  24.1381130  68.3814392  13.1771917  23.4564953  67.7404327  13.3790226
  24.3696537  68.7599411  14.0253429   8.2809191  12.3754253  33.3808746
   7.7277260  12.8299685  32.7455788   9.0283051  12.0656605  32.8693161
  26.0307789  50.2635803  56.6840134  25.3178902  49.6994247  56.9835930
  26.0714035  50.9642563  57.3348846  22.0780067   2.7720382  76.6712875
  21.6282101   2.5435627  75.8578339  22.8711605   2.2362201  76.6650467
  29.9192657   9.2031269  70.4174652  30.3856716   8.4543447  70.0459518
  30.2023754   9.2322083  71.3313751  56.1255913  69.2305756  73.1023178
  56.6387367  70.0142212  73.2993240  55.3612785  69.5577545  72.6279678
  40.1218185  61.2949677  35.0093307  39.9910049  60.4004860  34.6946602
  39.6692886  61.8430099  34.3681602  18.9919434  34.5817833   5.1788564
  19.9150105  34.8252487   5.2488904  18.9951534  33.6246567   5.1903272
  44.8320084  52.9121971  47.6048203  44.0136414  52.7382126  47.1398048
  45.2798843  52.0665092  47.6260414  61.1601067  43.7143631  15.9355087
  60.8372688  43.4981461  15.0607195  60.4871445  43.3801918  16.5285358
  25.0873299  41.0132790   3.4505048  24.2864494  41.5203857   3.3175893
  25.7750816  41.6722336   3.5454102  77.1440887  58.9597626  54.5254440
  77.4516678  59.7085495  54.0146141  76.2758636  59.2200966  54.8330841
  40.7951317  58.0262985  80.8354263  41.6335831  57.5863991  80.9758453
  40.4054184  58.0831604  81.7078476  84.3093338   2.8567305  32.2244606
  85.1046600   2.8328464  31.6923771  84.5002823   3.4946127  32.9121208
   0.4120988  64.1115646  10.5509863   1.0079768  63.8121910  11.2376738
  -0.4527804  64.0959778  10.9608316  20.8585739  63.9545479  77.0625992
  20.6486645  64.5737152  76.3634567  21.7091732  64.2446594  77.3920593
  15.4509058   6.1959672  22.0445080  14.7489462   5.7369699  22.5058155
  15.8282232   6.7797723  22.7025623  72.4286957  44.9552231  28.2552891
  72.6212387  44.4143028  29.0211620  72.0194702  44.3532600  27.6336727
  24.5458622  34.8320770  24.6915436  25.2323093  35.3764114  24.3058968
  25.0183334  34.1167755  25.1173878   0.9054910  58.4037018  31.1146698
   0.4958892  59.2143173  31.4169331   1.3399060  58.6454010  30.2966862
  65.4723053  46.0176468  55.9858627  65.1633301  46.8049774  55.5376663
  65.2754822  45.3038750  55.3792114  53.4811630  38.5122757  25.7665215
  53.8180923  39.3848572  25.9697647  52.6292953  38.4771233  26.2016315
  26.7544346  52.0567894  21.9722481  26.4099045  51.8694267  21.0990791
  27.6708317  52.2897034  21.8232460   8.4726019  22.8391895  56.9412842
   8.9913263  22.8104191  57.7452278   7.6952620  22.3167992  57.1389771
   5.8285627  48.3535423  42.4473076   5.3933291  48.8948593  43.1059265
   5.1722374  48.2384071  41.7601280  82.1267090   4.0258646  34.1380844
  82.0419083   4.9787502  34.1704750  83.0438309   3.8594832  34.3558960
  25.9141026   2.8698659  19.1735058  26.4864578   3.3230987  18.5544567
  25.0333176   2.9927292  18.8194542  75.9403610  39.1592064  34.9642563
  76.7450485  39.5120544  34.5845184  75.3851547  38.9633713  34.2095146
  43.8407707  19.3685760  71.9406738  43.6215935  19.6442795  71.0506287
  44.6251068  18.8295631  71.8381500  76.7653122  45.0635071  64.9223251
  77.6153336  44.7754822  65.2551117  76.9588623  45.8605690  64.4289017
  17.6216106  47.6487694  30.6837330  18.5412731  47.5002861  30.9037437
  17.2008057  47.8312950  31.5238743  29.5399494  17.3364143  80.0992889
  29.5229816  16.3816204  80.0336304  28.6198730  17.5872135  80.1816940
  56.9033966  55.9815903  56.8073997  56.7610054  55.0350952  56.7972107
  56.9130745  56.2322998  55.8836670  79.6254272  13.2460432  26.4844818
  80.3422928  13.0943842  25.8685799  79.9413376  13.9498796  27.0510960
   2.9399917  71.4779968  88.7451477   2.1242125  71.1746216  88.3467789
   2.6703904  71.8647614  89.5781937  60.9003754  45.4839821  65.5920944
  60.5651703  46.3177376  65.2623596  61.8049126  45.6717644  65.8426514
   2.4540834  66.7962112  59.2187500   3.1747692  66.1667099  59.2425575
   2.3125072  67.0329819  60.1353340  31.6446495  70.2336121  20.6269627
  31.7863121  70.4833908  21.5400753  31.3152142  69.3360443  20.6725216
  43.0510178  17.3876286  76.5231094  42.4060287  17.8156872  75.9600983
  42.6862144  16.5179882  76.6870499  55.2305679  68.6295471   5.8715129
  56.1067238  68.4712601   6.2229772  55.3406906  69.3739471   5.2799354
  21.5627747  15.1516523  72.2931900  22.4585876  14.8371267  72.1714325
  21.4370518  15.1551533  73.2420959  31.2259731  64.3262863  37.2176743
  31.5345287  63.5174294  36.8092918  30.3473969  64.1151123  37.5334930
  67.8790894  20.6413479  80.3060074  68.2607269  21.2265663  80.9603119
  67.5045242  21.2282581  79.6491470  28.2976723  34.3519287  81.2477951
  28.3003311  33.4150314  81.4438858  28.7828236  34.7493553  81.9709244
  45.3527222  50.3751106  58.0079346  44.6211205  50.9903946  58.0570908
  44.9785042  49.5893822  57.6094055  82.9727936  56.1979446  88.8877029
  83.8499298  55.8147354  88.8834381  82.8431549  56.5094376  87.9919434
  66.8798294   7.5288172  77.8206635  66.8661499   7.8214912  76.9094086
  67.5050125   8.1125603  78.2503510   6.0096688  63.3622437  87.6875687
   5.8654318  64.1538773  87.1691589   6.0556617  63.6731110  88.5917206
  84.5848312  61.0824471  50.4696121  83.6380768  61.0613403  50.3301964
  84.8907700  61.8088646  49.9265213  65.2336655  31.5527229  24.4008312
  65.8564682  31.8080959  25.0813713  64.4626312  31.2526436  24.8821716
  29.9173336  18.7208366  21.3987465  29.6888218  18.0090160  21.9965134
  30.6544456  18.3804989  20.8917274  65.7750473   9.6120405  10.2136288
  66.1702347  10.4629011  10.0236444  65.1790771   9.7822695  10.9430580
  68.6456757  29.2557240  17.6796761  69.5098267  29.5990524  17.4525318
  68.1082535  29.4293442  16.9068470  44.4990807  64.7441788  71.1451492
  44.7892151  64.0325089  71.7157516  44.5510674  65.5270920  71.6933975
   3.9651163  13.6568604  20.1651993   4.7650881  13.2371607  20.4816303
   3.5100393  13.9349794  20.9600487  34.5144730  47.3246498  51.8249283
  35.4668045  47.3101006  51.7295990  34.3680077  47.6308899  52.7199135
  84.4853821  26.3778114  86.1423264  84.6963654  25.6472340  85.5609741
  84.9715729  27.1191826  85.7814636  76.0400772  29.9560547  45.8105621
  75.4245071  30.5554237  46.2325439  76.7741852  29.8970413  46.4219780
  75.0755997  13.5816565  88.5430603  74.6175995  13.6893730  89.3766479
  75.9549179  13.9224138  88.7071304  65.3665771  54.6936760  63.3246689
  65.3510513  55.5611496  62.9203377  65.5853271  54.0989265  62.6072769
  78.9757538  65.2544327  58.9268456  79.7523117  64.7541428  59.1776352
  78.8923492  65.9237061  59.6060715  40.8862267   2.9879787  11.0781488
  41.8082466   3.0037854  10.8215189  40.4261131   3.3937731  10.3433971
  12.5483780  20.2769375  62.0918541  11.8689308  19.6098442  61.9940262
  13.3562412  19.8364658  61.8280907   5.5308022  56.4483299  61.1288300
   6.0749497  56.0100250  60.4745941   5.0589848  55.7376022  61.5629807
  79.6892624  10.9838362  29.5003757  79.8648682  10.2615252  28.8973312
  80.5215912  11.4525928  29.5614491  43.2275047  65.6550751  41.6759071
  43.2812614  66.2155762  42.4499741  43.4614220  66.2299728  40.9472046
  33.9652367  66.3049698  86.1563644  33.9296417  65.3875122  86.4269791
  33.4401474  66.3393860  85.3567810  58.8407097   3.6811984  86.9544220
  59.2014809   4.4811230  87.3367844  59.4416199   3.4642999  86.2416153
  77.3653793  29.8779907  43.2944717  76.5687180  30.3978825  43.1882858
  77.5830917  29.9602737  44.2229462  77.6508713  40.8728294  51.6156006
  76.9742508  41.5456963  51.6908150  78.4700470  41.3633881  51.5481949
   3.3202939  41.7729836   1.1457361   3.9410396  42.4920425   1.2634571
   2.6375084  41.9370880   1.7962015  66.5128479  53.3965569  66.4132462
  67.3445892  53.6671944  66.8020859  66.2659912  52.6097641  66.8993073
   3.1939955   5.7022266   1.8825966   3.0693705   5.8389320   2.8217516
   3.3912187   4.7691722   1.8004718  65.0463638  30.9599285   5.6223536
  64.7305298  30.9924908   6.5253601  65.9572525  31.2489986   5.6766348
  43.5061302  20.4339371  88.7279663  44.4143524  20.3170242  88.4492188
  43.5349007  21.1747189  89.3334808  72.1633148  46.3681526  14.0893106
  71.5897141  46.2227287  13.3369350  72.8613968  45.7213058  13.9868469
   4.9825678  50.9644623  50.4782944   5.3820238  50.5303535  51.2320938
   5.2241511  50.4172668  49.7310028  17.7417583  40.8985100  34.6457710
  17.1839981  41.0837364  35.4012985  18.5713959  41.3305817  34.8488655
   9.0386839  34.0219421  75.2092819   8.3456993  34.3148041  75.8010864
   9.0190907  33.0669670  75.2715225  28.3946476  14.4885798  26.2047138
  28.7366390  15.2992220  25.8277073  28.3955803  14.6445866  27.1491146
  49.1598625   6.8962092   4.8292513  48.4857216   7.5662699   4.9423218
  48.7179222   6.0738044   5.0403724  27.7377071  29.4556866   4.6593585
  28.0652122  29.8737183   3.8629787  28.4264603  29.6026497   5.3076267
  12.6074820  41.3014832  16.6699619  12.4352636  40.5602341  17.2505856
  13.4100599  41.0615120  16.2068043  49.0969086  70.0542068  34.1389046
  49.3358498  69.1478882  33.9446983  49.3273735  70.1704102  35.0606499
  36.7838326   9.9474564  44.9393196  36.5584412   9.9987850  44.0104523
  37.2439232  10.7671976  45.1197968  63.1553574  19.8484879   4.7764840
  62.5366898  19.9868793   4.0593157  63.6443176  19.0655270   4.5232677
   6.9363976  53.4985924  52.4389877   6.6006498  53.8977547  51.6363831
   7.7758584  53.1162643  52.1833229  44.4319572  14.4324608  53.0804596
  43.6590195  13.9550686  53.3819580  45.1063309  13.7600193  52.9841766
  85.0754089   4.3503709  34.3953743  85.8896637   4.8278265  34.2364731
  84.7752838   4.6657352  35.2478409  72.8008423  13.4561129  15.5760527
  72.8139877  12.5127001  15.7373934  73.7186127  13.6875057  15.4333057
  24.7623405  51.8323250  66.0261078  25.3012886  52.4928131  66.4614563
  23.8891621  51.9514465  66.3997421  36.0040741  10.0688667  84.3641357
  36.4823532   9.8322573  85.1588058  35.9554367  11.0244951  84.3894424
  45.3016319  14.3132677  18.4576683  45.4102821  15.1654005  18.8799191
  45.8551102  13.7212648  18.9670105  67.2541428  17.7738266  52.3581734
  68.0892105  17.4236679  52.6684570  67.3464661  17.8049583  51.4059448
  37.9228859  69.9393539  30.1831970  37.5082283  70.4633484  30.8685570
  38.0273514  69.0722198  30.5748653  39.0239601  62.0103531  29.5496521
  39.2069817  61.2144775  29.0503368  39.8876381  62.3692894  29.7532597
   3.8700254  53.7211952  89.0000839   4.6376939  53.3046494  88.6084137
   3.6927235  54.4745026  88.4367676  59.1859398  21.1409645  48.2666740
  59.6295319  20.3620262  48.6023979  59.0903511  20.9765224  47.3285599
  53.8126793  67.1126709  70.8443680  54.7248192  67.3663177  70.9854279
  53.4972534  67.7169037  70.1723175  22.5863304  55.6968346  15.1783934
  21.7699089  56.1837273  15.0660486  22.3131905  54.7812309  15.2358503
  65.8717957  47.1431007  75.9225998  65.9957504  46.1963806  75.9903259
  66.2245789  47.4900703  76.7419815  11.0329370  34.9968719  59.3932457
  11.5684824  34.2086678  59.4835587  10.2685041  34.7110329  58.8930740
  42.1778030   2.6757259  36.8989601  42.1200409   2.0713654  37.6389923
  41.7075920   3.4568763  37.1904030  39.9124260   4.6853609  88.6147919
  40.4933243   4.6785107  87.8540421  39.8680725   3.7698097  88.8905258
  39.0390015  35.2034225   0.6311351  39.2487526  36.1225662   0.7966968
  39.6840057  34.9238205  -0.0184983   8.9141588  51.8453331  33.1552849
   9.6969013  52.1032104  33.6421547   8.9337578  52.3867149  32.3661385
  81.8386917  45.9707642  64.0971680  82.2154770  46.8193550  64.3299026
  82.1059952  45.3871689  64.8072357  63.8312416  68.7246552  87.4507980
  64.2306213  67.9827347  86.9966125  63.0708008  68.3514481  87.8965302
  -0.1511980   8.6131477  87.8413010   0.3197664   7.9250016  88.3112793
   0.1701304   8.5518494  86.9417343   4.1619449  43.4291801  15.8589640
   4.9007578  43.7697029  15.3545523   4.5568891  42.8133202  16.4761925
  52.4339371  54.8676186  39.8073044  51.8576202  55.1642685  39.1029663
  52.3682098  53.9129486  39.7845001  40.0037994  18.7699738  25.2908173
  40.8870697  19.0668869  25.5096951  39.9842262  18.7615108  24.3338547
  29.4252396  40.9477348  82.9158783  29.3197803  40.2675018  83.5810089
  29.8810978  40.5107269  82.1965408  25.7010670  20.0164604  84.5056000
  25.1117535  19.6471577  83.8479080  25.5891476  19.4526997  85.2710266
  73.7833328  50.6830750  26.5691757  74.2390060  49.8510666  26.4413090
  73.6324539  50.7309113  27.5132008  41.4114799   0.2221131   6.9525156
  41.2057648   1.1281998   6.7224727  40.8758659  -0.3033977   6.3582215
  23.8248482  60.5030937  87.6497040  23.1342888  59.8530464  87.7793121
  24.6155186  59.9854889  87.4975204  73.8152847  34.7935448  42.4415627
  74.3495712  35.4116592  41.9428673  74.4095459  34.4452019  43.1062050
  75.6703262  15.8484745  25.3610039  75.1915131  15.1483974  25.8046932
  76.4189072  15.4085913  24.9580612  74.4497528  59.6001358  62.9678993
  73.8208237  59.3984184  62.2750931  75.3048477  59.5259285  62.5441704
  11.3514032  67.6550522  37.2789192  12.1671295  67.3036575  36.9220619
  10.6626434  67.1682358  36.8263168  72.7292786  31.7023048  85.1356583
  72.8385162  31.7301521  86.0861969  72.5864410  32.6147575  84.8841553
  48.5564346  55.3500290  70.0256271  48.7271271  55.3524590  70.9674835
  47.8030128  55.9304085  69.9172592   3.1649301  10.2319603  14.1190739
   3.8693137  10.8797503  14.1401396   2.5569932  10.5169106  14.8013115
  22.1169605   9.9804935  51.2481308  22.6305580   9.1971388  51.0511360
  22.5847301  10.3979578  51.9714203  47.0857277  50.4987106   7.5874200
  48.0242844  50.5405579   7.4041462  46.6926689  51.1107559   6.9652152
  17.1019096  23.4684048  25.2740574  16.4034824  23.9337788  25.7343369
  16.8031425  23.4258213  24.3656750   1.1686753  48.5212326  22.2523537
   1.5978092  49.3655205  22.3911018   1.4981520  48.2214584  21.4051151
   9.7533932  35.3322945  28.5111294   9.7304411  35.6347771  27.6032696
   9.2864075  36.0091896  29.0009937   6.2270470  38.6829605  65.0025482
   6.8603802  39.3985558  64.9473801   6.1799536  38.4762268  65.9359665
  52.7052155  35.6070824  78.3856888  52.8185234  34.6898880  78.1363907
  51.9102325  35.8828506  77.9294128  74.7342300   5.5302520  30.7406063
  75.2048264   4.9803863  31.3670368  75.2789841   6.3122978  30.6518459
   3.6063340  17.2353668  29.9011154   2.8900266  17.5065746  30.4752064
   4.3871951  17.6295300  30.2898617  47.7121048  62.1252594  26.8945713
  47.0827827  62.8195724  27.0897865  48.5245667  62.4147530  27.3097000
  26.2118111  56.7530327  76.3066788  26.0115528  57.0079765  75.4060516
  25.3622437  56.5296631  76.6869049   6.4358339  56.7064247  85.4411926
   6.5656343  57.6517715  85.3656464   6.1278520  56.4370461  84.5758514
  72.8882599  18.9434967  64.9858627  73.4390793  19.5115185  64.4471741
  73.2035446  19.0812359  65.8790894  86.5541534  56.6364136  69.4902802
  85.8046188  57.1089249  69.8524399  87.2146835  56.6685905  70.1823044
  59.0727043  26.3296356  23.7383842  59.2191315  27.2755623  23.7423458
  58.9214935  26.1145325  22.8180046  20.4250927  58.1164932  60.7658653
  20.7349358  58.3360176  61.6445236  21.1523476  58.3517952  60.1897011
  50.7068748  30.5417671  24.4391422  49.7742767  30.6863327  24.5991116
  50.7346458  30.0287247  23.6315231  78.8304596  55.2858772  61.6524773
  79.6405182  55.7933273  61.7027817  78.9033890  54.7990494  60.8315582
  67.2302475  11.5201674  19.9289417  66.5011215  10.9003878  19.9069195
  67.6820221  11.3293886  20.7509727  76.4590378  43.1566429  51.3737411
  75.5870132  43.4984436  51.5711746  76.5989456  43.3750687  50.4523582
  46.3164444  65.3622589  76.6954193  46.7936516  65.6714935  75.9254303
  46.9698906  64.8844604  77.2062531  71.8477859  66.6143112  12.6722155
  72.5191116  66.6013794  13.3544083  71.0220108  66.6906738  13.1502218
   8.2546215  52.1095123  85.6836472   8.1464691  51.1715393  85.8409500
   8.6817436  52.1612930  84.8285980  16.0767231   7.0456872   9.1871128
  15.2168636   7.0736022   8.7674751  16.2164669   7.9371786   9.5064020
  16.5385723   5.3553433   1.3421249  17.1392899   6.0970798   1.4142265
  16.3290539   5.3066077   0.4094093  82.6114120  62.7356644  53.4652481
  82.9994354  63.1911659  54.2123718  81.6705170  62.8871651  53.5546761
  85.5683212  48.4376221  54.2164345  85.6527252  49.3881798  54.1419678
  86.3159866  48.1719933  54.7518501   5.1798840  63.9359818  11.8010941
   4.8811083  64.6107483  11.1914625   5.1540375  64.3598175  12.6589537
  53.4094849  41.5287132   1.4943779  53.5561714  41.2219849   0.5995982
  53.8728714  40.8961906   2.0433939  22.4780731  56.1622009  72.1967926
  21.9260540  56.6126938  72.8359833  22.8883820  56.8670349  71.6957092
   6.3065534  39.8538246  24.3369370   5.4769740  39.4397049  24.5747089
   6.3621254  39.7506599  23.3869381  64.3831863  64.7540894  48.5142937
  63.8252182  64.5894165  47.7541695  64.8926697  65.5280609  48.2742424
  14.9258232  30.3739986  77.9257355  15.3912420  29.8728275  77.2560806
  14.0947809  29.9120522  78.0362244   6.1256094  53.2660065  17.6279621
   6.9363708  52.9051094  17.2692833   5.4410872  52.9491196  17.0386887
  45.9516029   5.1819911   3.4365578  46.3664436   5.0689330   4.2917528
  46.2786140   6.0245271   3.1212349  64.6264877  19.9613113  47.6707878
  64.2387238  19.5853329  48.4610481  64.5998459  19.2510262  47.0296783
  62.1290970  57.2540321  64.8491974  61.4544067  57.8041687  65.2471542
  62.8996429  57.8195724  64.7976685  84.4502258  50.1572723  26.5227566
  84.0700531  50.6209412  27.2688885  85.3846893  50.3602142  26.5655060
  82.3364868   0.4825843  25.6702576  81.7567978   0.1162070  26.3380642
  83.0355225  -0.1648445  25.5785542  85.2673874  52.6502419  81.9044037
  84.7823639  53.1300583  81.2330170  86.1194687  53.0848122  81.9408951
  16.9020653  41.5483551   7.9629488  17.3818512  41.6418037   8.7859344
  16.9936523  40.6229553   7.7360611  76.0849304   9.2343178  26.2797127
  76.3725739   8.8465633  25.4531918  76.4732285  10.1092196  26.2817764
   3.1105402  54.2680016  13.2784424   2.7188525  55.1165504  13.0716152
   3.0773642  53.7817116  12.4546385  51.1631203  63.6989670  44.4194603
  50.6149750  63.4700813  45.1700439  50.5452576  63.8113670  43.6970711
  84.0621567  45.6261673   9.0585766  84.6893768  45.8214149   9.7547789
  84.1156998  44.6769753   8.9472313  63.6792183  38.9923973  64.7963943
  64.5775909  39.0300560  64.4681549  63.6563911  39.6343803  65.5060196
  56.1501274  50.9683952   0.5848565  55.2172737  51.1047058   0.4192396
  56.2429161  51.0721207   1.5318854  71.3195038  38.1836777  53.6226349
  71.0384521  39.0807457  53.4423409  71.7198105  37.8891106  52.8045769
  22.5392284   3.4158852  68.9451904  22.1466007   3.2161865  69.7950134
  22.4084358   2.6209991  68.4281998   3.2388716  33.4038544  33.8753281
   3.5496333  33.2517395  32.9828491   2.7884173  32.5935364  34.1134720
  22.4821568   3.4843762  61.4049797  22.9046936   4.3423462  61.3652267
  22.6416359   3.1800194  62.2983818  68.5312042  46.9130173  15.4686432
  68.1160355  47.5121040  14.8481874  69.1712418  47.4534950  15.9317436
  56.9940262  10.1254673  85.5094528  57.4998207   9.4758673  85.9977417
  56.3350945   9.6131287  85.0408936  72.9416809  62.6707840  88.2453918
  73.0365295  62.9815216  87.3450165  72.7581253  63.4610100  88.7534103
  61.7483864  31.3596325   1.7653975  61.6273575  31.9312096   1.0071874
  61.1818237  31.7336731   2.4401777   5.8814855  14.9589462  66.4811554
   5.7882977  15.9098253  66.5392685   5.7995315  14.7669058  65.5470047
  84.3220444  13.3035393  19.5473843  84.7493744  14.1598177  19.5675583
  84.9239044  12.7470827  19.0530624  77.6304932   6.7949715  12.1853991
  77.1268158   6.9181066  11.3807993  76.9758682   6.8165083  12.8834229
   9.3778267  45.9245224  88.9245148  10.0459023  46.3442268  89.4665070
   9.6895027  46.0411491  88.0270309  21.6139164   7.7572465   9.1525755
  22.5027390   8.0585594   9.3408222  21.1143761   7.9789839   9.9384022
   6.1376648  54.1231041  74.6596298   6.1101489  54.9515495  74.1809311
   5.8230872  53.4729538  74.0314789  42.8358955   4.7488356  26.7007885
  41.9624367   4.3825846  26.8392181  43.2112885   4.8114991  27.5790730
  70.1497803  70.0836029  57.7957993  69.9480286  70.9685364  57.4918060
  70.9485168  70.1844864  58.3135567  13.0924034  40.0167274   7.0268002
  13.4384947  40.6231613   7.6815453  13.3840284  40.3766327   6.1891508
  72.0792084  19.5276470  22.3604965  72.0077133  20.3368855  21.8542824
  71.4792709  18.9204159  21.9273930  85.2845383  16.4188995  37.0348358
  84.6592484  15.8976946  36.5312576  86.0318451  15.8353577  37.1661339
  21.7557964  15.0435829  58.1211090  22.1355667  15.3007002  58.9612846
  22.3112164  15.4681139  57.4672623  15.6005878  44.1973953  82.9565125
  14.9169369  43.5600662  82.7499542  16.3269863  43.6701469  83.2890549
   5.7403345  49.5582924  57.2351761   5.1498857  48.9771461  57.7146225
   5.3209796  50.4174690  57.2819824  21.1160889  56.6737175  18.3359013
  20.6656761  56.6655045  17.4913349  21.2590580  55.7495422  18.5400944
  55.0450668  71.0827103  35.2288818  54.4977837  71.8106766  34.9342995
  54.6647148  70.3115997  34.8082237  74.7989426  37.8150330  20.9578781
  75.0454178  38.0165710  20.0551796  75.1123734  36.9215126  21.0979385
  -0.0174209  26.5518093  46.5515556  -0.0371168  27.3848438  47.0226173
   0.2251225  26.7885418  45.6563644  58.1624794  37.4706345  16.4674988
  58.0337143  37.3383675  15.5282660  57.3056374  37.2907372  16.8543949
   3.4611330  43.4389725  78.1031723   4.1854291  42.8140526  78.1363678
   3.1903880  43.5405045  79.0156555  78.1318665  61.9153023  68.5959396
  78.4004974  61.0537567  68.9150162  77.5314941  61.7270584  67.8745880
  46.0245132  32.7067299  66.6489792  45.8250847  33.5703239  67.0104599
  46.4551239  32.8901901  65.8140259  16.9739456  45.8402443  34.6466408
  17.4192715  45.2506676  34.0381050  16.9632626  45.3640518  35.4769173
  18.9524078  39.8385468  77.5503082  18.3531704  39.7062111  76.8157120
  19.5013294  40.5753441  77.2818909  22.6356926  67.6220169  26.4784565
  21.9731388  66.9314041  26.4960880  22.1402855  68.4323120  26.5977421
   2.0078402  47.3358536  32.2043152   1.3006738  47.9773407  32.1361732
   2.1388915  47.0276794  31.3076077  61.5295792  71.1287689   2.0129638
  62.3502731  70.9631348   1.5489993  61.7280769  70.9320145   2.9284520
   0.9054353  25.2397022  75.1183701   0.2974648  25.4092751  74.3987503
   0.9452617  26.0669651  75.5982437  10.6059532  14.2086811  74.0406799
   9.8540115  14.4916487  73.5203476  10.2291965  13.9352903  74.8770676
  40.3128510   5.6774807  36.6397591  39.4201775   5.6624317  36.2945938
  40.2035103   5.6228538  37.5891228  10.6993923  61.6014366  24.5334835
  11.2803164  61.6571350  23.7747631  10.0713720  62.3126526  24.4070091
  79.9811172  66.6321487   6.5295434  79.4899139  65.9397583   6.0873351
  80.3472519  67.1577835   5.8182831  12.3959656   3.2677343  48.3466568
  13.0245447   2.7006431  48.7933426  12.4257545   2.9850688  47.4326286
  12.8020582  27.1105251  73.1581497  12.6475067  26.7282715  72.2943039
  13.2167597  27.9538212  72.9761887  80.9755936  48.1413383  52.4233742
  81.8027420  47.9100037  52.0008278  81.2206573  48.3717155  53.3195343
  74.5236816  65.0335388  73.8749084  74.5724411  65.3978119  72.9910736
  75.4289246  65.0377426  74.1859741  33.7417068  58.4559250  47.9997139
  33.3042908  59.2806320  47.7881508  33.5784950  57.8965569  47.2403030
  38.6270714  49.1720352  71.4612503  39.1379890  49.2445564  70.6550674
  38.1484070  49.9991035  71.5166779  52.5610313  59.3925400  10.7371082
  53.3839645  59.8654747  10.6132202  52.0919418  59.5075378   9.9106951
  69.4227753  60.0844498   9.7200899  69.4796448  59.3500175   9.1088572
  68.4838181  60.2088356   9.8583488  42.7875099   6.2773628  85.1834641
  41.8368073   6.3188047  85.2867966  43.0967293   5.8488479  85.9815826
  34.3842697  23.4928532  70.9051437  33.4572449  23.2574902  70.8669281
  34.7102814  23.3264866  70.0206833  61.9195862  71.1605988  68.5274963
  62.4826508  71.3194656  67.7698975  61.8136635  70.2095947  68.5519638
  28.5876408   9.3165255   7.6754513  27.6456470   9.1929712   7.7921305
  28.9792576   8.9224243   8.4549093  26.2242069  53.1499329  17.6216488
  27.1740685  53.2096825  17.7237663  26.0909023  53.0414696  16.6800022
  42.6228600  57.4643097  88.9067001  42.8392181  56.5677567  89.1628494
  42.8106689  57.4973564  87.9686890  36.4886742   8.6893587  14.2346334
  37.0197601   8.2937422  14.9257679  36.8290901   9.5800819  14.1511965
  36.4197655  55.7312393   9.5681591  36.5735130  54.9709167  10.1289663
  35.7349968  55.4475555   8.9624786  64.5671997  37.3801079  82.6057892
  64.1970978  38.2607460  82.6669159  65.4669037  37.4762077  82.9180832
  74.2701035  60.0742416  54.2849426  74.1389542  59.8072472  53.3751373
  73.8310471  60.9222145  54.3513680  22.8297749  30.6734028  23.4623260
  22.5187721  31.0729885  24.2746334  23.5058689  30.0564251  23.7424450
  30.8772411  54.2340164  13.7997265  31.1875992  53.9173927  12.9513988
  31.2526226  53.6242104  14.4349089  84.2239990  33.8902168   6.1965828
  84.1155396  33.0085678   6.5531826  84.2428513  33.7642212   5.2478986
  79.5352478  60.1847916  17.3726902  79.4362488  60.9374390  16.7896347
  78.6548615  60.0293465  17.7147198   1.9257412  52.7848892  70.2289658
   2.0615029  52.6692238  69.2885284   2.5652399  53.4501839  70.4832382
   6.3091083  43.6466293  84.6049194   5.7909789  43.3445282  85.3509140
   6.0838985  44.5727196  84.5162125  12.4969234  13.4142056  35.0094795
  11.7170305  13.7174597  35.4742775  12.9862700  12.9147568  35.6631813
  84.7093353  57.1650276  15.5862837  85.4767303  56.5930557  15.5725927
  84.0461273  56.6646767  16.0617161  62.6671333  20.7506599  38.5772934
  62.3221779  20.3637829  39.3820076  62.8128738  20.0042572  37.9960251
  76.1238632  54.4622002  75.7026291  76.4646072  53.9766273  74.9514008
  75.6479492  55.1975479  75.3166275  43.8641853   8.9202805  76.0515594
  44.4451065   8.4072695  76.6133270  43.1656532   9.2156572  76.6355438
  63.7570572  47.6250839  20.1176777  62.8333244  47.4546814  19.9335232
  64.0182495  46.9175797  20.7071247  10.8976269  58.4180222  68.0447617
  11.0912209  57.4981117  67.8644409  11.2461987  58.8889694  67.2878342
   5.0888004  62.1851692  70.0919647   4.1762543  61.9019089  70.1490250
   5.5243635  61.7374306  70.8172607  70.8819885  62.2229347  10.0554237
  71.6459274  61.6462250  10.0616074  70.1343460  61.6293488   9.9853315
  55.0961494  10.8771715  49.0981216  54.6833382  10.0452337  48.8663902
  55.1827621  11.3416433  48.2656555  61.9588661   7.4020982  12.3064604
  62.7817116   7.1838112  12.7440767  61.3982544   6.6409984  12.4570427
  42.6375046  68.1368637  10.4012976  43.3451920  67.9312134  11.0121307
  42.0538139  68.7121201  10.8958855  71.0427246  29.5055294  57.0987892
  70.5788727  30.2257900  56.6718292  71.5889130  29.1297112  56.4083748
   1.3591666  36.7754021  85.6900177   0.7439912  36.5926285  86.4002151
   1.6601365  37.6684418  85.8577347  20.5429554   0.5299075  49.8711700
  20.9482098  -0.1039054  50.4630165  21.1273613   0.5578767  49.1135979
  25.2685432  11.9884472  64.6006622  24.6272755  11.2971048  64.7651443
  24.7796478  12.8023949  64.7219162  66.8572540  46.5941887   3.3316991
  67.0110397  47.5151443   3.1209443  67.5072021  46.3906326   4.0042810
  48.4089241   3.3696845   1.8861438  47.6505432   3.4533222   2.4641545
  49.1551437   3.2892771   2.4802184  43.6130333  56.4219589  45.3810539
  43.6023369  56.2388344  44.4415970  43.4678459  57.3660736  45.4427109
  16.0968952  40.4935570  31.4445553  16.6750851  39.8714905  31.8860970
  15.3824368  40.6383514  32.0648918  19.5590630  49.4466667  23.8529682
  20.5077839  49.3303146  23.9041691  19.2475090  48.6712646  23.3861485
  49.2171822  11.2824430  54.8207321  50.1397438  11.4385662  55.0225716
  48.7827721  12.1090422  55.0310936  78.4341507  59.9746323  57.0044441
  78.9674683  59.5638084  56.3239822  77.8917847  60.6077232  56.5340576
  86.5726852  37.4258614   4.9715462  86.5073853  36.7633476   4.2837653
  87.2103729  38.0564308   4.6369305  48.5711250  44.7319450  64.8692780
  47.7701416  44.7222328  64.3452911  49.0626106  45.4851151  64.5415497
  38.5835724   1.4139237  14.1141005  39.4379539   1.7858335  14.3330698
  38.6982727   0.4698785  14.2229767  80.7723923  50.9161720  76.5968399
  80.6896896  49.9766769  76.4333115  80.1975708  51.0806885  77.3443375
   5.3176694  43.3122978  74.3431396   5.6720681  43.4640961  75.2192612
   4.8554678  44.1224480  74.1280594  17.3652554   0.8872194  87.8340607
  17.7387142   0.3386942  88.5239029  17.8690701   0.6639128  87.0514069
  72.6509094  70.0827332  59.2551155  73.5247040  69.8295135  58.9574585
  72.7151489  71.0247040  59.4125633  32.7247849  70.1090317  56.2676239
  32.0583916  69.6024933  55.8033333  33.5077515  69.5592270  56.2374725
  52.4340439  18.2179508  16.9657116  52.9180412  17.4064503  16.8125916
  52.7764244  18.5479145  17.7964554  63.7396736  71.4090729  66.5133286
  63.5274010  70.8398590  65.7736130  64.6900177  71.5146255  66.4693222
  17.6701984  56.4742470  41.2422981  17.7055073  57.2764320  41.7633400
  18.5857658  56.2141914  41.1406288  56.2000656  16.2747517  69.4324188
  55.5296974  16.5512810  70.0572128  56.9008102  15.9152660  69.9764404
   4.9103031   5.6390820  38.7097549   5.5489192   5.0553842  38.3002472
   4.3590674   5.9365549  37.9859581  27.9049091  43.6255722   7.0377154
  28.3578987  44.4650688   6.9584756  28.5930996  43.0033684   7.2732782
  80.1710815  25.2394333  16.7667484  80.7746353  24.7746868  16.1871204
  79.6071320  25.7379017  16.1753788   7.3871841  62.8675079  19.5376835
   6.8843870  62.1132393  19.2302704   8.2998676  62.6295624  19.3745174
   1.2418588  32.6753235  62.8309364   0.3762591  32.4555817  63.1754417
   1.5320393  33.4141769  63.3658409  11.3840446   4.3891935  81.7004242
  11.6144724   4.8398190  82.5128708  11.4077635   5.0737605  81.0318146
  78.6362381  71.2921219   2.9081736  79.4404678  71.1651840   2.4048488
  78.7652283  70.7715988   3.7010472  31.4028149   6.7752805   8.3215208
  31.2404785   7.3881588   9.0386391  30.6410618   6.1956644   8.3247471
  25.5819931  35.9298058  10.9221859  24.6392136  35.8142548  11.0407019
  25.9754314  35.4541740  11.6537695  34.6328392  61.8027573  25.1766720
  34.7878075  61.3761520  24.3339252  33.9254379  61.2958450  25.5752373
  71.2512665  44.4822121  74.0212250  70.3138351  44.5170822  74.2115707
  71.6498337  44.1758270  74.8357849  72.3993073  21.0476227  36.8106194
  71.9402008  20.4134712  36.2598877  72.5207977  21.8112240  36.2463646
  37.5785103  21.1764755  35.3779755  38.2862663  20.7744865  35.8816795
  37.0691223  20.4363403  35.0478935  77.2946014  40.1387177  38.9290199
  77.3702698  41.0295181  38.5869980  76.4404449  39.8356781  38.6210976
  82.3181839  35.7268715  74.6544418  81.7169342  36.1510849  75.2666321
  82.1629639  34.7902641  74.7765198  21.4102726  70.6715775  43.7619820
  21.4962959  69.7182693  43.7685776  21.7734585  70.9506531  44.6024857
  12.3263702  66.4560089  14.6417122  11.6131258  67.0168152  14.3367414
  12.7223024  66.9435654  15.3640413  78.4631882  25.4345741  71.6797333
  77.7797470  26.0884647  71.5328827  79.1999207  25.7344017  71.1472244
  56.3351707   1.0280467  47.4063225  56.5427780   1.9572659  47.5047226
  57.1798096   0.5844085  47.4837875  33.5327530  61.9507599  75.0349121
  32.6320839  61.6476212  75.1495056  33.7386971  61.7500420  74.1219330
   2.0780621  35.0779114  30.2147064   1.3484386  34.7623253  30.7478924
   2.1414766  36.0099792  30.4231834  12.2554398  17.5025883  25.0290966
  12.9885225  16.8899994  24.9694443  12.6643295  18.3482075  25.2133999
  74.6746216  67.1830673  68.9316711  75.0959320  67.9251480  68.4980240
  75.1051941  66.4128723  68.5606766  46.7666092  55.2319183  65.3664474
  47.6836472  55.2124062  65.0927887  46.6859894  56.0378304  65.8765869
  59.0024643  71.7244949  88.2848740  58.9426041  70.7993088  88.5229416
  59.9385223  71.9211731  88.3215790  66.5281982  10.2844791  32.6666794
  66.7960587   9.3935471  32.8918953  67.3283539  10.7016621  32.3473930
   0.0300854  16.9833679  31.7130127   0.5805048  17.6799564  32.0708313
  -0.3455912  16.5557785  32.4826012  74.2865906  15.8278990  11.2861786
  74.8158188  15.1764069  11.7462902  73.6142273  15.3160572  10.8365345
   9.5648394  35.6871223  23.2718945  10.2725487  35.0909729  23.0269775
   9.7906609  35.9766006  24.1558838  82.9370651   3.7030647  13.1921482
  82.8250427   4.3868713  13.8525200  82.2395325   3.0743678  13.3776579
  60.7280006  38.3197670  86.7065887  60.4635506  38.9959946  87.3303070
  60.1326141  37.5900650  86.8777161  59.1978951   4.0758209  64.0909882
  59.4187164   3.6111434  64.8981705  58.6269913   4.7899971  64.3742828
   1.8319181   8.9821653   1.6089895   2.1179123   8.1051168   1.3535947
   1.4349093   8.8628664   2.4717662  72.0626907  66.6131134  64.2557526
  71.5449677  66.2027283  63.5630913  72.9700470  66.5132675  63.9677048
  71.6734695  55.3855591  48.1134224  72.5284195  55.6582489  48.4464760
  71.2395859  56.2031441  47.8694305  75.9077301  17.5448017   3.5347366
  75.1526642  17.9973946   3.9105895  76.3680496  17.1789646   4.2900515
  57.9437103  29.4274139  76.7504120  57.4964676  30.0307331  76.1569366
  57.8993187  28.5795994  76.3082886  57.1639137  11.6260967  81.7060318
  58.0480080  11.9680443  81.8389893  57.2357903  10.6925220  81.9047852
  46.6175461   7.0417194  62.2375145  46.3716469   7.7221470  61.6107903
  47.5182304   7.2549806  62.4814720  44.9888458  17.6306305  27.3357468
  45.4134560  17.2754879  28.1166496  45.5727806  17.3916016  26.6159439
  32.5112343   1.7850279  18.7875156  32.8261566   1.8495739  19.6891193
  33.1178780   1.1770995  18.3648586  55.6979294  62.2575989  81.9890518
  56.6118355  62.4183922  82.2239075  55.6434174  62.4940491  81.0631180
  70.2512512  68.3614197   2.3785770  70.9261093  69.0100250   2.1783311
  70.6983414  67.7093430   2.9181471  72.9468918  30.4536991   1.1831779
  72.2438126  30.6061058   0.5517704  72.6285629  29.7330112   1.7267826
  18.7501602   3.6494911  25.2963734  18.3132782   4.0325155  26.0570679
  19.1620770   2.8534644  25.6323757  73.1726532  40.0574532  65.6151657
  73.0569153  39.9493675  64.6711578  74.1214600  40.0581207  65.7416229
  19.3355694  62.0303764  15.9087181  18.4860210  61.6780930  16.1740456
  19.9613705  61.6231155  16.5076694  73.3513260  68.9281235  64.1733093
  72.6179123  68.5402069  63.6959610  73.6164246  68.2514114  64.7962112
   6.2679524  28.1175365  69.9181366   5.4619145  28.1781464  69.4054337
   6.7489252  27.3902836  69.5231705  59.6772614  32.2129517  13.6026535
  59.6011581  31.2606030  13.6615753  59.5884972  32.5166702  14.5060406
  75.4978867  41.3869896  77.9179306  75.1281281  41.5207214  78.7906418
  74.7485886  41.1409721  77.3754654  60.7796936  12.3586845  61.3295860
  60.0258560  12.5788860  60.7823448  60.8211021  13.0640593  61.9753113
   4.9105377  45.9004631  61.4025307   5.1109829  46.5959930  62.0288620
   5.7238464  45.4008102  61.3310699   7.2040720  54.8941154  35.0918541
   7.0466475  54.2981911  35.8241959   8.0297718  55.3270874  35.3086166
  66.1852188  60.2426987  47.6728477  65.9810257  59.3087845  47.6244392
  65.3313980  60.6720963  47.7262039  53.0788307  18.0619583  70.6027451
  53.8781624  18.3959103  70.1955872  53.3880653  17.4534340  71.2737961
  46.0433846  48.0134468  42.8779221  46.4228897  47.1509018  42.7099228
  46.1867065  48.5003662  42.0663834  10.0720615   8.3740778  70.9291611
   9.1399374   8.3667641  70.7116241  10.3336649   7.4540286  70.8930435
  21.2742157  44.7910004  15.8543444  21.7492542  44.0909653  16.3021393
  20.4351864  44.8420334  16.3122272  79.6866913  48.0378761  46.1604195
  79.2067032  47.6758385  45.4155884  80.0845795  47.2761993  46.5820427
  27.7621193  70.6307526  86.4316864  27.5557003  70.3057785  87.3080444
  28.7186737  70.6508865  86.4028473  66.4271088  15.7193708  24.6395149
  66.0000000  16.4137936  24.1379299  66.4889069  14.9855509  24.0280247
  55.2399673  18.0257015  48.0161057  55.6638107  18.5414639  47.3301201
  54.3283615  17.9539909  47.7331505  17.5438652  19.0584984  79.5585938
  17.4704018  18.1728706  79.2029266  18.4339581  19.3323879  79.3373413
  81.9334641  48.4539108  41.4501190  82.6104660  48.8635101  41.9887466
  82.3923035  47.7617035  40.9741478  73.3453522   6.3970304  10.2284737
  73.8787384   5.7795997  10.7289858  73.6524200   6.3026681   9.3267860
  11.7028818  56.7598915  84.8539124  11.0950623  56.1309166  84.4650955
  11.5128508  56.7284203  85.7915344   1.4660956  42.1815834  87.9507370
   2.0135689  42.1094551  88.7325897   2.0884845  42.2911797  87.2318115
  53.4004059  23.6891041   8.0583677  53.8287888  22.8345394   8.0089760
  53.0933189  23.7511673   8.9628448  10.4425154  49.7257843  81.5839157
  10.4396811  49.1896095  82.3768539   9.8955994  49.2415123  80.9653702
  19.7631702   5.4883251  65.0226364  20.3498306   6.2310781  64.8798904
  19.2202663   5.4570756  64.2349167  46.4236145  40.2153854  82.0033035
  47.3628387  40.3942032  81.9573364  46.2372627  39.7088852  81.2127609
  55.7806549   2.1799481  23.1586208  56.4439354   1.5634773  22.8483715
  54.9926872   1.6480200  23.2699356   6.7619586  47.2090034  88.9498367
   5.9822364  46.6655083  88.8363647   7.4924741  46.5920715  88.9054489
  79.0511932  65.5002518  71.7649078  78.3777237  65.1172791  71.2027588
  78.5757370  66.1154022  72.3232651  40.3371964  71.7848434  53.2845764
  41.2229233  71.4318314  53.2003136  39.7647629  71.0527802  53.0551529
  61.1708946  64.9728851   9.5122757  61.7252846  65.1928940  10.2609272
  60.6023865  64.2726822   9.8328123   6.8461809  38.3691750  86.6343460
   7.4442401  38.7184868  85.9736404   7.0173821  37.4274178  86.6384048
   3.0635185  59.1274719   4.9263363   2.6033447  58.2882347   4.9385781
   3.7877526  58.9946136   4.3147273  11.8291349  15.2980070   5.9150114
  12.5275135  15.0638714   6.5263052  12.2839346  15.6966124   5.1730523
  47.1054344  19.7496319  78.9361343  46.1981010  19.5146923  78.7417603
  47.1613503  19.7193375  79.8912201   0.1816668  10.3719873  56.8565407
   0.0969758   9.5889778  57.4005585  -0.1036337  10.0914822  55.9869690
  70.6139374  61.2117844  36.8953705  70.3859482  61.9532814  36.3346252
  69.9267578  61.1950531  37.5615044   1.5645494  51.1266251  27.8964520
   1.5684285  51.8570442  27.2778168   0.8888336  51.3565292  28.5342484
  54.8635292  21.3578224   8.4445114  55.1113281  21.1462173   9.3445396
  54.3986130  20.5804539   8.1350212  46.7045288  57.6738281  47.8291321
  46.5609627  58.2015953  47.0435905  46.2952423  56.8317604  47.6300392
  48.8972130  71.3759232  26.0566521  49.2354698  70.7702103  26.7161407
  49.3938789  71.1696472  25.2648163  58.9409637  26.0039330  81.5971832
  59.2665215  26.5485420  80.8804932  59.5328674  26.1887398  82.3263855
  32.0672607  35.4941177  15.2810459  32.7347031  34.8491135  15.0471172
  31.6103210  35.1060829  16.0272808  75.7539444  52.0809174  59.5313110
  75.4916992  52.0135918  60.4494247  75.3833160  52.9128456  59.2367477
  56.5269165  55.3552742  88.8600922  57.0637589  55.0035172  89.5702362
  56.8627815  54.9284248  88.0719147  77.5946503  63.4489784  29.9631233
  77.9469757  62.7744102  30.5436935  77.5414352  64.2322998  30.5106697
  20.8487434  19.2133980  57.7971191  21.7066078  19.4031467  57.4172554
  20.3003693  19.9513893  57.5308723  81.5081787  37.2599182  27.9772053
  81.0146866  36.6915703  28.5685425  82.1316833  36.6745796  27.5472565
   9.4012632  39.3045082  60.4500580  10.0224314  38.9310913  61.0753136
   9.6392555  38.9097099  59.6111755  45.2587204  61.6296349  14.0238256
  44.7282410  62.2932243  14.4648199  46.1126938  61.6815491  14.4530935
  31.1565895  57.2497711  22.4432087  31.4375172  56.6981239  23.1732769
  31.1342621  58.1350021  22.8066635  24.1094322  28.3004417  15.1206074
  23.3492966  28.5711689  15.6355190  24.8628159  28.5634384  15.6492643
  70.3918152  20.7696209  86.5337524  69.5881500  21.2800484  86.6328201
  70.8385391  21.1687222  85.7871704  44.0146980  60.4359550   4.7793722
  43.7601967  60.2760353   5.6881542  44.6423912  61.1568565   4.8297439
  65.2413330  18.1028671  61.1514664  66.0811005  18.2614594  60.7203445
  65.4615936  18.0108147  62.0784225  51.8794250   5.5958600  73.8946991
  52.2328186   4.8575611  73.3984528  52.4981079   5.7185764  74.6147003
  47.0031891  15.9781761  76.7167435  46.3524437  15.3236609  76.4630203
  46.7484894  16.7671432  76.2383194  58.7772942  27.3200436  85.2867584
  59.2949677  27.0431023  84.5307541  58.7807732  26.5613174  85.8703308
  38.8061905  38.1781654  21.2313042  38.2770996  38.9214630  20.9418182
  38.1885338  37.6087685  21.6901321  27.6754341  55.9670753  38.2465668
  26.8057575  55.8863678  38.6382027  27.6710529  56.8283501  37.8289337
  13.0382729  12.1675758  43.2431641  13.7724810  12.2640944  42.6366539
  13.2285223  11.3616018  43.7232094  45.3116875  52.9475784  60.1509094
  45.4873810  53.4051971  59.3287468  44.3951874  53.1451302  60.3438683
  27.0241833  70.5841751  74.0179520  27.2020988  69.7764816  74.4998398
  27.8211174  70.7414703  73.5116043  74.2965927  59.6742783   5.8880239
  73.7998581  58.9923782   6.3402357  75.1461334  59.2718925   5.7074656
  60.5446663  60.8248444  35.5642128  59.9202042  61.5408211  35.4473419
  60.2408905  60.1420517  34.9660912  39.6952400  16.7694416   6.7633944
  39.8231087  16.0186234   6.1836085  39.3286133  17.4490967   6.1978102
  56.6179810   9.7778320  41.7339554  57.4703331  10.1776161  41.5610466
  56.7857437   9.1510544  42.4376869  43.4427338  28.9721508  16.5999680
  43.7433510  29.8744812  16.7079563  44.0746078  28.5796585  15.9975405
  61.5655289  28.7154026  12.3987360  60.8749962  28.2039051  12.8203564
  61.0997810  29.2974720  11.7983141   7.4921646  66.9337311  42.0287933
   7.7201543  67.3862000  42.8409081   7.2505903  66.0501556  42.3065872
  51.9880562   9.1278839   5.4900107  51.9512863   8.7325544   4.6190372
  51.8890190   8.3904171   6.0921459  46.2063637  71.2175140  27.0532513
  45.9170570  70.6722717  26.3216476  47.1411934  71.3514786  26.8971138
  36.1460953  35.9896317  32.3161163  35.3821983  36.5017738  32.5814514
  36.4708824  36.4325638  31.5321827  10.3064928  19.2863598  53.0446625
   9.4243898  18.9213848  52.9745293  10.8819456  18.5801983  52.7506866
  10.2341785  25.6160488  62.5395393  10.6473484  26.3058758  63.0588264
   9.7239666  25.1120567  63.1735001  78.2192764  28.9294243  65.1585464
  77.8628235  29.8041458  65.3135834  77.8902512  28.6866455  64.2930832
   4.4454250  11.6236801  86.1773911   5.2499647  11.1601238  85.9448776
   4.5490680  11.8324604  87.1057816  45.4384956  16.8622475   7.7398376
  44.7068405  17.0956650   7.1684952  45.0400505  16.7405052   8.6016102
  13.3651409  55.7683449  12.7559595  13.3029957  55.1536751  13.4870872
  13.0337839  56.5942383  13.1085672  77.1192017   7.5663857  50.0604897
  76.9684372   6.7000303  49.6824303  76.5280914   7.6057920  50.8123322
   8.9587002  43.6061401  75.2882538   8.6057606  42.7167778  75.2616882
   8.3165340  44.1329727  74.8125458  80.8389435  57.1218109  45.1344681
  80.2752838  57.8935127  45.1891899  81.6859665  57.4636879  44.8482819
   0.8056777  69.0548019  13.4279432  -0.0451884  69.3413544  13.0960569
   1.2542149  68.6984329  12.6611023  12.8026991  12.7993603  48.4544487
  12.0924931  12.8161697  47.8129234  13.5108166  12.3280230  48.0155411
  56.6806145  63.7886162  47.3983955  56.5870895  63.8812904  46.4502945
  57.6238213  63.8422470  47.5524063  82.3162308  54.6274338  48.6305161
  81.6465912  54.1585045  49.1284409  81.9686127  54.6666603  47.7395325
  27.4600105  46.8791771  24.0487175  27.9446983  47.6755981  23.8318787
  26.5534611  47.0796242  23.8158627  36.5403404  58.3425331  74.8929672
  35.8065147  58.1479836  75.4759674  37.2251663  58.6756325  75.4728775
  39.5361519   7.7068214  58.7237206  39.9779701   7.0989127  59.3165703
  38.8883781   8.1486044  59.2727623  33.1291542  69.4956284  49.6058769
  34.0518761  69.6307755  49.3901253  32.6523819  69.8802948  48.8703842
  49.0719337  11.1422262  78.8151474  49.7893105  10.8975401  78.2305679
  48.4163017  10.4561520  78.6899261  11.2337866  56.6893349  17.9313450
  10.7098999  56.3396072  18.6520844  11.9501867  56.0626678  17.8299046
  41.9103508  11.2857714  75.3055878  41.8480911  10.8311863  74.4655228
  42.6099319  11.9268494  75.1797409   0.9180927  12.4723520  43.8442116
   0.5368305  12.7150898  44.6879807   0.6860802  11.5503922  43.7328949
  65.7280807  47.1005516  65.9634476  65.4426041  46.7273750  65.1294937
  66.5290527  46.6224403  66.1781082  24.0552177  62.5552673  89.0344543
  23.8776627  61.7754707  88.5085068  24.5149307  63.1465912  88.4384384
  66.6925278  30.9269543  67.0867233  65.7494888  30.9795475  66.9313126
  66.9175034  30.0178032  66.8890762  12.7680769  61.7974548  86.6261368
  13.2949514  62.4131851  86.1167145  13.1271963  60.9373932  86.4080582
  34.7352867  30.3777122   3.9647927  33.9721146  29.8032742   4.0266042
  34.9744797  30.5568848   4.8741417  66.2642288   7.2729535  42.9134827
  66.1866989   7.8825436  42.1795769  66.8900604   6.6141596  42.6125565
  11.4039431  48.5570717  26.0547447  12.1394310  48.9227257  25.5632286
  10.9167910  49.3219185  26.3612156  53.9048653  55.3629799  49.5191689
  53.1226196  54.9127045  49.8378830  53.6589432  55.6857452  48.6522369
  72.6330948  44.8723068  36.8106995  73.4198685  45.1379166  37.2868004
  72.0433273  44.5416412  37.4882431  12.5099592  70.0657272  33.3848457
  13.0683155  69.6955490  34.0685425  12.2590446  70.9263458  33.7204018
   2.9338355  27.0537605  86.2829666   3.6600704  26.6128540  85.8420410
   2.5577419  27.6244411  85.6128082  32.4420738  15.4759912  25.3548489
  32.5776711  16.3928947  25.5938740  33.1009178  15.3038864  24.6821404
  42.4600868  10.1809015  64.6759109  42.8644791  10.5945539  65.4385300
  43.1822777   9.7332373  64.2351532  13.7398405  46.6428070  78.3689346
  14.2935429  46.6711426  79.1492157  14.0404100  45.8705482  77.8898697
  58.7319603  21.4858799  16.4578667  59.1329842  22.3003445  16.1544552
  59.2644424  21.2217083  17.2081356   4.3020744  27.0653744  30.2073250
   5.1646042  26.7651024  29.9207745   4.4880881  27.7507954  30.8490658
  44.5772400  49.6865540  34.1990662  45.1073341  49.3581352  34.9252701
  43.6982498  49.7786713  34.5666504  53.7071495  60.9474487  68.9533463
  53.1385651  60.2982750  69.3674927  53.7849998  61.6465569  69.6025162
  80.8060455  25.6365833  85.3783264  81.5156631  25.1237144  84.9914932
  80.1907120  25.7752476  84.6583481  62.6949158  10.1419621  68.6301956
  61.8825874   9.6521130  68.5021286  62.6384850  10.4688196  69.5280838
  14.6189051  29.4126148  19.6449375  14.4951715  29.6480331  20.5644493
  14.2867832  28.5172215  19.5801620  23.8963490  56.5347176  46.4257011
  23.5874119  55.7518005  46.8815880  23.8502216  57.2286911  47.0833511
  82.5848007  27.4612942  69.3583069  82.5709457  26.7477455  68.7204285
  83.1501236  28.1249390  68.9630737  71.8788528  31.6541805  51.7797318
  72.1608963  31.2189121  52.5842323  71.5169830  30.9506092  51.2409630
  23.2277374   3.9464047  18.0574856  23.2633610   4.9014926  18.1101189
  22.9158039   3.7668777  17.1705246   4.7927494  25.6945343  69.5279312
   4.3532820  26.5437088  69.5726776   4.5161996  25.3256397  68.6890793
  79.9074860   7.6863565  43.6201019  80.3135834   7.4842806  44.4630051
  80.4114304   8.4270058  43.2828865   0.9670520  69.0826645  88.6245422
   1.6077451  68.5029068  88.2126923   1.0157410  68.8698502  89.5565186
  86.5453415  21.9793396  19.3995190  87.2589188  22.4548397  18.9741478
  85.8926773  22.6516418  19.5951366  77.3051147  37.7475357  62.8887672
  76.7848206  36.9756966  62.6656303  76.6741714  38.3610344  63.2652779
  66.3802643  24.6323681  54.8058090  65.7968216  25.1256313  54.2291718
  66.6164017  23.8550758  54.2995605  61.0842323  25.0169239  28.1572266
  60.4934311  25.2644463  27.4459457  61.8385048  24.6253738  27.7167816
  71.0386810  54.1676369  36.2910767  71.4886246  54.3641853  37.1127548
  70.6422424  54.9989395  36.0302963  83.9321060  62.7038155  75.7098160
  83.7804108  61.7919006  75.4615631  84.1646423  63.1397285  74.8899689
  63.0602379  12.4645500  55.7050743  62.7997704  12.9299889  56.4999046
  63.8992500  12.0611925  55.9277763  43.0142097  68.9720535  26.9100285
  43.8239136  68.8840866  26.4071655  43.1976776  69.6695862  27.5393314
   1.8176601  23.0040627  74.1039963   2.7731996  23.0386276  74.1485138
   1.5275215  23.7849159  74.5755081  42.2009277   0.5149131  41.9282417
  42.9300270   0.1833096  41.4041367  41.4727516  -0.0718016  41.7239037
  10.0931940  13.5301781  56.7665405   9.4225073  13.0279646  57.2293510
   9.9483700  13.3282328  55.8421631  32.4315834  45.6253395  16.2801819
  31.6092892  45.1586075  16.4292583  33.1117134  44.9841499  16.4864120
  22.5857868  39.3261719  10.2481213  23.3600006  39.3213272  10.8109732
  21.8507729  39.4284477  10.8527098  31.9585781  67.8418045  82.3249435
  31.5723095  68.3168488  83.0607147  31.2528362  67.2792511  82.0060501
  71.9549332  29.7880211  45.6397133  71.7955246  29.8237495  44.6965561
  72.8721237  30.0438309  45.7374687  67.1632233  12.1740503  73.9342957
  67.0295105  11.3266106  73.5097961  66.2838440  12.4587231  74.1830597
  64.7203522  43.1793289  54.7915230  64.1288986  43.3349304  55.5278664
  64.8430405  42.2301025  54.7793159   2.2507691   4.0618796  35.5372849
   1.7700160   4.5540686  34.8718071   2.2724013   4.6440811  36.2967606
  46.7145615  35.9774475  26.8416691  46.7769508  35.3100471  27.5249805
  47.6174278  36.1091194  26.5523224  64.5039749  10.8876181  61.7238693
  64.7427597  10.8795290  62.6507683  63.9347610  10.1255770  61.6165161
  78.8530121  48.3464127  22.1048737  78.7660904  47.3931694  22.1073265
  78.4427795  48.6222191  21.2851963  81.7023773  35.9433327  67.5037079
  81.9580688  35.1969109  68.0456543  81.6041718  35.5783386  66.6242981
  27.8138599  59.2921715  84.0133667  28.7316628  59.4245300  84.2507477
  27.3367500  59.9412842  84.5303268  67.3386688  58.0053673  61.1291924
  66.6510468  57.6676941  60.5552788  68.1346970  57.5621567  60.8356895
   4.1496792   9.4826975  31.8698902   4.1271911  10.1560278  32.5498543
   3.2290671   9.2834435  31.6995869  42.2263832  49.0873146  30.9465408
  41.9549370  49.1215935  30.0292778  43.0978889  48.6921005  30.9238014
  66.1161346  39.8233948  24.3147907  66.7954788  40.2190742  23.7687435
  65.5917740  40.5641441  24.6190491  72.5308304  17.1307163  45.6359062
  72.8863602  17.3921642  44.7865143  72.6096649  16.1768131  45.6451988
  39.9447136  23.2761707  69.3400345  40.7264748  22.7291679  69.2634125
  40.1414795  23.8756828  70.0598221  53.3008995   8.7234163  47.7706070
  52.5783424   9.3511705  47.7788124  52.9991455   8.0036383  48.3247681
  71.1583099   1.0457934  38.0535355  71.7680511   1.4289438  38.6841240
  71.7071152   0.4984451  37.4918785  72.5794296   9.6658363  19.8731899
  71.6814651   9.8655577  19.6085873  72.7445755   8.7918453  19.5194950
  62.5920982  40.4859657  12.4291563  63.3419724  40.1779785  12.9381399
  62.7748985  40.1975937  11.5349207  15.6824503   6.6206899   4.4900298
  15.5978832   5.9022145   3.8632331  15.2319002   7.3556881   4.0740805
  31.4046936  65.7529755  77.8967972  31.2668972  66.5977097  77.4682388
  31.2024250  65.9159698  78.8180771  68.5398407  63.6784515  63.1372643
  68.9635239  63.3391991  63.9257011  67.6839752  63.9839935  63.4378738
  22.5334263  38.8552933  73.1386108  23.1323166  38.4036789  72.5439682
  22.8459053  38.6251831  74.0136261  33.5632591   5.8467727  77.3519363
  33.4788780   4.8952961  77.4136124  32.8263130   6.1860099  77.8599319
  23.1372070   1.7972441   7.2840891  22.5495605   1.8810962   8.0350037
  22.6067371   2.0651884   6.5337291  85.0570755  21.1058712  70.8265533
  84.7610397  20.6640854  71.6224289  85.7580261  20.5479259  70.4895096
  48.1995316  58.5029984  14.1800356  47.7590637  58.9529877  13.4591160
  47.6449242  58.6711388  14.9418554  43.3633957  67.8927460  13.4308214
  43.7062569  67.8857193  14.3244820  42.6279716  67.2804108  13.4516220
  73.4917450  54.9957962  83.4207001  74.2040939  54.8046837  82.8105621
  73.4323730  55.9511261  83.4278870   9.5238562  58.8771973  31.3683052
   9.0755672  58.0341454  31.3010063   8.8528280  59.5234909  31.1486263
  11.8456993  64.2632446  38.5109062  12.6031981  64.8316269  38.3717079
  11.3671026  64.6740646  39.2309113  53.5861931  71.2116165  42.8805618
  53.9845848  71.8695755  42.3108253  52.8976059  70.8168411  42.3455544
  38.6666641  39.7340508  74.0025253  37.7215500  39.7166557  74.1531448
  38.7783394  39.3431015  73.1359711  76.2716141  44.1390076  46.0468597
  75.6153717  43.9485893  45.3765488  76.7017212  43.2989082  46.2064514
  49.5092926  64.3565445  67.3617325  50.0299835  63.7407722  66.8460388
  49.4261818  65.1279984  66.8012161  83.4424362   7.5222793   3.5645330
  83.7334442   7.5149217   2.6526735  84.2465515   7.6337142   4.0716858
  74.9232025  57.1853790  77.3475571  75.5814667  56.6346474  76.9237442
  74.1003342  56.9464722  76.9208908   1.9203160  53.8032112  84.6814651
   2.4062028  54.5825539  84.9512253   1.4904076  54.0594940  83.8655472
  20.0044270  51.0521469   3.2998135  20.0379562  50.9971886   2.3447809
  19.4139900  50.3450356   3.5598316   1.7199308  51.7812729  79.6506195
   1.2717439  51.8112793  78.8053665   2.0332227  50.8797531  79.7237320
  34.4077148  26.4758968  83.6928101  33.9262276  26.4643555  82.8656006
  35.0700874  25.7919960  83.5939560  34.1690712  64.9037476  70.5580063
  34.8388023  64.4833221  71.0973969  34.4980392  64.8243637  69.6626282
  53.1852226   7.7756877  39.3554382  53.6235390   7.2315226  40.0096512
  53.3120308   7.3072333  38.5303879  19.9969063  58.3452721  31.2520523
  20.8022785  58.8286819  31.4362278  20.2234325  57.7728844  30.5190506
  36.1067619  33.0792084   8.7187128  36.9056511  33.6053848   8.6848335
  36.1094360  32.6959114   9.5958147  51.5593224  71.8664398  40.5106773
  52.2404251  71.5748062  39.9046402  50.9395523  71.1377029  40.5431175
   7.5053558   4.6869235   8.4535160   7.1128111   4.5508637   9.3158541
   7.2975106   3.8891170   7.9671655  40.8056641  56.6600838  64.8697205
  41.0217896  57.5490685  64.5882492  41.3850136  56.0983429  64.3549042
  60.4976578  57.5207977   0.4121940  60.4151421  57.1256790  -0.4557375
  59.7023468  58.0436325   0.5139340  52.2826767  50.2245522  17.7132664
  52.4768982  49.8367805  16.8599529  52.0399628  51.1291275  17.5156269
  20.5765152  40.1317596  28.8043194  21.0071564  40.2431221  29.6518898
  21.0921516  40.6674004  28.2014599  45.9550667  48.8119583  54.8561783
  45.9697571  48.7826653  55.8128166  46.8777962  48.7988739  54.6019554
  16.8975658   5.7389846  39.6014366  17.3327255   6.4531369  40.0671120
  15.9645128   5.8845072  39.7578583  78.4711685  26.3677635  45.1401062
  78.9261932  27.2081947  45.1935768  79.1324844  25.7212257  45.3868446
  69.3081665  35.1283569  10.5870905  68.8954849  34.3780861  10.1592751
  68.5798950  35.7096558  10.8060465  71.6849442  54.1642189  42.3718300
  71.3094482  54.8381920  41.8052635  72.5965805  54.4311218  42.4897919
  85.0275955  59.9891663  15.7266388  85.9308701  60.0183830  16.0420437
  84.7826996  59.0657692  15.7866497  63.7817307  34.4226646  37.2620583
  63.3284721  34.7335548  38.0457268  64.5358124  35.0056801  37.1743736
  40.2581749  53.4206429  16.4221001  39.8350220  52.6123543  16.1325378
  39.5943756  53.8619270  16.9520741  86.8962860   5.4714231  27.0625420
  86.2864761   4.7550335  27.2390232  86.6662292   5.7705736  26.1828747
  55.4501953  42.4415054  39.9829865  55.4874268  42.3038483  39.0364685
  54.6639595  42.9706764  40.1173172  48.6046143  45.4896240   0.5180849
  48.0662956  46.2562943   0.3214440  49.2965050  45.5068054  -0.1431438
  26.3033314  57.0903130  54.5696869  27.0793190  57.2713737  54.0393181
  25.9690285  57.9549942  54.8080215  76.4679031  37.1362724  15.2368374
  76.7151718  37.6901360  15.9773273  76.6340027  37.6788330  14.4659472
  58.0250511  58.6856689  88.8186646  58.1730347  59.6197624  88.6709976
  57.0855637  58.5669899  88.6789932  60.9867897  35.2567711  26.2591362
  61.6218109  35.1454887  25.5516090  60.1560783  35.4189186  25.8120823
  55.9776230   4.0363007  87.6611252  56.7102356   3.5487492  87.2845612
  55.8942719   4.8108616  87.1049423   9.1075697  13.2562561  80.7433624
   9.8830566  13.6411819  80.3350906   8.5956297  14.0081387  81.0413971
  61.9082565  21.1783504   2.4903333  61.1936913  20.6543446   2.1283286
  61.7005043  22.0767002   2.2333491  29.8799477   4.3179536  78.8706284
  29.3690281   3.5129805  78.7856979  29.8161507   4.5453849  79.7982254
  53.5246239  32.3645592   7.2568955  54.3882561  32.0942230   7.5688095
  52.9907074  32.4212456   8.0493288  39.9196053  11.8607292   7.2834344
  39.5302429  12.1368961   6.4537587  40.8112450  11.5987644   7.0541210
  23.3735790  12.7434664  24.5837440  23.4001637  13.0787783  25.4798985
  22.6547489  13.2215977  24.1703396  29.6028366  69.3943024  44.0178566
  28.9360561  69.0501404  44.6121521  30.3992443  69.4320908  44.5475159
  76.8909378  30.9349365  87.7173157  77.7350006  30.7867908  88.1437378
  76.9768677  31.7963333  87.3088531  29.1697407   5.3412385  76.4272614
  29.4961910   4.9735999  77.2485428  29.1997128   6.2886729  76.5603104
  81.6686478  37.3267479  45.7086525  82.4110413  37.1736679  46.2931557
  80.9029999  37.0662231  46.2206573  47.0450211  64.7666321  82.4555130
  47.0226402  64.8398590  83.4096451  46.3928642  64.0963669  82.2513733
  71.0222473   6.1832223  54.0499916  70.5575638   5.6732898  53.3864670
  71.5269241   6.8242784  53.5494118  10.1641359  61.8551102  55.8739395
  11.0820475  62.0436592  55.6786995  10.1486998  60.9185791  56.0711746
   0.0783034  71.3442307  46.8002777  -0.0122832  71.6328278  45.8921280
   1.0171040  71.1940842  46.9113693  76.8716049  40.6345291  31.8900166
  77.5878677  40.7096024  32.5205460  76.2444458  40.0451698  32.3090172
  15.1182547  58.7639351  28.6314507  14.4423437  59.4395142  28.5769196
  15.3205338  58.5533791  27.7198696  81.2824402   5.3590665  58.7897682
  82.1854172   5.2004657  59.0649261  80.8044662   5.5008588  59.6068726
  51.4337654  10.2021685  36.4514008  50.6119690  10.1372194  36.9378815
  51.4922409   9.3775864  35.9688263  74.9626541   3.0197210  35.4771118
  74.8983917   2.8077214  34.5458984  74.0964966   2.8153868  35.8295975
  10.9270935   4.9167614   5.3906112  10.8137798   5.8416786   5.1717048
  10.2791147   4.4621253   4.8524094  77.8827133  44.3827629  30.4133778
  77.8274231  44.8867569  29.6014881  77.1115646  43.8159561  30.3964195
  74.1275406  22.5759983  57.5199318  74.2956619  23.0481529  58.3354301
  73.2225800  22.2745323  57.5999069  18.7419605  31.9430180  24.5320187
  17.8879642  32.2209778  24.2008686  18.8156376  32.3646088  25.3882103
  46.9020004  44.3144569  17.8477497  47.6006966  44.9285583  18.0734501
  46.6895332  44.5176620  16.9368191  41.8524551  34.9863815  88.1050720
  41.8569527  35.8953629  88.4050140  42.5516167  34.9460144  87.4525604
  59.2502174  32.0880127  27.9367809  59.8737564  31.3812370  28.1038074
  58.6470909  31.7267780  27.2871780  11.0293360   9.1445198  13.3372927
  10.9776945   9.0197811  12.3896618  11.5272932   8.3898096  13.6514311
  79.7105179  20.8291607  58.8165741  78.8055649  20.7701111  58.5102844
  80.2132568  21.0595818  58.0352974  55.1303596  39.2133369  72.9674683
  54.3990326  39.0464363  73.5620575  54.8028870  38.9538460  72.1062698
  39.5037766  52.9579506  10.4041805  39.7423172  52.0314331  10.4342403
  40.3416023  53.4206581  10.3906450  33.4808006  56.9934731  35.5397453
  33.3943176  57.9444580  35.6059418  33.6057968  56.8288193  34.6051369
  18.4317551  29.5882568  79.4773026  19.2231026  29.5738392  78.9389725
  17.9251537  30.3264503  79.1386871  16.5646553  44.2215500   2.2061045
  17.3039837  43.7069397   1.8823794  16.1078625  44.5082588   1.4153006
  76.9785538  47.2341919  61.3107033  76.9168625  47.0763435  62.2527809
  77.7415543  47.8038101  61.2127533  82.7296066  38.2839508  31.0355492
  82.9634094  39.0602112  30.5266418  82.2183228  37.7461891  30.4308758
  83.7577667  32.6394272   3.0563233  83.9321671  33.5066147   2.6905341
  84.5711823  32.1537552   2.9194999  48.6409225  65.1821365  61.4346733
  48.6437454  64.8055038  62.3146553  48.9029884  66.0937119  61.5634613
   0.3619848   9.8710566  48.9079285   0.7532919  10.1879473  48.0938683
   1.1072806   9.7219381  49.4897614  62.2520256  68.1031265  76.3555298
  62.9834595  68.6186981  76.6952744  61.8493080  68.6656952  75.6940384
  58.9130478  67.4576645  85.6194458  58.9940071  66.6455154  86.1195297
  59.8064804  67.6565323  85.3393326  29.6521969  66.5582047  57.6587372
  29.0791759  66.7450562  58.4023590  30.5252838  66.8094864  57.9600830
  23.6445599  42.8068199  65.4826660  24.1080360  42.7610588  64.6464081
  23.6074181  41.8996696  65.7858734  84.5900421  36.4748039  77.5708389
  84.1517792  37.2472038  77.9279861  85.5126343  36.5982590  77.7940598
  77.5254669  70.4062576  63.7900658  77.4190216  69.5950851  64.2869568
  76.6777115  70.5406113  63.3664055  65.9213562  67.8523026  53.6473503
  65.4132614  67.6572723  54.4347687  65.2645493  67.9643173  52.9601212
   6.6097088  69.8992081  55.5488930   6.7220817  70.8035812  55.8416672
   7.4333897  69.6852036  55.1107330  62.5781670  51.4039383  27.8535156
  62.7050133  50.4585762  27.9336987  61.6683426  51.5005112  27.5722256
  74.7304382  27.9540844  11.8054886  74.7373657  27.8509655  10.8538847
  74.0373688  28.5929279  11.9721346   6.1117477  18.1117878  17.3201828
   5.6595120  18.7575569  16.7773228   5.4232302  17.5070419  17.5966930
  20.2603283  30.9657116  22.4331589  21.1894798  30.8180180  22.6094952
  19.9853058  31.5897541  23.1048470  80.8069153   9.9437094  61.8586998
  80.8000641   9.3615398  61.0989227  80.0103683   9.7191849  62.3396683
  25.2118530  50.7230415  75.7866669  24.9104538  50.7331810  74.8782120
  24.5649242  50.1890335  76.2477036  50.2810631  28.2064152  10.8673277
  50.2438927  27.6933575  11.6745596  49.7985954  27.6822987  10.2279863
  23.3506126  64.3602982  78.3329773  23.6600971  64.8484497  79.0959702
  24.0119667  64.5227280  77.6603241  70.3075562  30.0614624  74.6977158
  70.0666809  30.9691601  74.8829117  70.3711090  30.0204391  73.7435074
  47.4342613  55.0272446  62.3067398  47.1370010  55.9245338  62.4575386
  46.6620064  54.5723801  61.9706573  26.0029125   1.3105042  44.0677414
  25.6376438   0.4918908  44.4034233  25.9498253   1.2239536  43.1159401
  53.9876480  68.9425583  64.7036514  54.9063301  69.2111206  64.7149200
  53.6727104  69.1291122  65.5880966  82.8808060   3.8568203  65.1991577
  81.9852982   4.0951328  65.4389725  82.9917603   4.2028704  64.3136215
  62.9746666  32.6610947  29.3848343  63.4533463  33.0907021  28.6759357
  62.1023140  33.0541267  29.3573742  40.4680290  38.8773003   5.4159150
  41.2226067  38.9705772   4.8344140  40.3500710  37.9316216   5.5054069
  17.0776615  60.3828506  86.2603836  17.8764801  59.8895645  86.0738525
  17.3045769  61.2908936  86.0598831  58.5806313  65.6793137  29.2156830
  57.8079834  65.1447678  29.0326309  58.2728691  66.3408966  29.8352203
  72.7734909  18.2318306  74.1961288  72.2032242  17.4638100  74.2303772
  72.6919403  18.6295528  75.0629578  81.1323471  60.4068947  52.6079025
  81.5945663  60.9647293  53.2335281  81.5609055  60.5807266  51.7698364
   3.9906571  70.1541901  13.8144283   3.2111723  70.5634842  13.4387712
   3.6995189  69.8172836  14.6617537  61.3894234  11.1871576   7.9305248
  61.1342010  12.0433340   8.2741175  61.2046700  10.5775747   8.6450224
  42.7796097  52.4395142  45.6848946  42.1175919  53.1206818  45.5666809
  42.2964287  51.6958580  46.0450974  17.2547207  48.4355850  88.7000122
  16.8968086  49.3173828  88.5972443  17.7264671  48.2718925  87.8833771
  22.5812130  45.5395317  57.6215401  22.6034660  45.6187325  58.5751953
  23.3892250  45.9600143  57.3273621  57.2759056  33.4333382  60.9996719
  58.1518822  33.7406998  61.2329674  57.4299202  32.6557312  60.4631653
  10.0025387   8.9461889   9.5766420   9.2004871   9.2928209   9.9675274
  10.4606619   9.7185383   9.2452335  25.5995808  68.9013519  17.5984936
  25.7795906  68.3352585  16.8479176  24.6534405  68.8346481  17.7273369
  46.5715904  66.8302078  66.5236053  46.1917915  66.4510422  65.7310028
  47.5137329  66.8435287  66.3550339  84.1261673  60.8445320  30.4550209
  84.5826340  61.6786232  30.5653133  84.6641464  60.3578300  29.8305721
  16.6716175   4.7099118  42.7248650  16.6865063   5.0106726  43.6334648
  15.9510689   5.1956949  42.3235435  36.2400093  43.9010239   2.9337387
  35.5546951  43.7484779   2.2831175  36.4576874  44.8283615   2.8394008
  80.1157761  11.3847980  89.0535583  80.8213043  11.6668758  89.6357040
  79.9686584  12.1333094  88.4753571  61.4459724  48.1303139  86.1293030
  61.9154282  47.5941582  86.7683487  61.8658714  48.9888573  86.1823959
  77.0933075  39.0323257  59.4813766  77.7705841  38.5622063  58.9950562
  77.5776672  39.6427689  60.0372391   4.5194960  24.7311325  77.6711273
   4.0368786  25.5041885  77.9638672   4.9576530  25.0122833  76.8678818
  19.0727253  29.0847244  16.8133011  18.8356533  29.8781013  16.3331127
  18.4799919  29.0734921  17.5648155  72.4309464  34.4318352  59.7255135
  72.1354141  33.6638336  59.2365685  71.7110443  35.0577126  59.6464424
  16.3973637  50.0847435  61.2924385  15.8616695  49.3030891  61.4276276
  15.8093500  50.7069855  60.8643112  73.3103561  54.1838112  19.4098530
  72.4439392  54.1877899  19.8167133  73.2747803  54.8891182  18.7637024
  25.9705849  53.0940819  58.8357391  26.1625004  53.8293762  58.2537231
  25.0257874  52.9641113  58.7539101   7.8202586  22.3726864  11.8971691
   7.9748840  21.9052124  12.7180166   7.9438276  21.7102661  11.2173443
  60.9422607  49.1220093  15.3669634  60.5983620  50.0146904  15.3340702
  61.3528900  49.0551414  16.2290211  43.5211601   8.9786005  21.1273003
  43.2855568   9.0756788  20.2046413  44.0346985   9.7613087  21.3269978
  51.0506592   3.5692885  68.9746017  50.2819748   3.0014746  69.0288467
  51.0188370   3.9315443  68.0891724   4.1480556  33.3875122  31.1592999
   3.4207172  33.9524460  30.8984146   4.9216700  33.8005638  30.7757072
  60.8366928   6.1807890  33.7557678  60.6835251   5.2398567  33.8418922
  61.7651787   6.2920065  33.9601555  18.9732075  55.6619110  24.0138378
  18.2006664  55.1691589  24.2906189  19.3108711  55.1753845  23.2618370
  34.0254593  50.6672592  44.5540123  33.7604523  51.0650177  43.7246819
  34.9431915  50.9187088  44.6577950  49.2439346  68.1900101  65.5987167
  49.7836838  67.6124878  65.0589218  48.6443253  68.6057053  64.9791183
  70.5748291  58.2189064   1.3725973  70.3106003  57.8097115   2.1965959
  70.8544922  57.4881859   0.8211731  66.4370422  33.3248482  87.7577591
  65.9417343  32.5283928  87.9489746  66.2445984  33.5117836  86.8389282
  50.4730682  36.4351692  88.9853897  51.0613403  37.0362778  89.4423828
  50.9950027  35.6438332  88.8527374  47.7351112  16.9540405  14.4950657
  46.9451561  16.6265621  14.9251347  47.7938538  17.8698483  14.7672386
  55.0707321  43.4600067  31.3774929  55.7270355  42.8224297  31.0964355
  54.2469215  43.1295013  31.0192490  28.4328461   1.0876318  21.7543201
  28.3352451   1.5277923  20.9099483  29.2812920   1.3850589  22.0828114
  11.2929020  39.0119934  69.5218430  11.7647629  39.2093239  70.3309402
  11.9088125  39.2368202  68.8244629   0.5364524  10.6730661  74.4056702
   0.5393084  10.6382217  73.4491043   1.2456520  10.0865364  74.6688232
   0.8386477  59.9174690  63.4689827   0.6332058  60.8519478  63.4411049
   1.7874069  59.8771286  63.3487320  51.9495010   7.8708720  55.3784027
  52.4367943   8.6722908  55.1873436  52.0662804   7.3279328  54.5987816
   6.8842821  53.2778969  47.9955521   7.3435354  53.7840843  47.3254089
   7.3809128  52.4623146  48.0619583  72.8134155  46.4860954  16.7525768
  72.6389694  46.6241913  15.8215942  72.5183487  45.5912933  16.9213924
  18.2808189  38.8068199   3.6259310  18.9921265  38.3327713   3.1951771
  18.6658936  39.6494026   3.8667676  79.5228653   9.4440660  86.8157349
  79.3473282  10.1874619  86.2388611  79.7533264   9.8416643  87.6553955
  63.0645027  23.2592850  64.4860153  62.2573051  23.5975361  64.0983887
  63.2919197  22.5035343  63.9443932  25.5085449  58.9108467  28.5633316
  25.5760441  59.4710960  27.7901573  24.5701942  58.7486534  28.6604042
  70.6702118  10.0360718  17.2225113  70.4779816   9.8652849  18.1445255
  70.1272125   9.4092379  16.7445374  79.1526108  35.3500938  17.1756306
  78.6284866  35.9050446  17.7531719  78.5627975  35.1304703  16.4544392
   9.3124819  29.7967396  17.0293446   8.5288563  29.5602093  17.5255470
  10.0399218  29.4828053  17.5664749  47.3134956  55.7364922   3.4869890
  46.5852318  55.7453156   4.1081061  48.0969925  55.7649460   4.0361290
  70.9058304  47.2472153  87.6342621  70.1103516  47.7733078  87.5526428
  71.5299530  47.6628380  87.0393143   3.4495962  48.8448563  85.6683350
   3.5185444  49.7978020  85.6102448   3.7877655  48.5287361  84.8305130
  63.9642181  50.1188240  81.9718246  64.3658066  49.6457481  81.2430191
  64.6220398  50.0914612  82.6666260  44.5834084  20.0585785   9.1269531
  44.5054703  19.1371689   8.8796473  43.7464561  20.2667408   9.5421772
  36.8207626  52.5378036  43.3107986  36.9470711  53.4726601  43.4730415
  35.9144783  52.4670410  43.0110092  64.5213242  56.1152115  75.6438065
  63.8651657  56.3221550  76.3092804  64.9794235  55.3490219  75.9892502
  32.2803230  65.0632095  33.8670044  31.4802990  64.7725449  34.3048477
  32.9822655  64.5853043  34.3087196  36.3897705  67.5821838  23.2482262
  36.6150970  67.9243927  22.3831520  35.4469872  67.4225464  23.2045269
  11.8717165  35.6340790  67.5811386  11.9733305  36.3842010  66.9952850
  12.7010994  35.1613770  67.5110779  82.4336624   7.7012596  69.3848190
  82.6877365   7.8854938  70.2891006  81.7594910   8.3516922  69.1881943
  76.3191528  49.8488350  77.0447083  76.2723389  49.1457748  77.6925888
  76.1763916  50.6495323  77.5494232  77.2852402  22.7662487  68.9890289
  77.7205582  23.3261242  68.3461685  77.9409103  22.1065311  69.2150879
   2.4333849  52.3367996  46.8027496   2.0049651  52.0905342  45.9829674
   3.0163746  53.0566292  46.5615005  10.7435646   7.9114518  44.2487259
  11.3997030   8.1962509  43.6126442  11.1799240   7.2234812  44.7512398
  23.5958481  61.8490791  85.2885208  23.6197948  61.5248337  86.1888123
  22.7168846  62.2147903  85.1889572  80.8308182  44.0895500   0.7392250
  81.4579239  43.5003853   1.1585704  80.6358490  43.6734810  -0.1004805
  37.2831764  67.6010895  61.0635681  37.1442719  68.5207596  60.8373909
  37.8361092  67.6273651  61.8444672  19.6031189   1.9903866  54.6466751
  19.9444332   1.2282897  55.1145897  20.2289677   2.1358931  53.9371834
  71.8491745  25.0465336  47.0559845  70.9505081  24.7534275  47.2067070
  72.3175278  24.8033657  47.8545761  35.9181862  46.6246414   4.0356636
  35.8757706  47.5777435   4.1133089  36.2259560  46.3280220   4.8921261
  33.4660912   1.9124706  39.8857880  33.3828049   1.4285295  39.0641441
  34.3229675   1.6577407  40.2279930  10.9041786  59.9428558  35.5326576
   9.9623375  60.1015396  35.4695244  11.3016195  60.6612282  35.0405083
  66.2944641  60.2791595  28.4871368  65.4113083  60.0633316  28.7866154
  66.3324890  59.9432297  27.5916271  14.5643120   9.5921144  20.3537407
  15.1053305   8.8510695  20.0810070  14.8965883   9.8250084  21.2206802
  39.6853905  23.4417667  66.4412537  38.8386917  23.8375988  66.2347336
  39.6874657  23.3648148  67.3953552  58.8889809   8.3075113  20.1534996
  58.0056992   8.4262180  19.8042889  59.4601669   8.3756018  19.3884220
  26.0791416  53.0144043  35.8624039  26.1745987  52.3414917  35.1883812
  25.3244610  53.5310097  35.5799026  49.0300751  27.6558971  16.3713741
  49.2142220  28.5865040  16.4990234  49.6953964  27.2064095  16.8924694
  20.0941143  63.7929420   1.6940255  19.4216576  63.1328583   1.8623174
  19.6576385  64.4452133   1.1460640  35.8482513  64.1152115  55.1174202
  36.3448982  63.3807640  55.4782066  36.0788765  64.8576355  55.6758499
  67.5681458  50.3633118  22.7287998  68.1004105  50.8737068  22.1185322
  67.3919296  49.5442848  22.2657909   8.5838346  60.3854294  47.4339981
   8.7706614  60.8626976  48.2424164   7.6543937  60.5456581  47.2706070
  31.2607384  27.4462948  76.4912720  30.5607567  26.7958736  76.4346161
  32.0678406  26.9358845  76.4257050  41.0151596  47.8609009   4.5917563
  41.7571411  48.2952080   5.0125575  40.3417244  48.5387459   4.5347829
  55.4958572   6.6214428  58.4251747  55.7669945   6.3394246  59.2987785
  55.1124611   5.8388977  58.0291138  46.8116837   7.2745481  33.2869453
  46.7152176   6.3638310  33.5653687  46.3401527   7.7789092  33.9498978
  28.8295307  24.0926533  23.2832451  28.0483131  24.6405582  23.2075348
  28.9919720  23.7827225  22.3922977  85.7598038  15.1025038  61.6288414
  85.3556061  14.2427330  61.7456932  85.1540298  15.7113714  62.0513916
  36.0532417  70.3989716  63.8851318  36.7689743  70.9162140  64.2544861
  36.0987167  70.5651627  62.9435692  51.3208847   6.8434100  31.0820255
  50.4455185   6.5615935  30.8164215  51.5117950   7.5940232  30.5195637
  30.4422398  65.4627762  43.1932869  30.9786587  66.2380600  43.0276871
  30.1714230  65.1686707  42.3235817  25.5576077   1.3417789  41.2894135
  25.0753136   1.7686969  40.5813408  26.4663219   1.3327142  40.9887695
  48.9431419   1.7915272  55.4438095  49.8155518   1.9138339  55.0694084
  48.6883087   0.9091692  55.1741104  51.7654266   8.1442862   2.9897068
  52.4495621   7.5453110   2.6906688  50.9486008   7.6672845   2.8430896
  63.3048553  37.7105255   4.9563956  63.5135536  38.0760612   4.0967088
  62.9336586  38.4450035   5.4452586  18.0372181  57.6196594  38.0468597
  17.9199066  58.3964539  38.5937233  18.6417103  57.0670433  38.5422783
   1.5439280   1.9083797  56.1684380   2.4907377   1.7956859  56.0842743
   1.3451151   1.6096673  57.0558357  51.1060066  15.3009081  70.3579788
  51.7281647  14.7160540  69.9254379  50.2629700  15.0946712  69.9542618
  60.2915154  61.0077896  47.9957199  59.9671745  60.9928207  48.8961678
  60.4087791  60.0854950  47.7680168  85.8166122  32.3394547  27.6297302
  86.4561920  31.7288170  27.2632751  85.7654190  32.1051674  28.5564022
  79.3252258   4.2989936  12.2729864  79.4167252   4.3051124  11.3201885
  78.8387680   5.0989742  12.4720287  75.7773666  64.8804092   6.0714874
  75.1809540  64.5671997   5.3914704  75.2411118  64.9135666   6.8636789
   5.7504120  29.2636490  86.0412827   5.8701820  28.5101414  86.6193085
   6.6374197  29.5024662  85.7721863   7.2773128  67.9783096  48.7863007
   6.9701562  68.4959335  49.5305862   6.5526919  67.3835526  48.5928612
  43.2937202  66.8266678  28.8602180  42.6108704  66.3372803  28.4014606
  43.3623848  67.6509323  28.3784580   4.2208285   6.6544161  65.4206848
   3.7437129   7.4842267  65.4234390   4.1551428   6.3433652  64.5178223
  75.3887177  50.6413803  73.0632477  76.0634079  51.2840004  73.2824936
  74.7566223  50.7039566  73.7793274  17.0401878  65.6830368  48.3748169
  17.0156136  66.6212387  48.1866608  16.8750362  65.6230469  49.3157539
  61.0456467   1.5236472  30.3447571  60.2934532   1.2267450  29.8326187
  61.5405998   0.7251821  30.5283527  38.7920570  37.1599617  14.4532290
  39.6373482  37.6085014  14.4762077  38.9260025  36.3696175  14.9763403
  32.4520035   7.7708688  50.4422951  32.4124756   8.7239237  50.3625717
  33.2526398   7.5247684  49.9789886  67.0372086  69.7566376  29.9760609
  67.0918427  68.8487320  30.2742977  66.5579987  69.7085876  29.1488495
   4.7108779  30.6789589  31.9084053   4.7656460  31.6173496  31.7276955
   5.2724614  30.2745247  31.2471275  48.5546036  34.7656784  54.4877205
  48.8657761  34.9332962  53.5981636  48.9164925  35.4835243  55.0072975
   8.0822544   7.4192190  45.4118271   8.9404116   7.8111148  45.2499123
   7.6294093   8.0548201  45.9660606  38.5722809  44.7148781  60.7043152
  37.9578667  44.7573204  61.4370689  38.8938179  45.6114197  60.6091194
  14.1010056  63.8019104  76.9900436  14.6113129  63.2584419  76.3896561
  14.7372198  64.1061325  77.6372757  65.8587723  41.4110413   2.2701182
  65.5407028  40.7936592   1.6114061  65.0806427  41.6418953   2.7775199
  57.7134323   9.6539927  63.5430260  58.1209373   9.6380672  64.4090042
  58.0146027   8.8489704  63.1217575  17.3031673   0.4264340  26.7380600
  17.3295383  -0.5272833  26.6608601  18.2220459   0.6871638  26.8006229
  86.7297668  10.1506977  27.3634033  86.0891953  10.7364092  27.7669487
  86.2107544   9.5867281  26.7899933  13.8211899  46.2691498  84.7545700
  13.9230680  45.3173943  84.7587280  13.3969116  46.4609604  83.9182510
  23.8590202  46.9832840  28.2575607  23.0243988  46.6091766  28.5398388
  23.6760769  47.9154396  28.1398697  74.6143723  24.1301785  29.8875694
  73.8302155  24.0344353  29.3470459  74.9238205  23.2343292  30.0214729
  80.7638321   5.1577358  74.3982162  81.3106079   5.8332129  74.7994614
  80.4038391   4.6697869  75.1388550  60.5341949   9.0910521  22.6126060
  60.5125732   8.3380718  23.2031879  59.8980293   8.8782406  21.9297905
  47.1770706  69.2986755  10.1344357  46.4004898  69.8516846  10.2200708
  46.8489914  68.4815063   9.7591524  64.3754120  43.3304100  40.0528755
  64.2493439  42.5850563  39.4656944  63.6308556  43.9047813  39.8740883
  78.4976959  22.9805775  55.5917664  77.6667557  22.5328732  55.4326057
  78.8149948  23.2139034  54.7193527  34.8156891  60.1650734  79.3293228
  34.6124916  61.0986557  79.2713242  34.4727097  59.8978233  80.1820679
  64.1646118  19.4367676  50.6075249  64.3642807  19.2464886  51.5241241
  64.9388351  19.1425686  50.1276741  61.6231804  58.0374947  29.1088753
  61.0800858  57.3349075  28.7515965  62.4865494  57.6395836  29.2206573
  59.7438660   5.8154988  88.4627914  60.4510384   5.7927184  89.1074829
  60.1150513   6.2863979  87.7166672   3.6950574  48.7542953   3.6735308
   2.8624380  48.4283752   4.0152211   3.6567750  48.5713272   2.7347612
   6.8191776  21.5169582  73.5115128   6.5060635  20.6610889  73.8042221
   7.5203485  21.3162880  72.8915710  34.1936455  50.5942078  55.4477730
  34.3712883  50.0075989  56.1830063  33.3445358  50.3070107  55.1119728
   7.6745248   1.3618042  31.3431244   7.4055638   2.0927763  30.7867317
   6.9096308   0.7869449  31.3696899  75.5326233  52.6618881  18.8373280
  76.3549576  53.0835876  18.5879955  74.9396057  53.3882713  19.0295029
  73.8009644  27.7049427  57.1468849  73.4160843  27.8466415  56.2820015
  74.2134018  26.8432159  57.0872421  60.8760109  50.7444725  21.1390972
  60.8094521  50.8378448  22.0894032  61.8167458  50.7553787  20.9626656
  41.7128868  63.5186386  42.0781975  41.0081139  63.5768623  41.4331093
  42.2714729  64.2731781  41.8914261  69.8072281  22.3663673  45.0647202
  69.1643906  22.1971321  44.3759842  70.5191956  21.7526646  44.8838730
   1.3155215  20.3015823  16.7608318   0.6466072  20.3131390  16.0762501
   1.4785655  19.3720207  16.9207211   6.9444752  53.7927666  82.9368057
   7.3130245  53.1194420  82.3649292   6.1924720  54.1332092  82.4522171
  54.6061897  47.9583130  68.3227081  55.1676102  47.9745216  67.5476151
  54.7470245  47.0909843  68.7023697  54.6713181  52.9532013  11.4446936
  54.8832932  52.0299797  11.3069735  55.4862938  53.4172325  11.2530708
  14.4224644  51.1307983  56.5427094  15.2546062  51.2241745  57.0064468
  13.8330603  51.7434273  56.9826164  65.0407867  68.4782562  66.6672821
  64.1825714  68.8856277  66.5500565  65.3019943  68.7213593  67.5554810
  34.4864502   8.3913412  20.2566719  35.0912361   7.6868105  20.0240650
  34.0457001   8.6095228  19.4354744  39.2627792  15.5144005  47.7342796
  39.6259575  15.8659859  46.9214325  39.2562141  16.2591705  48.3355370
  32.7577400  25.1054764  25.9646950  33.4846497  24.4880257  26.0458565
  32.5203629  25.3160267  26.8677750  22.4496326  51.7265434   5.5883136
  21.9831619  51.4684525   4.7933125  22.0054817  51.2523575   6.2912407
  60.2563477  57.3683243  37.2841911  60.6093941  57.7468147  36.4789963
  59.3393402  57.6425362  37.2957458  69.9702301  23.0776482   2.2627454
  70.1415176  23.1188927   1.3218997  69.0156860  23.0890675   2.3331378
  31.7217808  19.6497498  74.2635651  31.9204636  18.8220177  74.7013016
  31.9102421  19.4835091  73.3399429  80.4539108  62.8572578   8.1829109
  80.4509735  63.1223259   9.1026735  81.3045502  63.1466942   7.8529510
  73.2101059  61.7182121  23.7138596  73.6444702  62.4964066  23.3646145
  73.6256943  60.9867363  23.2572899  77.0121994  19.9203911   3.0330315
  77.0973129  20.2114944   2.1251509  76.4214478  19.1685181   2.9890926
  41.9687920  65.8855286  74.4254074  41.0927353  65.5339661  74.5840225
  42.2097549  66.3089371  75.2493591  20.9483776  38.3151550  78.3922958
  20.1874886  38.8030281  78.0772400  21.3101158  38.8605118  79.0908432
  27.4815617  28.1008205  88.6853409  28.2199192  27.5100861  88.5367126
  26.7896786  27.7679462  88.1137466  45.4300880   7.3222995   8.6875801
  44.8169975   7.3852534   9.4199667  45.3262329   6.4272609   8.3645449
  15.8329439  43.0420418  24.8891697  15.8664923  42.0953140  24.7519989
  16.7454090  43.3251152  24.8299522  42.2703018   4.3901467   7.1902585
  41.5554085   3.9339664   6.7463436  42.7839355   3.6921866   7.5967851
  28.2249317  63.9734840  44.6748466  28.9994221  63.4662285  44.9179230
  28.5265541  64.5492477  43.9721718  76.4800186  25.7525826  39.6389313
  76.9243622  25.3482475  38.8937454  77.1891861  26.0868359  40.1880913
  51.2451134  26.6325474  17.5038986  52.1764870  26.7802067  17.3396740
  51.1752853  25.6901894  17.6566029  85.4098816  25.1443253   4.9643507
  85.9593658  24.9686031   5.7281728  84.8975067  25.9146233   5.2100067
  32.3586998  29.1243858  10.5066166  32.4411125  29.5527496   9.6545925
  32.3510742  28.1887836  10.3045731  65.5485382  32.7552032  35.0529442
  66.2927475  32.6832466  35.6506157  64.7875748  32.8409920  35.6272278
  73.2116089  40.0904770  85.8275909  73.4860077  39.1901093  86.0015869
  73.3443909  40.5462112  86.6587982   1.1541001  28.0539703   8.6818447
   0.7797143  28.7019749   8.0850544   1.0558155  28.4435291   9.5506468
   5.6681814  62.0869179  66.9325104   6.0318856  62.4493828  66.1246872
   4.9344134  61.5448494  66.6427231  56.9233093  49.3003731  57.9779701
  56.0386162  49.3457718  58.3405876  56.9115067  48.5272484  57.4137268
  19.9703388  69.7192764  81.5897064  19.1823578  70.0636139  82.0101166
  19.7174511  68.8482285  81.2838211   5.6971493  52.1638184   8.3579569
   5.2548108  51.4241486   7.9414730   5.5932093  52.0074272   9.2965574
  53.8957825  63.5112648   6.8498173  53.6302299  62.6565018   6.5105662
  53.7640228  63.4450455   7.7955899  78.2578964  60.7894859  87.8659592
  77.9477081  61.2453346  88.6484070  78.8443298  61.4152756  87.4408569
   3.8655775  39.5029106  53.6996002   4.3267736  38.7304497  54.0264549
   4.3355546  40.2429352  54.0839462  64.7561188  24.1351452  81.3003311
  65.1222153  23.5076027  81.9235458  64.5365982  24.9003124  81.8318939
  63.4260788  44.9030800  60.2250519  64.1692047  45.4972496  60.3296967
  62.7259445  45.4544182  59.8756638  74.5659714  13.4367123   6.3983445
  75.3019333  13.6932220   5.8426509  73.7893372  13.6568184   5.8839326
  76.4429779  13.5281944  48.5546684  76.2500916  12.7781734  49.1172485
  77.1858749  13.2435608  48.0223923  47.3992577  48.4757080  30.0918961
  47.1720886  48.9216042  29.2759266  48.2485657  48.0710831  29.9153004
  45.4668770  17.0133648  19.7129097  46.0042114  17.0614223  20.5035992
  44.6621399  17.4784946  19.9415703  12.4813719   8.9687557  80.7377701
  11.9339380   9.7513418  80.6736908  13.2764521   9.1923609  80.2539520
  10.1255713  36.8197632  86.4823837  10.9281816  36.3040619  86.4042969
  10.2225285  37.5139313  85.8304901  54.8003235  14.3361597   6.7257748
  54.3089752  14.8031807   6.0499806  54.8735657  13.4414806   6.3934832
  13.9523687  12.6339149  70.4552612  13.2150640  12.2911539  70.9603653
  14.6565762  12.7323008  71.0960770  82.6609497  68.1240234  67.0209351
  82.3775024  68.7263412  67.7087555  82.8219528  67.2981186  67.4772034
  71.5043259  64.2327423   8.0818491  71.0091095  63.6132698   8.6178007
  71.5688934  63.8102226   7.2253795  37.4089127  63.0224724  16.9736328
  38.0225754  63.3803406  17.6151772  36.7267265  62.6065979  17.5007992
  25.7286873  65.9423447  24.3348637  25.0681667  65.3978348  23.9065475
  26.5464382  65.7224503  23.8885918   8.2513332  71.0313492  81.9517975
   8.0979385  70.9627533  81.0094681   7.7522573  70.3069000  82.3290634
   8.6370878  15.4194002  71.3330383   9.0484524  14.9031591  70.6398468
   7.8766532  15.8214235  70.9130936  66.9171982  61.0673752  72.9349136
  66.7516403  61.7781830  72.3155746  67.0811386  60.3024368  72.3833389
  36.6209526  21.3484440  24.8133183  36.2535095  22.1540203  25.1769981
  37.2619476  21.0624180  25.4641266  64.8887329  55.3534698  83.6410675
  64.1549454  55.4935417  84.2395401  64.6619949  54.5532494  83.1672821
  73.8257980  27.8221626  64.6450424  74.6787415  27.4046898  64.5249100
  73.2246780  27.0957298  64.8099289  62.8097649  50.2404671  34.9741135
  63.7566986  50.3698769  34.9212151  62.5023727  50.9492035  35.5393028
  85.1348419  25.9907589  24.9331245  85.7233582  25.6951313  24.2385159
  84.7220917  26.7781658  24.5783520  22.8927364  19.9596405  63.3346176
  23.0813808  19.0260334  63.2396240  23.5946636  20.2899837  63.8953362
  64.0669632  44.2862701   9.3188047  63.6749382  45.0699234   9.7040787
  64.8565750  44.6040230   8.8808832  27.1793880  44.0088081  30.4640923
  27.1481953  43.6327095  29.5844269  27.7211227  43.3997574  30.9659004
   0.3700508   5.2084193  57.0716820   0.2187208   4.2632852  57.0644684
   0.0927060   5.5020185  56.2038612  65.2888184  30.0225143  27.7160625
  65.1112747  29.0826511  27.6791134  65.3056793  30.2264996  28.6511230
  51.9891968  31.0894032  64.0236664  51.7764473  30.1567097  64.0560989
  52.9413414  31.1147213  63.9287300  59.1423378  31.2715111   6.9728837
  58.5654640  30.8440189   7.6058941  58.6093941  31.9731770   6.5988884
  70.4829254  18.6153698  46.8762436  71.1494827  18.1575375  46.3640671
  69.7013931  18.5961723  46.3239174  42.6225853  60.4869881  77.8086395
  42.0328674  59.7330246  77.8060303  43.3200188  60.2434540  78.4173355
  20.6774082  64.5711670  23.3355465  21.1092262  63.7173996  23.3647137
  21.3961220  65.2033539  23.3398666  23.8581982  63.8342781  72.2401047
  23.4432487  64.5717926  71.7927551  23.1613789  63.4571266  72.7771683
  85.4397354  38.1383286  28.6522541  86.1727600  37.6580276  28.2672596
  85.2778015  37.6992149  29.4872322  55.2205124   5.6295581  48.6549110
  55.7955399   5.6908131  47.8921356  54.8659286   4.7412720  48.6168289
  41.2164307  58.5817528  58.1762085  41.7480202  59.3688469  58.2950783
  41.7464523  57.8764381  58.5474777  17.5181427  39.1305542  22.2571335
  17.9156113  39.5696983  21.5052013  16.6908512  38.7843437  21.9225311
   8.8898134  23.4515533  64.3527603   8.6596022  22.9389000  63.5778885
   9.6853714  23.0369568  64.6865692  37.4639435  63.1256943  25.3249989
  37.2466202  63.7392845  24.6232071  36.6640778  62.6158943  25.4536438
  56.8893852  49.9346886  28.0612335  56.2561378  49.3965149  28.5362034
  56.6683006  49.8066864  27.1387539  77.3357544  41.2182198  25.5881214
  76.7024460  41.7364616  26.0846882  78.1869278  41.4788666  25.9399719
  67.7748337  44.0698242  69.2453461  67.9231491  44.1190872  70.1897049
  68.4152145  44.6744766  68.8704605  -0.0325547  38.2769241  35.2194366
   0.8815680  38.3890839  35.4802666  -0.2873704  39.1295662  34.8668709
  20.3145294  29.4146233  82.1735306  20.1781006  28.5610313  81.7624283
  20.4950638  30.0061874  81.4429855  26.6236343  41.8711853  69.2471695
  26.6603622  42.5372353  68.5606842  26.4245510  41.0586014  68.7820892
  33.3499260   9.8430548  84.7441406  34.2976265   9.7104359  84.7667770
  33.1953621  10.3289566  83.9340515  19.9379177   0.8767750  17.9560566
  20.4930687   1.4156876  18.5196304  19.4934597   1.5047623  17.3865662
  15.1211300  70.9731293  24.4539661  15.9199743  71.5002518  24.4688358
  14.4836569  71.4903946  24.9462032  64.5600357  68.7605820  78.2425995
  63.9732361  68.7447739  78.9986725  65.2338333  69.3992615  78.4756699
  21.9606819  56.9399719   0.9411273  21.6068344  56.1722984   0.4920164
  22.8978462  56.9200172   0.7473309  13.2737436   7.9387627  60.7422333
  12.3999443   7.6357307  60.9889679  13.3893642   8.7562628  61.2265434
  62.9524498  21.2707272  68.8504105  63.1370277  22.1849461  68.6350784
  61.9970703  21.2118626  68.8462448   5.9072142  56.7334671  29.4086895
   6.3991218  57.4006805  28.9300613   5.2538977  56.4221153  28.7822170
  43.9377441  58.8119392  13.9748678  44.4183769  59.5393410  13.5797558
  43.5156441  59.1937103  14.7444868  17.8843002  68.5492020   4.0989680
  18.3141117  67.9738770   3.4661226  17.2747536  69.0688171   3.5748637
  68.7219543   6.7143421  11.2909622  67.9772797   6.1178269  11.2143612
  69.1355057   6.4758668  12.1206217  60.4509354  71.4316177  21.7721291
  60.1044121  70.5492935  21.6392632  59.8873558  71.9929733  21.2396927
  11.5569334  32.7972183  17.5413971  11.5361319  32.0675926  18.1606274
  11.9072914  33.5305786  18.0470333  59.0689583  46.9529686   4.9167848
  59.2766876  46.0497513   5.1561141  59.2347183  47.4561577   5.7140026
  79.8175735  10.8793688  45.2223816  80.3612595  11.2435818  44.5238228
  80.4441986  10.5337114  45.8580589  29.3459587  49.5592384  79.3059311
  28.7487068  48.9863815  78.8249359  29.7325573  48.9944916  79.9751358
  51.8795013  64.5243149  54.0949821  52.5649414  64.5224228  53.4268532
  51.3849487  63.7209320  53.9330292  59.8979225   1.7607923  65.6036224
  60.8329048   1.9273978  65.4841003  59.8281021   1.4148463  66.4933853
  57.1510811  46.1490211  18.7318001  56.3562202  46.1917076  19.2634048
  56.8898315  45.6642990  17.9488392  15.8165541   6.7851911  26.9893646
  15.3224964   6.1542382  26.4658794  16.7032509   6.4262214  27.0231266
  39.0773048   8.0279942  37.5215759  39.8736801   7.5088339  37.4098053
  39.3901176   8.9261513  37.6297188  -0.1728985  12.0766773  32.7140274
  -0.1375749  11.1559391  32.4547501   0.3374507  12.5335350  32.0454025
  60.1874008  26.7921963  56.8467903  60.6824341  27.3155270  56.2164688
  59.8193893  26.0770779  56.3277473  44.3612862  21.4996300  13.0403442
  44.0314674  22.2134533  12.4945345  43.6839828  21.3736401  13.7048864
  25.7793236  51.0965004  78.8940048  24.8596802  51.2374039  78.6689911
  26.2661533  51.5730858  78.2216263  71.3463821  23.0012703  52.4942894
  71.2010956  23.6589890  53.1743889  72.1484299  22.5527859  52.7622566
  59.3796730  68.6429138  74.9413910  60.0168152  69.0153046  74.3317947
  58.8134346  69.3784637  75.1749878  78.6384354  30.6326809  72.8856277
  77.7899017  31.0615654  72.7747650  78.7732773  30.1535778  72.0680008
  47.3336716  24.5718346  20.2187691  47.8783646  23.8760433  20.5867615
  47.9594421  25.2102852  19.8766842  14.6851358  65.2397003  13.3711443
  13.7932606  65.2334442  13.7186365  14.9845066  66.1402740  13.4959602
  49.6878967   1.2313540  67.9202652  50.6245422   1.0613391  68.0203476
  49.5913086   1.5119843  67.0102386  77.6916504  45.1806335  59.4743423
  77.1565781  45.7126465  60.0633202  78.5508957  45.6023140  59.4848061
  84.9794769  15.3825607  48.2478027  85.1243057  15.0081778  47.3788414
  84.9207916  14.6240177  48.8286629  86.9236755  38.4606018  72.0492554
  87.0052948  37.9386673  71.2510376  86.1699600  39.0282440  71.8882370
  62.0600281  49.0763474  58.6084938  62.9092941  48.8738937  58.2160759
  61.4217377  48.8255310  57.9407310  36.2713547   6.3628488  19.9452915
  36.1044464   5.5585842  19.4538326  37.1316261   6.2267556  20.3423309
   3.5177875  38.1172905  28.8033714   4.1094713  37.5389595  29.2847004
   3.3485329  38.8417778  29.4056168  21.0555649  20.0694199   9.8806391
  20.6273117  20.8216553  10.2892618  21.9718609  20.1410503  10.1480341
  57.1568985  67.7913132  33.5025749  57.2137871  67.4432678  34.3924446
  56.9778824  68.7241058  33.6212196  21.3428116  14.7983379  14.4337940
  20.7503223  15.0607224  15.1383104  21.6089058  15.6221142  14.0253601
  81.4647064  43.1445503  15.6638813  81.6132812  42.8023109  14.7823877
  82.3385773  43.3672943  15.9847755   4.4154606  12.1293659  33.2902718
   4.0120020  12.9414263  32.9836617   5.2223849  12.0555553  32.7807083
  83.1086349  45.9452858  40.3636246  83.6266861  45.3272667  40.8792839
  82.3179016  45.4588585  40.1304512  54.5758705  66.1830368   9.7778664
  53.9633064  66.2755432  10.5075502  54.9019241  67.0699081   9.6249571
  28.4966717   1.6371934  52.8201256  29.0915165   2.2056413  52.3309860
  28.0459805   1.1266799  52.1474571  39.7609634  32.3977013   5.0848503
  39.1005096  32.9712753   5.4734969  39.7965698  32.6619186   4.1655278
  17.8800755  49.7399673  39.4282112  17.5168381  49.1275597  40.0679398
  17.1597195  50.3400421  39.2352676  45.6313133  53.4794350  22.6837864
  46.4230652  53.1114426  23.0761375  45.9490891  54.1836319  22.1186714
   2.9728777  18.5723991  27.5059032   2.1980946  18.3456287  28.0202160
   3.6233134  17.9137764  27.7495880  35.1486778  47.1430244  61.2475891
  35.4487839  46.7808800  62.0812683  35.7535744  47.8626671  61.0674515
  33.8563766  59.9821243  15.0245028  34.5064049  59.5648117  14.4592171
  34.0455780  60.9179878  14.9567432  15.7779999  47.4320030  66.4686508
  15.6133327  47.7705383  67.3487091  14.9065361  47.3109741  66.0916443
  26.5420399  56.6221886  26.6888409  26.3970947  56.9850731  27.5626469
  27.4857464  56.7018852  26.5499134   8.1475220  62.9371300  83.8696747
   8.1517324  63.7523651  84.3712769   8.9302197  62.4710388  84.1635666
  62.5893402   1.7290074  54.6110497  62.5148163   1.9468899  55.5401382
  61.7546043   2.0050731  54.2325897  54.9399834  33.2210312  22.0092373
  54.8729782  34.0508156  21.5367966  54.2341232  33.2553291  22.6548519
  25.5906925  33.1020660  80.9935760  26.0993690  33.4341621  81.7332993
  25.4928322  32.1665459  81.1709366  61.8407631  71.3533630  88.1869354
  61.7448692  70.5179749  88.6442871  62.1547813  71.9592285  88.8581696
  77.4867020  49.3517151  66.1888809  78.3243484  49.3387604  66.6519241
  76.8597031  49.6727409  66.8369904  30.2133102  23.3735924  81.0802689
  30.9535828  23.8953609  81.3900909  30.5098915  22.4668789  81.1586533
  45.1289978   8.3838329  43.1287231  45.2235336   8.5076628  44.0731621
  44.3548965   7.8284478  43.0362816  41.9415855  47.2404633  68.2586975
  41.7473564  48.1214523  67.9387512  42.4707489  46.8452759  67.5658417
  76.1939316  31.4389381  22.1268730  76.4032288  32.1219635  21.4897690
  75.5900650  30.8574162  21.6649075  13.8402023  69.0772247  74.1802979
  14.2481174  68.5979080  74.9014740  13.4208097  68.4000168  73.6495209
  79.3723984  30.2187977  58.0414696  79.8343201  30.6323261  57.3121872
  78.5025864  30.6182365  58.0314026  77.9923248  59.6843872  47.6298866
  78.7174149  59.7158890  47.0058022  78.3376007  60.1010780  48.4194336
  67.8196564  19.2390537   4.7162428  67.8250427  19.9377804   5.3704472
  68.5179672  19.4766979   4.1062307  45.4828911  58.0098381  78.9083862
  44.7040367  57.6909523  79.3643723  45.3579636  57.7350197  78.0000305
  39.0959663  63.3680000  59.9823456  39.4327469  63.4886818  60.8701782
  39.8429794  63.0331612  59.4862709  69.4196701  48.9426231  53.5948753
  69.1424637  48.2972412  54.2451591  70.3440781  49.0969315  53.7895241
  46.0193443  51.5155830  20.4989758  45.4770508  50.8461800  20.0817909
  45.9029121  51.3675117  21.4374599  56.9667397  53.7094383  31.2833385
  56.7808495  53.7961426  30.3483734  56.1795464  54.0404625  31.7157536
  82.7905197  54.2619247  52.3925781  83.2336807  54.6838722  51.6565094
  82.9483414  54.8463173  53.1340675  37.5193977  29.9849319  81.9867783
  37.1484222  30.0729084  82.8647690  38.1708336  30.6840305  81.9308548
  12.5907841  43.4077606  20.8021984  12.6140146  43.1947098  19.8692989
  11.7738295  43.8932495  20.9167328  37.0154915  64.9748154  62.7726555
  37.8137817  64.4510803  62.8409424  37.3235550  65.8810501  62.7644958
  21.8832283   8.5832186   3.9346061  21.9977608   8.7553329   2.9999990
  20.9359264   8.5090675   4.0501637  50.2096024  12.2488594  16.3950272
  49.3766403  12.7115602  16.4861832  50.2377510  11.9852486  15.4752722
  75.5918121  50.6542320   1.0305265  76.3420181  50.2732887   0.5741212
  75.9777298  51.1549492   1.7492626  80.8679199   1.0133806  75.5241394
  80.9448090   0.0630641  75.4391785  81.6045609   1.2644080  76.0814285
  82.1196671  51.8787422  81.2532883  81.4350052  52.3292809  81.7477417
  82.5141983  51.2768288  81.8843765  30.6481361  19.4698277  86.7712631
  30.5840073  18.5160217  86.7225647  29.7944241  19.7507744  87.1006241
  62.2682266  43.6457710  29.4431915  62.5013390  43.9363289  28.5614529
  63.0601120  43.2206612  29.7724762  86.2879257  60.4934006  33.1605835
  85.5591812  59.9331360  33.4275398  87.0317078  60.1804771  33.6754608
  10.4477406  43.6368141  57.1180534  10.7152071  44.2514496  57.8013611
  10.1069965  42.8807220  57.5960197  76.4003754  45.3566475  76.1869736
  75.7057190  45.9923935  76.3587646  76.6868439  45.5502434  75.2943954
  59.1338959  48.9591255  55.2437706  58.4694099  48.3403053  54.9408646
  59.6323853  48.4728661  55.9005013  86.2058716  15.3418169  33.8097687
  85.9919510  14.4214754  33.6566696  86.4366150  15.3829021  34.7378349
  30.2077255  28.3674698   6.0741725  30.8085537  28.1834412   5.3521128
  30.4139709  27.7038536   6.7324343  31.0246086   9.3466549   9.8206587
  31.6391182   9.6457338   9.1504641  30.8348675  10.1293144  10.3380308
  69.8372574  43.2761383  31.4346695  69.3876877  43.1619644  30.5973606
  70.6897507  43.6432152  31.2007027  37.8045731  17.2708168  83.8095932
  38.0499611  16.4497337  84.2360229  37.4306717  17.0024128  82.9703140
  38.5904350  40.7111931  70.4238663  37.9340935  40.0950089  70.7490845
  39.3884621  40.4854813  70.9018250  76.2543182  38.2956772  42.1432114
  76.9476089  38.6145515  42.7210541  75.7472763  39.0772591  41.9234962
  70.8498611  70.5278320  47.4777069  70.5692139  71.0510483  48.2285156
  71.1514130  69.7035065  47.8595238  25.6755714  43.4962082   8.6945753
  26.2177048  43.5811958   7.9102921  25.7354889  42.5698242   8.9279251
  56.0114517  46.1269417  86.1827011  56.1243629  46.4449005  87.0784531
  55.0905533  46.2952690  85.9830856  36.5632820  62.0306358  21.9238167
  36.4257126  62.9750214  21.9975967  35.6871490  61.6538696  22.0054455
  41.2238083  50.1541748  46.4414139  41.3193169  50.5452271  47.3098564
  41.7305183  49.3433647  46.4867973  63.9570503  63.4073410  78.6134262
  64.5155487  62.8183937  78.1060333  64.0164261  63.0797501  79.5108643
  69.1767731  26.0639420  69.5920334  68.4225540  25.5600471  69.8977661
  69.2945862  25.7905865  68.6822891  19.0803165  53.6870728  53.4665070
  18.5752487  53.0983696  54.0273743  19.4324532  53.1204414  52.7800980
  84.3282318  21.9645538  21.8241444  83.6252441  21.3265743  21.7015934
  84.1730042  22.3274441  22.6961784  77.3050003  53.0555458  29.4634914
  76.7523041  53.7778740  29.1651649  78.0564346  53.4828873  29.8745384
  26.3068314  36.1762390  14.4324303  26.0876350  35.9116821  15.3258476
  26.7696934  35.4226570  14.0662317  68.8371048  33.3808899  15.0021286
  68.9431763  32.4492302  15.1944437  69.5553741  33.5851364  14.4032993
  17.1713409  59.9551659  68.0125885  16.9702911  59.8675804  67.0808487
  17.7630119  59.2263145  68.1994858   7.7373528  22.9789829   5.8742051
   8.0582657  23.8786850   5.9357128   7.1498818  22.8824654   6.6237345
  83.8593750  33.4983330  87.3105469  83.1162720  33.2628670  86.7550430
  83.5257339  34.1969681  87.8734207  34.2103119  37.1525421  15.4455614
  33.3424187  36.8252563  15.6819515  34.4452286  36.6614342  14.6582518
  48.7539024  69.7402802  15.5798855  49.0408134  69.3766861  16.4175663
  48.9088478  70.6813202  15.6615887  14.0282269  61.3125000  80.4072342
  14.2210827  61.2630272  81.3434982  14.4557505  62.1181946  80.1168747
  45.6061897  64.7186279  47.2368660  45.8378754  64.9598618  48.1337242
  44.6880302  64.9747391  47.1495399  71.7252350  54.1894188   6.2416272
  71.2745667  53.6703796   5.5754967  71.0682220  54.3254204   6.9243207
  77.1000290  35.1967125  51.1635399  76.9260483  35.1875839  52.1047554
  76.3590240  35.6719170  50.7876015  60.2038231  51.8150024   9.7593136
  59.6968536  51.5315742   8.9984684  59.5493317  52.1514969  10.3713923
   7.0951285   1.3986334   2.4238706   6.1485238   1.3957509   2.5658693
   7.2596612   0.6211030   1.8903843   7.6869211  36.9466553  63.5365944
   8.3872328  37.5963631  63.4759598   6.9719133  37.4056282  63.9774323
   6.5294394  39.4995842  60.9158783   6.1643610  40.1130943  61.5534935
   7.4760637  39.5522690  61.0476303  71.5708389  29.7494087  30.5952339
  70.7173996  29.4104309  30.8653450  72.1464005  28.9846497  30.6052780
  84.8897781  35.4486656  70.8076706  84.4050522  36.2580490  70.9694290
  85.6599808  35.7258377  70.3114853  42.0895233  42.7679825  22.8204479
  41.8340874  41.8842697  22.5557957  42.7239494  43.0423317  22.1582813
  58.0879784  19.0236206  50.8976173  58.5071373  19.4346809  51.6536407
  58.7943001  18.9177532  50.2603302  55.3627205   6.5577135  51.7404594
  55.1054344   6.5148630  50.8194847  55.3203926   5.6507092  52.0434189
  59.1631927  63.8023529  80.3835526  58.3441544  64.2976761  80.3914032
  59.6150208  64.0991364  79.5936127  32.3406792  71.2704468  25.4811115
  32.2440758  71.7564621  26.3000679  33.1690712  70.8006821  25.5776672
   1.4241585  68.9961700  38.0156326   1.9508193  68.2114105  38.1673546
   0.6917893  68.6930542  37.4789886  21.4622612  63.2247963  64.8398056
  21.7840633  62.4050446  64.4647217  20.8335094  62.9519234  65.5079651
   2.6769063   9.3677940  34.9464417   2.8786447   9.0936937  35.8410950
   3.1253605  10.2074947  34.8463249  85.4646759   8.5516443  74.8223495
  86.1120300   7.9719296  74.4209824  85.7949066   9.4337873  74.6520538
  15.9067955  17.9116898  74.1237717  15.9828434  18.6383533  73.5053787
  16.8110313  17.6946487  74.3506699  73.9643250  16.6871395  68.9947662
  73.5377960  16.4068012  69.8045273  74.3961105  15.8986177  68.6660995
  71.4370193  70.0822830  68.1524734  71.6438217  70.0544662  69.0866547
  71.3398209  71.0141068  67.9563141   3.1094289  27.6232758  72.1819534
   2.3028567  27.1082420  72.2023010   3.7049375  27.1590557  72.7702560
  75.5905228  17.7618675  23.4685993  74.7041626  18.1222095  23.4960289
  75.5693130  17.0268097  24.0813541   0.4980037   2.6004558  67.0214767
   0.1175298   2.8814070  67.8536682   1.4435754   2.6546478  67.1600037
  49.8231087  25.7538128  86.7321930  49.1381340  25.6132927  86.0785141
  50.3895569  24.9861469  86.6543732  65.8184357  65.9352722  39.2178459
  65.1435547  65.7592239  38.5622787  65.4567795  66.6443863  39.7494431
  67.3153305  45.1978951  63.1704941  68.2364044  44.9405556  63.2108612
  66.9838943  44.7779732  62.3767395  54.5140800  69.5268936  46.6913261
  54.1352425  70.3749161  46.9227638  54.7011871  69.1105194  47.5326653
  24.4867802   0.0003686  23.7468109  24.4808254   0.9429479  23.9133663
  25.4128151  -0.2408964  23.7688198  76.6652985  38.6138954  67.4237289
  77.3983612  38.8406410  67.9959488  76.3839645  39.4499779  67.0521927
  37.9787331  33.7001915  32.5163918  38.7064781  34.2242508  32.8510284
  37.2585831  34.3235359  32.4212227  69.3977890  45.7650642  51.0236969
  69.4272690  45.4021721  51.9089508  68.4744186  45.9728241  50.8806343
  19.1215477   2.7171347  21.8409214  18.6387005   3.1262343  21.1227798
  19.8029156   3.3515298  22.0634327  52.7893486  69.1379318  52.8240776
  52.8805313  68.6281433  53.6290817  52.7891388  68.4839325  52.1251411
  43.1164589  12.6729698  28.1134491  43.1439667  13.4015150  28.7336884
  42.9255867  13.0834885  27.2700787  83.4885864  37.9861717  21.4540730
  83.8236694  38.8546486  21.6769886  82.8378754  38.1485558  20.7711048
  83.3535385  16.2699165  22.1005363  83.4402542  16.6704464  21.2354984
  83.5566101  16.9767628  22.7132053  59.0993271  62.6767693  10.3911457
  59.1416092  61.8533020   9.9049902  58.1802063  62.9388924  10.3387861
  40.2244682  70.6922073  40.9429436  40.2019615  69.7900162  41.2619858
  40.2955055  70.6082916  39.9920807  36.1776199  56.4167404  16.5121479
  36.3092880  55.5597000  16.1067104  37.0443993  56.6655846  16.8330803
  44.5285149  71.1310043   7.2463574  43.5765610  71.1779099   7.1579442
  44.7957497  70.4676666   6.6101141  66.2915497  63.9391441  42.2215843
  65.4037857  64.1906738  41.9669571  66.2192535  63.0152969  42.4613991
  21.3905544  52.2602501  59.6287842  20.8031502  53.0135689  59.5679703
  21.6580410  52.2386627  60.5475998   0.7368902   8.4578590  33.4917145
   1.4182360   8.9224024  33.9777184   0.9310369   8.6412392  32.5725250
  16.6591988  71.1651230  38.0581360  16.8347111  71.6636200  37.2600594
  16.5642319  71.8302078  38.7399521  84.3372879  47.2984848  46.5389366
  85.2836609  47.4286613  46.5994682  84.0252228  48.0443382  46.0265427
  57.6029892  51.0148239  30.5111370  57.4231987  51.9395218  30.6809616
  57.3781662  50.8925781  29.5887794  46.5520477  47.1138573  25.4906063
  46.7217293  46.5610619  26.2533989  46.1040497  46.5371590  24.8717766
  10.4581270  61.6944084  84.8355713  11.3174696  61.7017975  85.2571182
  10.6139622  61.2921143  83.9811020  22.6084385  26.9020748  18.2644539
  23.1486282  27.6878204  18.3483047  23.1791058  26.2636204  17.8367290
  75.7278824  17.3032799  18.4227238  76.6707458  17.4681053  18.4312496
  75.5421219  16.9304218  19.2845249  65.1771164  18.9995422  20.7542725
  65.9301071  19.3002014  20.2455101  64.4433517  19.5192165  20.4260006
  55.8217621  49.7163696  51.8084106  55.0573578  49.2859001  51.4255142
  56.5149879  49.0578423  51.7635689   6.3070927  65.8435822  66.2851791
   6.4479394  65.5078049  67.1704178   7.1287594  65.6650772  65.8277588
  68.7365112  13.9052382  69.6899490  68.9382095  14.6911030  69.1820450
  68.2187653  14.2241535  70.4291763  65.5679092  32.7768097   8.8531895
  65.4098969  32.5738678   9.7751856  65.3526306  31.9675579   8.3895102
  37.6903725   5.1094208  39.7285690  38.6141548   5.2337937  39.5108795
  37.5174217   5.7531252  40.4155693  57.6675072  20.5571671   0.6325051
  56.9960632  19.9964066   0.2439902  58.1289062  19.9872608   1.2477667
  36.0220833  48.6785660   7.6512809  36.2874718  49.5660210   7.8925767
  35.1640282  48.5656433   8.0602036  35.4398918  57.5789490  11.3396606
  34.5535507  57.8912926  11.1577826  35.6988182  57.1158028  10.5429907
  37.1532059  57.5501060  77.7713318  36.3089447  57.5776711  78.2215500
  37.6080780  58.3387833  78.0668106  83.9970551   4.5023007  51.3224945
  83.0713730   4.2927475  51.1982422  84.0085373   5.1044550  52.0664787
  35.8675995  19.3803329  83.3857269  36.4766006  18.6624069  83.5587234
  35.5455360  19.2130356  82.4999924  85.2920303  34.5914001  64.5119629
  85.5558014  33.6801987  64.6398849  86.0612183  35.1013374  64.7660065
  57.1510544  37.7402229  77.4455414  57.1189995  38.6429214  77.7622986
  56.2597580  37.5593491  77.1470261   8.6649647   2.0314279  40.3190269
   8.5732956   1.1437987  40.6653557   7.9369226   2.1252086  39.7047043
  58.6199799  43.8992767   9.4895687  57.9544792  43.5231400  10.0656414
  59.4396019  43.8006248   9.9740438  26.9436455  11.7133684  85.6807251
  26.7536945  11.5896111  84.7507553  26.0894547  11.8789463  86.0796890
  41.7756500  59.4046135  32.9152527  40.8489799  59.6285973  33.0009499
  41.9235649  58.7368202  33.5848808  64.0549850  26.3859272   9.3036833
  63.2060738  26.7224216   9.0167160  63.9620781  25.4341850   9.2614250
  82.0021820  41.9249229  61.9270401  82.7387314  42.0540314  62.5245857
  81.3999023  42.6403351  62.1311760  64.0564194  57.0783501  53.9742737
  63.5726051  56.2542267  53.9197273  64.0238647  57.3142853  54.9013710
   3.8893130  11.6162348  62.0682220   4.1587620  10.8282032  61.5963783
   2.9420526  11.5227995  62.1692123  18.4084225  54.3027420  35.5089226
  18.0911007  55.1962128  35.3776131  17.9649811  53.7894058  34.8335876
  77.8798065  61.5203705  32.0753021  78.5403290  60.9457703  32.4623146
  77.8493271  62.2778931  32.6596489  60.8519096  34.2448616  43.2368317
  60.3656540  33.6007004  43.7514648  61.7525291  34.1736145  43.5531235
  51.2903175  42.0528564  84.5209122  50.3758163  42.2494202  84.7240906
  51.2973442  41.8950615  83.5768356  80.7003708  66.5210571  13.6119471
  80.5316544  67.3588791  14.0430155  81.2215881  66.7485275  12.8420000
  31.3585739  55.3860779  61.6796303  32.0613060  56.0349312  61.7169609
  30.9938068  55.4784393  60.7994919  65.5694199  31.1168003  32.8584175
  65.2488861  31.6651669  33.5745049  66.4828491  31.3798122  32.7457123
  22.4269543  25.2029762  11.7413301  22.2184849  26.0884647  12.0391254
  21.8878803  24.6327915  12.2895279  86.7937164  60.5064468  67.9583130
  86.1014938  60.0206947  67.5098572  87.4531860  60.6626930  67.2823563
  12.9668140  68.6120071  54.7618980  12.8220577  68.3360214  53.8568535
  12.8471251  69.5615463  54.7448006  35.5754929  70.1286240  88.7352448
  36.1014557  70.7833862  88.2760239  36.0408440  69.3044510  88.5923691
  16.8165340  10.7811689  41.7189407  16.2226772  11.5134363  41.5535660
  16.2546234  10.0927200  42.0746460  36.6667900   4.2103834  87.8955994
  36.8166122   4.1996598  88.8409348  36.0166321   3.5234776  87.7483292
  79.4639435   9.5945883  83.1074982  78.8390350   9.6082382  83.8324356
  79.7069092  10.5120869  82.9834137  81.6640167   8.8207417  11.7774639
  82.5086365   9.2012835  11.5365467  81.7080994   7.9190331  11.4593267
   2.3924704  18.6155281  32.3137512   3.1920173  19.1320648  32.2130241
   1.6846558  19.2582245  32.2671509  57.7727966  56.7550621  51.6301689
  56.9691086  56.6490631  51.1211624  58.2711296  55.9556808  51.4602089
   0.4034491  26.3778362  23.1078339   0.8951595  27.0918140  23.5136490
   1.0105935  25.6378326  23.1091824  34.6009407  58.5703583  40.9441719
  34.1102448  58.1309586  40.2496338  34.6514359  59.4833183  40.6609993
  51.6620216  44.6091995  73.2480087  51.5143814  45.0416946  72.4069443
  51.5762596  43.6754875  73.0555038   1.6918833  51.2283745  58.2434349
   1.7580628  50.3126602  57.9726601   2.5026295  51.6297951  57.9307289
  71.6599884  32.4890251  62.6403503  72.3192978  32.7028503  63.3005219
  70.8638992  32.9226456  62.9476700  67.1309128  13.4177294  13.6107817
  66.5170975  14.1318111  13.4388828  67.9874954  13.7775393  13.3804798
  74.3311920  27.6960106   9.1642275  73.4787521  27.4102707   9.4927521
  74.3053055  27.4990063   8.2278776  56.5862961  -0.1450162  84.3503265
  57.5080414   0.0339377  84.5363159  56.1188469   0.6098196  84.7080307
  71.3858414   1.0610908  42.3947983  70.7063141   0.4542366  42.1011887
  71.8495331   0.5860186  43.0843811  76.6656723  55.6419983   3.6883907
  75.7304764  55.7622604   3.8532403  76.8024445  56.0009880   2.8116624
  51.6862488  51.5369148  53.3802681  50.9988594  51.5150528  52.7145004
  52.4679146  51.8238564  52.9081497  81.1690063   7.1916170  28.7477016
  80.9430923   8.0461006  28.3802090  80.7738342   6.5602646  28.1464844
  84.2093124   4.3022075  83.0498123  84.1709976   3.3473072  82.9956894
  83.2950287   4.5816545  83.0026703  19.3750801  13.3289919  78.2629623
  19.3813553  12.8672180  79.1013870  19.9545670  12.8139877  77.7015381
  27.6696072  -0.2104709   6.4550848  26.9548836  -0.1960934   7.0916343
  28.0031967   0.6866996   6.4492173  49.4325562  44.5575066  27.3073540
  49.7674217  45.4176865  27.0540028  48.5115204  44.7114716  27.5176373
  47.4704437  10.6990328  21.2759609  46.9583435  10.2667332  21.9594097
  48.3789978  10.6061859  21.5625572  35.1813774  33.7904854  30.6617527
  35.1000328  34.5522423  31.2356339  34.9858780  34.1273651  29.7873821
  18.8228092  48.2491608  37.4946899  19.5704670  48.5984840  37.0097046
  18.5349903  48.9759140  38.0471611  68.3203278  65.0807190  43.7389565
  67.6814117  64.7920227  43.0872879  68.3127518  64.3917618  44.4034157
  60.5896988  13.4877987  31.8907909  60.8087730  14.3432789  31.5214767
  61.3305626  13.2751007  32.4583397  20.3319607  58.8434258  80.0416489
  20.2401314  58.7235832  79.0964279  21.2773724  58.8711243  80.1888351
  75.5443497  31.8163490  84.6171875  74.7043304  31.4340611  84.8710861
  75.8405533  32.2838783  85.3981552  44.2619934  71.3242111  31.8950462
  44.0381660  72.0574036  32.4682503  45.2171135  71.2736740  31.9326916
   4.7913918  68.6536942  35.9552612   4.4697514  69.1915359  36.6787949
   4.0277476  68.5287247  35.3918228  57.0506020  69.6940689  21.0685558
  56.9162369  69.8906555  20.1414452  56.5467644  70.3638763  21.5308819
  71.2700500  59.9569206  17.9671040  71.4871674  60.8149452  18.3316345
  71.4109802  60.0541649  17.0253429  63.9771385  64.6674881   5.3358860
  63.1450043  64.9928894   5.6792536  64.1091843  63.8305969   5.7813101
  71.1804047   9.9329481  44.8357315  70.7265167  10.2534113  44.0562935
  71.1451950   8.9795284  44.7583733  50.6420250  64.5634613   9.3171206
  50.3458672  65.3731613   9.7329359  51.3743362  64.2698441   9.8590956
  46.0195122  30.4078846  20.4579697  45.6367226  29.6082630  20.0969887
  46.7817001  30.5794029  19.9049034  34.2722473  57.6010132  23.1719513
  33.4432106  57.6644630  22.6977139  34.9034157  57.3112640  22.5132370
  44.5496445   9.2077703   6.6899276  44.9227219   8.6294270   7.3551836
  44.9025459  10.0725756   6.8992205  64.9713516  12.7403555  25.5175343
  65.9008331  12.9640141  25.5651417  64.8867950  11.9524221  26.0544186
  67.3977966  52.6462440   1.6162229  67.4502869  51.7070808   1.7935526
  66.5461502  52.9087181   1.9655521  84.3901825  33.5387306  44.8857193
  83.5070343  33.2962341  45.1640663  84.9340210  33.3918724  45.6596107
  41.8938255  33.4642143  22.4717293  42.6181870  33.6865158  21.8868237
  42.0217781  34.0263901  23.2358093   6.6762071  42.2108498  44.9121704
   6.7014103  41.5105247  45.5641975   6.4125361  42.9877739  45.4052200
  13.5529394  -0.1924261  83.8320618  13.2759571   0.5894885  83.3544464
  13.0399647  -0.1738355  84.6399918  55.4699478  45.8090057  44.6930275
  55.0425835  45.3112259  45.3900223  56.3947449  45.5718079  44.7617378
  68.7493134   5.7660756  70.7446823  69.3053818   6.3872137  71.2150040
  68.8017502   4.9605379  71.2590637  30.2150860  43.6618919  67.7356186
  30.8372440  43.0082741  67.4163513  30.4903297  43.8348732  68.6359253
  81.1647186   9.7380419  18.0858212  81.1136475  10.6933308  18.1181831
  80.3595276   9.4700050  17.6430397   2.9840560  33.5792198  56.6134872
   2.7420676  34.0882225  55.8398018   3.8845050  33.3014183  56.4454079
  68.9409943  12.1566868  17.2990627  69.5626984  11.5088148  16.9674397
  68.7258072  11.8527107  18.1808376  10.1762438  38.0833397  11.1448145
   9.6661663  38.1613922  11.9510164  10.6735249  38.8997726  11.0960293
   4.4124684  58.1982841  68.9146729   3.8502669  58.3963470  69.6636276
   5.3023849  58.2459831  69.2639618  10.8031693   0.6338340  16.5257530
  11.3319025   0.5297725  17.3168564  10.0615597   1.1720804  16.8024101
  81.7413940  16.2108192  16.2865658  81.4891739  16.0770016  17.2001896
  81.1220932  16.8636875  15.9602861  31.9732761  67.8297119  42.6104164
  31.3535576  68.3227234  43.1481209  32.5406303  68.4976730  42.2254982
  15.7693110  49.8018112   8.6621532  16.6406994  50.0271301   8.3363533
  15.1786642  50.3922195   8.1944075  12.8617859  32.8809242  37.3728905
  12.0011044  32.4760170  37.2656136  13.4817781  32.1625633  37.2471962
  49.9453011  16.3628235  85.8134995  50.5491753  17.0671749  85.5780029
  49.7062111  16.5460873  86.7220612  60.0507164  68.8759995  55.1695976
  60.8220406  68.6200943  54.6638298  59.3100929  68.6575928  54.6039124
  29.0497208  55.4202538  33.9051857  28.5667896  54.7413826  33.4338684
  28.9288330  55.2023239  34.8293762  80.1291504  38.4676247   0.2089461
  80.3907318  38.5749397  -0.7055423  80.5781784  39.1754227   0.6711467
  52.7507629  53.0680542  23.4129734  53.0440140  52.1766281  23.2243137
  53.5244331  53.5042000  23.7699661  68.1350174   8.4620380  20.6439552
  67.7253418   8.1195984  19.8495159  67.5898438   8.1295023  21.3570061
  11.6147528  48.2600594  65.3151855  11.7535763  48.3462944  66.2583313
  12.2776289  47.6302185  65.0321198  40.7243538  20.8617210  88.2927399
  41.6324692  20.6069527  88.4559937  40.3186607  20.0779934  87.9220505
  63.4914131  60.4892578  44.8717613  64.0048294  60.6967888  44.0910149
  62.6610374  60.1567421  44.5309677  47.8745575   7.6371880  20.2922249
  48.6536865   7.5394573  19.7448330  48.1935310   8.0599174  21.0895882
  60.2751579  25.5918007   5.6791906  59.5789337  26.0631905   5.2217007
  60.9006271  26.2718830   5.9292030  69.8585663  47.4158936  20.5549526
  70.1748657  47.8985138  21.3186684  70.4469986  47.6764755  19.8463840
  25.8908653   8.4212971  80.1701584  26.0520344   7.5477591  79.8135223
  25.9620266   8.3098326  81.1181793   5.6370993  39.0429306  36.2296829
   4.7215500  38.7920837  36.1068954   5.7853284  39.7325821  35.5826569
  28.2515621   4.2959747  58.5897369  28.3120270   3.5540102  57.9880180
  28.4265423   5.0622535  58.0434494  19.0067749   6.8184586   4.5774293
  18.3577785   7.3712587   5.0126858  18.7221413   5.9235668   4.7628589
  31.7151241  60.1720734   1.3773321  32.1551514  60.5063057   2.1589303
  30.8314915  60.5369148   1.4254652  34.4721222  66.8235550  15.6005859
  33.9244232  66.7388000  16.3810177  34.7041969  65.9235001  15.3719521
  20.9791965  21.7018471   7.6596117  20.4096432  22.4124756   7.9543109
  21.0467415  21.1195564   8.4163198  69.0147400  13.4799881  80.4046249
  68.2444382  14.0450907  80.4640427  69.5214462  13.8414469  79.6774216
  71.7312469  51.0215759  74.5896378  70.9490280  51.2184410  75.1050186
  72.1829681  51.8616676  74.5094986  43.5578003  35.5826454  71.5517578
  44.2863464  35.8895874  72.0914230  43.3937073  36.3004761  70.9401779
  53.6913147  18.8811474   7.7951498  53.4251518  19.2143459   6.9381971
  52.8992157  18.9354496   8.3298120  49.0837364  34.7262459   3.9272332
  48.9818306  34.8126259   4.8750658  48.2147484  34.4741745   3.6148992
  55.1166649  44.9932098  62.2058449  54.5810928  45.5554771  61.6461601
  54.4928169  44.5963554  62.8137512  81.6552658  56.4321556  78.4101257
  82.1654510  56.5845985  79.2055588  80.9524460  57.0808563  78.4483643
  62.4395142  26.6687088  40.7950630  63.3429756  26.6571617  40.4790535
  62.4637985  27.2308350  41.5694351  11.9419308  60.6797180  14.5758486
  12.6823053  61.2807236  14.6587524  11.4311638  61.0282593  13.8451843
   9.0317135   3.4709847  88.1860580   8.2606163   3.6042533  88.7373123
   9.7721176   3.6819987  88.7548370  49.0513229  65.9166412  80.9779739
  49.5939293  65.8398209  81.7627792  48.1536140  65.8264694  81.2976913
  28.2169971  34.6042862  72.0957413  28.9851894  34.9788094  71.6646423
  27.4951420  34.7770500  71.4913330  36.6644554  47.2129250  46.4364243
  35.8194695  47.6626282  46.4352074  37.1232033  47.5630379  45.6727486
  62.3931885  60.7093925  27.8997784  62.9240379  60.3093224  27.2110271
  61.9974403  59.9681320  28.3581963  26.0993042  62.1171837  84.4593887
  26.0801945  62.1379128  83.5026016  25.1825123  62.0155525  84.7151184
  22.9708996  14.1927242  21.0527020  22.6923637  14.9491434  20.5364857
  23.9272099  14.2218637  21.0235214  62.1286354  34.3763847  87.7453308
  62.5206451  34.3201332  88.6167603  62.6818848  34.9989395  87.2735519
   0.7021742  31.9596233  72.1052094   1.2000320  32.3155098  72.8412247
   1.3356749  31.9096203  71.3893814  54.3298988   2.5669613  56.7668610
  54.1914482   1.6198394  56.7717133  54.1745872   2.8270705  55.8588638
  13.5926571  16.7281857  79.5165634  14.0874605  15.9379463  79.7331848
  14.0140018  17.4214001  80.0246506  65.6995087   3.1577532  30.5238914
  65.3411255   3.3448055  29.6562481  66.2157593   2.3608067  30.4030781
  77.7475281   9.7550259  43.6120796  78.0475845   8.9633846  43.1654282
  78.4915237  10.0220633  44.1518898  37.1493111  38.0729179  30.4581032
  37.0931664  39.0280685  30.4304924  37.4508896  37.8253517  29.5840359
  16.5235138  19.0252934  58.6414223  17.0153961  19.8040695  58.9017906
  17.1869907  18.3408012  58.5548210  55.2147903  57.0330429  83.1943893
  55.1864471  57.9714165  83.0076065  56.1353874  56.7947693  83.0850372
  73.4316101  38.2049217  43.9020729  73.0486069  38.0090828  43.0469780
  74.0153046  38.9458427  43.7390518  11.7012787  24.4113312  42.9100571
  11.8668079  24.8934727  43.7202225  11.0160952  23.7839012  43.1404610
  56.4070282   6.7146893  70.8975754  56.9466476   7.4807258  71.0931091
  55.6898270   7.0568414  70.3639297  79.4359665  65.9040604  26.5198803
  80.1715164  66.5099945  26.4302158  79.0455627  66.1247482  27.3655224
  84.5166702  43.8336258  85.8641739  84.4536896  43.3843727  85.0213013
  83.8073120  44.4760742  85.8467484  73.7589722  11.4523544  27.0166225
  74.7108536  11.3680563  26.9614906  73.4338226  10.5560989  26.9315548
  27.4496174  48.3667793  27.4251289  27.4123020  47.4257355  27.2540359
  26.9022961  48.7560997  26.7431450  48.4044266  36.8202972  87.2661896
  49.1869125  36.8086586  87.8173828  48.2151794  35.8969307  87.0994186
  13.6495275  66.5219727  38.7953873  13.4274654  67.4500885  38.8696365
  13.8117714  66.3884811  37.8615265  56.0068703  23.2960758  23.0450287
  55.0547142  23.1982155  23.0521908  56.2432060  23.2714958  22.1177883
   1.1238034  24.2153301  40.4303436   0.7840826  23.6161957  39.7656174
   0.8854424  23.8087807  41.2634926  45.7499924  48.2313881   8.9852362
  45.8304901  48.8885765   8.2939663  46.6184196  47.8323822   9.0386820
  14.5934963   6.2143588  69.2718201  14.0597715   6.5840411  68.5684662
  15.4931612   6.4359622  69.0315552  29.2722225  44.8152237  11.2737188
  28.7896824  44.6962967  12.0917921  28.6106415  44.7170029  10.5889606
  70.5991592  34.5905228  24.9727020  70.3959503  35.5115967  25.1356812
  71.5101013  34.4934921  25.2501945  36.5068970  65.2337494  84.8680496
  36.7432632  64.5371399  84.2555923  36.2804909  65.9772568  84.3093262
  76.4277115  56.6414146  52.8574562  76.9267807  57.3887444  53.1870995
  76.9380188  56.3221436  52.1132202  71.5464401  51.1664734  37.5878830
  71.3610229  52.1052322  37.6120300  72.2258987  51.0394249  38.2500191
  38.4149361  52.2037392  58.7769432  38.4238472  51.3223343  59.1501427
  37.7438278  52.1684532  58.0953293  23.1542244  65.6673508  87.0454483
  23.8433018  66.0342331  87.5993500  23.1741581  64.7280960  87.2288742
  53.8432350  27.4304123  20.2032375  53.7340279  26.5007515  20.0031433
  53.5578461  27.8815498  19.4087181  28.2373848  63.6700325  84.7456741
  27.7310772  64.4290543  85.0351105  27.5971546  63.1066856  84.3109589
   8.3109188  29.8289413  52.6428604   8.8604116  30.5830631  52.8563843
   7.5441127  30.2058430  52.2113647  51.4977570  48.7332382  34.1920357
  51.7308998  49.4188614  33.5660973  51.9947472  47.9673653  33.9045143
  83.0639420  33.0402489  73.7975693  82.4821548  32.4253387  73.3507614
  83.7500916  33.2290382  73.1574173  11.6971054  68.1232452  79.2543640
  10.9714746  68.7415924  79.3400116  11.7641172  67.9614563  78.3133163
  63.1622429  70.5776367  21.2022686  62.2068863  70.5566177  21.2578468
  63.4376144  71.0484314  21.9888783  43.5975571   7.4422083  68.1306839
  43.3097305   6.8837671  67.4085159  44.1591911   6.8771472  68.6612549
  64.8804398  22.9615555  40.0515900  64.6640320  22.8852882  39.1222992
  65.7584305  22.5873241  40.1245422  24.5611343  18.1669636  82.9866638
  23.8039780  18.1247540  82.4025726  25.0278683  17.3454170  82.8335190
  59.4234810  40.0088882  31.2686691  58.6378250  39.6353874  31.6680107
  59.8513145  39.2665215  30.8419514   9.7235355  34.4968948   7.9444528
   9.1769714  35.2027817   7.5991693  10.6017723  34.8747673   7.9907441
  30.7225170  63.0507088  83.2148514  30.6421986  62.1329269  83.4745712
  30.0193787  63.4958763  83.6877747  50.2359581  53.3209801  78.6838455
  49.7506638  54.0091476  78.2287064  50.8287430  52.9672890  78.0207138
  50.5938759  16.5507870   9.9862309  50.8458748  16.4214306   9.0719023
  49.9950790  17.2972984   9.9663248  35.3221245   8.5725784   9.9695797
  34.8850594   9.3331366  10.3526659  35.0393867   7.8358040  10.5112925
  16.1209641   1.7399666   4.2377281  16.5641422   2.3374474   3.6353652
  15.8641634   2.2916465   4.9766021  80.5574036  30.7210941  15.0476665
  80.0258408  30.6995583  15.8434086  80.8639450  31.6259708  14.9888220
  45.5998573  44.8544655  72.2472076  46.5261154  44.8800812  72.4872589
  45.3339767  43.9502907  72.4145737  27.0724506  66.0966492  48.9220009
  27.3423195  66.3662643  48.0441017  26.9342251  65.1521759  48.8505898
  79.5373688  21.9552269   0.9752367  79.4049530  22.9025288   0.9388990
  78.9786377  21.6084328   0.2796886  62.8155556  65.5845871  11.7307119
  62.4117126  65.2481155  12.5306673  63.5876541  65.0336151  11.6021538
  48.7349663  68.2743073  17.8072262  48.1873016  68.5727768  18.5333176
  48.9504433  67.3678513  18.0266228  72.7339325  29.7443619   6.7711310
  73.2690811  30.4809284   7.0666270  72.4189758  30.0087128   5.9067526
  17.5919456  25.1574783  59.2393684  17.5858250  25.5121918  58.3503380
  17.5457783  25.9282322  59.8050880  44.7827759  47.4499512  72.5104904
  44.8601112  46.5182915  72.3049011  43.8399162  47.6056747  72.5652695
  10.6341782  42.3662338  84.4731750   9.7730560  42.4312515  84.0602951
  10.4449978  42.2302589  85.4015961  39.7193184  66.0747299  25.2450371
  38.7876740  66.2364883  25.3937187  40.1423988  66.3450699  26.0599918
  76.1226273  18.8298149  87.4048233  75.6299973  18.6787872  88.2115097
  76.5217514  17.9828701  87.2057953   3.5395029  25.5587101   2.8845665
   2.9015851  25.0472469   3.3822606   3.1856103  25.5832386   1.9955275
  27.2371864   5.3728724  34.4170151  26.7150440   5.2252712  33.6284637
  26.6069736   5.6840806  35.0667953  80.1542969  43.1912117  87.3674011
  79.8985901  44.1134224  87.3480682  80.3520279  42.9783249  86.4553604
  37.7128716  32.8186073  18.1220531  38.4393234  32.4720879  18.6401501
  37.6926155  32.2677383  17.3395138  18.9343300  68.0175018  34.2243271
  19.7933922  67.7993088  33.8628960  19.1196632  68.6537094  34.9150696
  40.6698952  52.9462395  25.4169502  41.3329163  52.2587929  25.4805946
  40.5922661  53.1179771  24.4784870  81.1832962  47.0107384  30.1752625
  81.1253738  47.9079399  29.8467731  80.5258942  46.9669914  30.8696251
  66.1870270  44.3711052  45.9280472  65.3404846  44.2748642  46.3643150
  65.9673386  44.6337967  45.0342026  85.9083786  41.9293747   8.1751423
  86.8513718  42.0127831   8.0335417  85.7049637  41.0321045   7.9110217
  28.5452194  56.9034157  19.7749653  27.9631157  56.9057922  19.0151100
  29.4186649  56.7691460  19.4071407  30.8657131  52.1315155  77.0160446
  31.7733021  51.9209366  77.2355270  30.4525928  52.3183403  77.8590469
  72.1744385  42.6212616  18.5469265  71.9080353  43.3724098  19.0770569
  71.5187988  41.9500084  18.7360973  30.3924713  37.6994820   2.9108691
  30.6230145  38.6158867   3.0634499  29.4419212  37.7071495   2.7984881
  20.0293293  34.1954727  23.3946457  19.4145031  34.8784294  23.1267052
  19.4779320  33.5146942  23.7803059  43.1746216  61.6312141  83.0129852
  43.6964951  60.8616180  82.7858276  42.3484077  61.5066872  82.5459747
  83.4967041  38.6230736  79.0592499  83.3233185  39.5615463  78.9855423
  82.6289825  38.2228241  79.1147766   8.7912245  49.3254890  88.0102844
   8.8462353  49.6080704  88.9231644   7.9416590  49.6487083  87.7102890
  65.7530060  12.3228941   9.8970375  65.0834274  12.9578362  10.1514826
  66.5393677  12.8491068   9.7522383  45.5052185  39.5615234   4.4835796
  46.1819496  39.7975426   5.1180573  45.9758148  39.0916939   3.7950795
  59.8032608  62.7745171  86.9306335  60.0506516  62.7492409  86.0062943
  60.6348076  62.7284317  87.4024734  79.6447296   3.3155036  76.1797943
  78.7424545   3.0488057  76.0037003  80.1612396   2.5225151  76.0362015
  23.7294216  32.0315208  18.6397305  24.2443485  31.7195015  19.3838596
  23.4968452  32.9310875  18.8697720  52.8969688  61.1182251  58.5436440
  53.2224197  60.7082863  59.3450584  53.5325050  60.8697472  57.8723869
  57.4822731   4.8026257   8.8168049  57.1596603   3.9250834   9.0219193
  58.0255623   4.6821113   8.0379944  13.6214437  23.0991058  24.3400040
  13.7300329  23.8033581  24.9791203  12.6756067  23.0426254  24.2042274
  35.9386368  33.1181183  50.0772324  36.8308067  33.0159111  49.7458496
  35.7160721  32.2586174  50.4349442  77.6182327  30.1345520  47.9685135
  77.4280396  30.8125229  48.6169052  78.5537643  29.9602451  48.0716095
  31.6617603   0.0130986   1.4422562  31.8588257   0.8377592   1.8864769
  30.9914780   0.2420807   0.7984232  70.0592117  13.8921614  37.2373695
  69.9966202  14.1180029  38.1654396  70.9252396  14.2026930  36.9731789
  73.0537491  19.0548267  56.8544235  72.6987839  18.7868252  56.0068359
  72.8120575  19.9775543  56.9343681  71.3378448   2.3289578  33.2828293
  72.0772324   1.7304809  33.3894196  70.8611145   2.2705231  34.1108055
  76.8452835   8.4815588  36.0858841  76.0058594   8.4692020  36.5457191
  76.6198425   8.7001295  35.1816483   1.9961549  46.4201469  88.8741989
   1.3950534  45.9839325  89.4780350   1.4257808  46.8961983  88.2706375
  19.2386856  48.0444832  27.1389008  18.5880089  47.3894997  27.3915882
  19.5644245  47.7436409  26.2905979  57.2861366  48.5223541  80.6278000
  56.8224525  49.0702209  79.9944992  56.5997162  48.1946716  81.2089005
  39.6636848  18.4524002  22.3838234  40.2062492  17.6639652  22.3688965
  39.7941856  18.8492889  21.5226135  75.6116333  54.8887482  28.3020077
  75.2444534  55.7394562  28.0617867  75.4524689  54.3347626  27.5378113
  83.6613617  36.2513313  23.8987579  84.5647888  36.0394783  23.6638641
  83.5620499  37.1732750  23.6612892  15.7496042  58.2634010  26.0784264
  16.1350212  57.3896294  26.1433029  15.8363199  58.4953766  25.1538181
   1.4200675  37.7579460  15.0211239   1.9892284  37.0243340  15.2537241
   1.7946539  38.1042747  14.2112036   8.9948444   4.4981146  77.5831680
   9.1557169   4.6844239  76.6581573   9.6664362   3.8580966  77.8189011
   6.6159654  20.0019226  49.6954269   6.4859138  19.0548077  49.6475677
   7.5390630  20.1055546  49.9264755  18.8920498  37.4338074  10.1380024
  18.6801300  36.8477478   9.4114647  19.3334236  38.1764336   9.7257776
  82.0274429  41.3484268  68.1516190  81.9013824  40.4327774  68.4004745
  82.3006058  41.7810631  68.9605942  15.8311357  15.1035919  49.1997757
  14.9037008  14.9725628  49.3970795  16.1123714  15.7839174  49.8115730
  65.4201736  68.5932465  40.8234406  64.5575943  68.6319275  40.4103012
  65.2464676  68.7337799  41.7542000   8.8583250  62.2960701  14.3363466
   8.1550131  62.7798157  14.7694483   9.6427011  62.8216362  14.4937315
  47.1991959  25.5005035  16.9599304  46.3871193  25.9527702  17.1884537
  47.8308640  26.2037868  16.8095322  30.6473446   1.9228739  59.4804382
  30.0059280   1.2164770  59.5567207  30.6755257   2.1207418  58.5443344
  67.8837509  29.6223297   8.6561146  66.9569855  29.7951889   8.8218155
  67.9053879  29.2617435   7.7696943  69.6859970  53.3004875  64.8185272
  69.0414352  53.7348328  64.2598495  69.6185608  53.7536087  65.6589813
  75.1447983  58.1572113  43.2559891  75.5888214  58.8922958  43.6787453
  75.4129333  58.2109146  42.3386841  70.4518509  22.0370197  40.8851700
  70.9545593  22.8183784  40.6549606  69.5655289  22.2224197  40.5748596
  74.9102478  41.4853134  83.5566559  74.4056854  42.2795181  83.7323990
  75.8236618  41.7570877  83.6463852  82.3477859  50.8703384  31.8209381
  82.3786545  50.3732605  32.6383705  81.7629852  51.6044312  32.0089607
  60.9405479  24.3986492  62.8453217  61.0589485  25.1671085  62.2870369
  60.6360168  23.7142849  62.2493858  28.2251911  67.5458603  88.1319885
  28.6834927  68.2300339  88.6199417  28.0773048  66.8517380  88.7742920
  83.2867508  17.6162453  27.6038589  83.2470245  17.2386265  28.4825268
  83.9264832  17.0762348  27.1397896  15.9254532  38.5721359   2.5668170
  15.3290224  39.0243073   3.1635096  16.7805538  38.6306572   2.9929752
  69.1145477  27.1005135  73.4779282  70.0074844  27.1469727  73.1362686
  68.7086105  26.3836536  72.9905319  37.1142387  41.7902184  77.7857742
  37.2240334  42.6293678  78.2329941  37.3317947  41.9754257  76.8722076
  38.9180107  17.9645920   4.3705506  38.7968903  17.0862122   4.0099807
  38.6493835  18.5524597   3.6645174  51.5587006  66.0396881  77.6863861
  52.3250084  66.2214584  78.2304001  51.9088440  65.9570160  76.7993698
   9.4086981  38.9272995  48.9073792  10.3055058  39.2597618  48.9452896
   9.0737801  39.0396996  49.7970009  71.7357941   1.6652631  22.6696835
  71.0981293   2.3289394  22.4067307  71.3342819   1.2325968  23.4232197
  43.9830933  17.2125340  10.1212530  43.1542282  16.7796497   9.9167261
  43.8354645  17.6220264  10.9737520  30.8889637  26.8022518   8.3194094
  31.6408634  26.2275600   8.4629698  30.5242901  26.9423485   9.1932621
  72.0744934  49.2970619  54.2429810  72.3476105  49.3995895  55.1546440
  72.6344833  49.9014435  53.7557716  56.3278313  15.8095350  77.7319641
  56.5500298  16.5053043  78.3506470  56.6119690  16.1452599  76.8817978
  13.5860586  57.8378105  61.0284843  12.9316463  57.8100204  61.7264862
  13.9132586  56.9401054  60.9710579  49.6619415  47.9309845  48.1513405
  49.8696709  48.8653717  48.1503906  50.4924202  47.5012054  48.3558502
  66.4311218   9.0174322  40.5213051  66.4022980   9.8418446  41.0068436
  65.7761765   9.1228437  39.8312607  41.6821899  60.9407310  11.3835201
  41.4936905  61.4937668  10.6253319  41.7705040  61.5551834  12.1121368
  45.7612801  13.9307356  22.3681431  45.9807663  14.8413477  22.1710587
  46.6081467  13.5000448  22.4845695  49.7188721   1.9105598  88.7775040
  49.7312317   2.8358004  89.0224686  49.2866936   1.4741660  89.5116806
  29.2181721  26.5397663  21.0453415  29.2293510  26.5894356  22.0011864
  29.0721931  25.6130371  20.8553543  61.0352783  34.1936874  77.6842117
  60.3629417  34.7369652  77.2730637  61.8543854  34.4790268  77.2793961
  14.4731140  45.9863129  81.2475891  14.8539286  45.1674461  81.5648804
  13.5419950  45.9146500  81.4576187  66.9642029  45.2846069  13.7836599
  67.5667419  46.0116119  13.9406309  66.9814911  45.1598053  12.8347883
  61.6458282  40.8005981  55.0991325  61.1512260  40.3538361  55.7861557
  62.5036621  40.9657402  55.4903908  72.5871506  56.4945183  76.3603592
  71.9536743  56.1195259  76.9721756  72.0849533  56.6487694  75.5602112
  40.5036163  38.7227287  10.8984966  40.9697456  38.4116249  10.1224985
  39.6994476  38.2039490  10.9188681  18.0008717  19.1708851  55.6958809
  17.8774109  18.2252235  55.7778282  17.1400146  19.5424061  55.8885765
  60.0135880  29.9450016  34.1895409  60.9670258  29.8604469  34.1835823
  59.7282982  29.4955082  33.3940544   0.3830527  43.9695740  24.7504711
  -0.0625277  44.8125763  24.8343391   1.2245216  44.1825294  24.3469715
  38.8141632  21.1831913   7.8528295  39.2444382  22.0370197   7.8983912
  39.1479836  20.7894745   7.0467381  72.5104218  71.4531708  44.7716599
  72.9471893  70.6092606  44.8869019  71.6863251  71.3636856  45.2502861
  30.8182278  68.2326355  34.2263603  30.9824200  67.7361145  35.0280724
  30.6675301  69.1290131  34.5264091  65.6656876  24.2276573  57.3679352
  66.2468567  24.7993069  57.8696213  65.9019241  24.3882103  56.4543457
  72.1590118  19.5037365  49.1298180  71.4636536  19.3772774  48.4842796
  72.3126755  18.6305084  49.4904976  82.7075348  43.5517426  59.6928062
  82.4715576  42.7438431  60.1487083  83.6013718  43.7369843  59.9808502
  74.8062592  69.1096344  58.0167580  75.7239761  68.8754807  58.1553345
  74.3700867  68.2757416  57.8418083  15.5369091  26.1243801  24.3478107
  15.7029505  26.0701942  25.2889423  14.6744232  26.5339489  24.2799568
  45.5453529  29.3575764  74.5441360  46.3174706  29.4510117  73.9861603
  45.2812653  28.4438381  74.4365692  79.4734421  45.8360901  87.0709991
  79.2988510  46.3009605  86.2526779  78.6910934  45.9842339  87.6022339
  64.6275482   5.0575914  50.0037346  64.4169464   5.4842525  50.8343010
  64.3091812   5.6642933  49.3353157  31.4263420  30.7306671   1.9815589
  31.8490124  31.4085331   2.5088925  31.1275043  30.0825653   2.6194389
  20.3143349  54.7495956  47.8905640  20.2428818  53.8737183  47.5111351
  19.7226696  54.7337303  48.6428337  19.7447205   4.2601190  83.0444336
  20.4250622   3.6022222  82.9011154  19.9966183   4.6911726  83.8611145
  57.1100731  43.4140358  11.7883720  57.7734985  43.8863029  12.2914257
  56.4612350  43.1466599  12.4393330  65.0004272  47.1617928  60.4250717
  64.7274857  47.3864250  59.5355339  65.9503174  47.2798347  60.4211502
  11.1690712  16.9793835  82.0826416  11.7217627  16.4800396  82.6838226
  11.2538605  17.8863506  82.3766708  23.9056053  43.5250931  74.5453186
  22.9988403  43.2196045  74.5715179  24.3240643  42.9765816  73.8818054
  70.6353073  43.9276237   8.2062635  70.2847900  43.3163147   7.5584416
  70.7994461  44.7313194   7.7129493  63.7433167  55.0498543  42.6587181
  63.9870872  54.9596748  43.5799561  62.8534126  55.4017906  42.6797867
  40.8963661  16.4420376  73.8172455  40.4734306  16.4517632  72.9586029
  41.6299706  17.0506496  73.7297897  67.5701752  14.3031540  32.6418800
  67.0017700  14.0621481  33.3733597  68.4166718  14.4899931  33.0477982
   1.0932198  62.7234421   7.4970064   1.5316577  62.9360313   6.6731067
   1.5412253  61.9379997   7.8110108  17.6638031  66.3426056  29.4410648
  18.0362759  67.1175156  29.0203342  18.4071999  65.9262314  29.8772106
  77.8100357  67.4393997   3.6750815  78.3830261  67.4727859   2.9090583
  78.2107620  66.7834778   4.2455292  60.5327606  13.7002945   9.0109682
  61.0706329  14.4655895   9.2140579  59.6511307  14.0526533   8.8892775
  20.4958115  46.0814590  87.7621765  20.7626209  46.6141853  88.5113373
  21.3079586  45.6813545  87.4514236  85.1592789  35.9175835  85.1216202
  84.3326492  35.6237183  85.5044403  85.0674210  35.7373466  84.1860352
  54.8518524  10.6112232  65.4237595  54.9590607  10.9308424  66.3196259
  55.3312416  11.2412395  64.8857040  22.0427265  13.7795734  63.5935249
  22.8351593  13.9520321  64.1019974  22.2225246  14.1595306  62.7335625
  38.8747940  49.2922783  11.5626411  39.6415176  48.7198029  11.5879107
  38.5491943  49.2170792  10.6656666  43.3322906  68.4174194  40.2261391
  42.5531311  68.4179916  40.7821388  43.7702026  69.2446289  40.4266319
  62.2272835  52.1248474  36.8615761  63.1422539  52.4056396  36.8764191
  61.7715034  52.7646255  37.4085503   4.4262471   2.5381970  31.3801422
   5.1381950   3.0003901  30.9377174   4.8367648   1.7498097  31.7353210
  75.8953781  67.7758636  49.9357224  75.5104218  67.1250229  50.5226173
  76.3126297  67.2595062  49.2461548   3.0702863   4.6378961  15.7942219
   3.4919751   4.3084774  15.0005636   3.4407744   4.1078587  16.4999352
  69.9235535  44.3402100  53.3253212  69.4417419  44.0363922  54.0946007
  70.7770615  44.6065941  53.6670723  45.7900734   7.0667896  69.7791748
  46.3228073   7.8296075  70.0039673  46.4220734   6.4129019  69.4804459
  41.1956940   0.9030649  35.0864525  41.2659416   0.0172998  34.7304802
  41.2837868   0.7886021  36.0326920  47.0117035   3.0316660  32.1192741
  47.4618187   2.1965075  32.2463074  46.8952141   3.3779678  33.0039978
  79.9523468  54.2437553  52.7906990  79.6007843  53.8999634  53.6119461
  80.9008942  54.2473335  52.9190941   7.0893359  18.3510513  43.8488617
   7.2718425  19.1763973  44.2980042   7.1594996  18.5641460  42.9183235
  76.1247940   7.4743724   9.8687172  76.9034348   7.9482346   9.5764723
  75.6719894   7.2357450   9.0598555  17.2159462  15.8060188  13.1002350
  17.9166946  15.7824049  12.4486008  16.4097118  15.7533751  12.5869656
  46.2373772  12.3028727  52.0369911  45.5154190  12.1462374  51.4283295
  46.8624649  12.8278656  51.5371132  56.4941978  36.0283318  32.3180084
  56.6903610  36.9532127  32.1685143  56.9705963  35.8088303  33.1186943
  46.9632530  47.1470451  47.1309967  47.5711555  46.7962151  47.7818451
  47.3252335  46.8676796  46.2900696  59.4944038  27.8140144  79.4146118
  60.4476357  27.7600555  79.4829559  59.3336906  28.0752449  78.5078812
  29.9360447  60.0168304  70.8589706  30.4735832  59.9100876  70.0741806
  29.8442097  59.1305695  71.2087479  29.9097233  56.5530090  14.5333672
  30.2380581  55.8642464  13.9554100  30.5299435  56.5699043  15.2622528
  77.0064621  11.5763369  82.7405701  77.1962128  11.5287447  81.8035736
  76.2891769  12.2065668  82.8079758  15.4977264  41.6478119  20.5398884
  15.3051176  40.7104721  20.5628128  15.0129881  42.0101433  21.2814922
  44.1515884  70.8180161   2.8412907  43.7795830  71.5576019   3.3217630
  43.5528030  70.6841354   2.1066027  23.3794937  66.8921890  79.9507370
  24.0634785  67.5366058  79.7687454  23.2989635  66.8912659  80.9045486
  53.6570854  62.1142540  89.3526840  54.1132965  61.3012390  89.5697403
  53.4911308  62.0519867  88.4120331  59.9414558  48.1993523  74.2315979
  60.1101646  47.3666687  73.7906799  59.5394211  47.9522438  75.0643845
  63.0208855  30.7547550  38.4448853  63.8283844  30.2504406  38.5440941
  62.3241920  30.0988617  38.4705124  31.0139294   5.9595990  84.7233276
  31.4513092   6.2761760  85.5137100  31.4813156   5.1556101  84.4966507
  10.2131014  24.9060364  23.7859097  10.7236452  24.1269341  23.5655098
   9.5415087  24.5893250  24.3899708   9.7678452  17.5428314  20.8482857
  10.3110399  17.8781738  21.5615311   9.2260609  18.2881489  20.5890465
  15.6297493  18.8981152  83.8346405  14.8290691  19.4020329  83.9802780
  16.0864353  18.9258022  84.6754150  39.5878754  62.0326576  84.4532623
  39.6903419  61.8917809  83.5120468  39.0806541  61.2788391  84.7544556
  69.4014359  58.6536484  55.0092125  68.5941315  59.1597252  54.9176788
  69.8725052  59.0814247  55.7242889  10.8762140  56.6743011  56.1434174
  11.8166656  56.7742844  55.9958191  10.8117561  56.2524681  57.0002327
  26.2743282  23.8858166  80.1406784  26.1455917  24.5191898  79.4346313
  26.2392273  23.0332375  79.7069626  65.1296234  51.5955658  67.8751984
  64.2606049  51.3543587  68.1958923  65.6617126  50.8118553  68.0127029
  21.5527210  43.5438690  73.1553268  21.7241745  44.2424011  72.5237503
  21.4676132  42.7539101  72.6215210   4.8683772   6.5434380  18.6549072
   3.9157732   6.5315466  18.5619774   5.0481963   7.3241296  19.1787548
  30.6865387  25.9047260  23.9994526  31.3638840  25.5214386  24.5567017
  30.1767902  25.1551304  23.6920567  57.8211212  18.3646088  22.9280872
  57.8925400  17.8996391  23.7617149  57.6202202  17.6809502  22.2889614
   5.0493717  40.2385216  30.6971264   4.4740815  40.9733887  30.4844246
   5.4930983  40.0355644  29.8736286  86.0067749  25.4174118  17.8011684
  85.3474655  25.7864819  17.2135201  85.5344391  24.7545853  18.3049469
  39.3458214  18.1744118  87.4599991  38.7362213  18.5152740  86.8054504
  39.0237045  17.2936325  87.6515732  13.9355316  69.8644333  88.1895828
  13.2089205  70.2503510  87.7003632  14.2685881  70.5814743  88.7291718
  66.2285233  12.3590899   2.7011788  66.9291382  12.5517159   3.3242853
  65.4518509  12.7717543   3.0789630  74.8065796  25.1531162  10.8819571
  75.0079422  26.0824871  10.9912958  74.2537766  24.9378262  11.6331520
  24.2450981  34.9608040  83.3219681  25.1139469  34.6169128  83.5295105
  23.6607075  34.2087708  83.4177017  14.8542032  17.5386524  23.5543556
  15.0442696  16.6005135  23.5546780  15.6225395  17.9388351  23.9614754
  57.6417732  13.9738798  73.6112747  57.7687836  14.9168329  73.7158661
  57.9109535  13.6013575  74.4509201   9.5083265  35.3795967  16.4931469
   8.8083982  35.9837112  16.2454071   9.1105146  34.5115852  16.4258232
   5.8675861  46.9362106  75.5510635   5.8796220  46.3734741  76.3252792
   5.0156326  46.7701912  75.1475220   7.5628815   6.3234234  73.7509460
   6.6201320   6.3776426  73.9075241   7.8106732   7.2053237  73.4733124
  51.2240524  64.3317719  85.8649292  52.1208992  64.2761917  86.1947937
  50.6796761  64.3447342  86.6521454  48.4736290  49.3003006  61.6984863
  47.8749352  49.8801460  61.2277641  47.9003296  48.7050858  62.1814766
  61.6133575  50.7893295  23.7862511  62.3415146  51.3129120  24.1207371
  62.0224152  50.1662216  23.1857166  21.8063641   6.9405146  87.1574783
  21.9028072   7.5261817  87.9084244  22.5489941   6.3403559  87.2248764
   2.3448963  67.5126266  46.9286537   2.6324332  67.7460861  46.0460167
   1.9451264  66.6485596  46.8296165   0.6474336  30.3284988  26.1923409
   0.4297248  29.5650997  26.7271824   0.8309989  29.9685287  25.3246098
  22.0614281  32.2715187  66.4321594  21.9251862  32.5832443  67.3268661
  22.7488899  31.6101494  66.5110321  19.2510624  13.1735582  25.8000336
  19.2783546  13.0159893  24.8562870  18.5853367  13.8524303  25.9103622
  27.4898453  34.8306961  78.7238464  26.5381241  34.8806419  78.8130951
  27.8090305  34.7219391  79.6196899  16.5291557  13.1200800  72.7898026
  15.7369862  13.3453817  73.2775879  17.2468128  13.3388739  73.3842163
  23.3608818  66.8424835   8.9440250  24.0912533  66.2328949   9.0497913
  22.9176922  66.8347702   9.7924089  30.0971336  59.5616760   4.8567781
  30.0856018  59.7151260   3.9120286  29.2189922  59.2379837   5.0575891
   6.2887878  69.9675140  30.9508209   6.6609473  69.0978241  31.0970135
   6.0323396  70.2679443  31.8227196  27.6744728   9.1367655  45.7631149
  27.0208111   8.6498518  45.2612419  28.5054016   8.9360485  45.3324165
  42.4164505  22.1899433  72.0546951  42.1804199  21.8550510  71.1896133
  43.0021210  21.5252686  72.4172211  68.6218185  15.8799992  44.5579224
  68.2370300  16.6787453  44.9187241  67.9096451  15.2407560  44.5781479
  61.4442444  12.7327423  72.3804016  61.1752625  12.9582043  73.2709351
  60.6319847  12.4798183  71.9416580  72.8803864  52.8032417  22.9149990
  73.8336029  52.8792191  22.8721085  72.5769196  53.6934700  23.0928516
  44.1538010  35.0457611  86.4610901  44.6822052  34.4410934  85.9401398
  44.7387810  35.7819862  86.6399841  55.1409874   4.7706542  22.4720230
  55.4310417   5.0777583  23.3309669  55.3854980   3.8453991  22.4533558
  67.9699860  38.8278770  26.2128468  67.7790222  39.4333801  25.4965172
  67.2118225  38.2442818  26.2417126  15.8739605   6.2264471  60.9596519
  15.2142525   6.9199462  60.9684410  15.8419580   5.8542457  61.8409424
  27.6817417  16.1077213  14.6396923  26.7438354  16.1871395  14.4657459
  27.7561512  16.1833344  15.5909958  34.7802467  40.2047310   8.7427139
  35.3712158  40.8514328   9.1284142  34.8424225  39.4467506   9.3239460
  50.4422035  50.3975410  47.5752716  51.1478882  50.9745483  47.8673363
  50.5717545  50.3202248  46.6300354  80.7120514  21.8393230  47.1778259
  80.5902786  22.7847099  47.0903931  79.8758316  21.4636383  46.9024544
  27.2483635   5.5840530  61.4907875  28.1952744   5.4981966  61.6013298
  27.0846329   5.2933979  60.5935974  54.6873627  56.7552452  30.4399166
  54.0821877  57.3660736  30.8604927  55.5523262  57.1406517  30.5796719
  71.8554840  59.9281502  68.8782349  71.8975830  59.0701180  68.4560471
  71.7626495  60.5471306  68.1540298  29.1099033   8.1555099  84.5732269
  29.5189743   7.2908568  84.6088333  29.3334274   8.5609083  85.4110336
   1.9902408  40.4621429  80.1113510   1.7064635  40.1801720  79.2417526
   1.9733033  39.6639175  80.6393433  71.1072083   0.9716480  76.8795853
  71.9265518   0.6887448  76.4735489  71.2388458   0.8200239  77.8154907
  70.0634384  22.9197826  15.2530556  70.2340469  23.3691864  14.4253111
  70.9071350  22.5393982  15.4974041  19.9404869  16.9447994  63.7007179
  20.7141247  16.4757919  64.0133667  19.9030418  17.7330208  64.2425079
  84.8104706  53.9015388  23.5934544  84.0259399  54.0619469  24.1178780
  85.2836304  54.7334595  23.6096554   5.9031076  17.1773052  23.4203968
   6.7140603  16.7582054  23.7083950   5.2555475  16.9231319  24.0778866
  65.0301666  57.0014648  73.1690369  65.9040833  56.6440849  73.0116501
  64.7132950  56.5290833  73.9388962  69.2252274   0.6491515  14.7198563
  68.6548157   1.0033066  15.4020824  69.4587479  -0.2248068  15.0327425
  40.2303886  42.4605484  24.9090767  40.5654106  42.6825027  24.0403233
  39.2854195  42.5983810  24.8437767   9.6854849  35.4518013  69.3558426
   9.3294859  36.3357124  69.4463882  10.4362478  35.5547104  68.7710419
  66.0861969  36.8817940  62.3775215  66.1390152  37.5106964  63.0971909
  66.9368973  36.9430199  61.9430199  28.1582642  24.7973099  67.3228073
  27.2415543  25.0437183  67.1996918  28.6461906  25.6069565  67.1723709
  13.5740833  10.1843100  11.4603329  13.5300169  10.4482145  12.3793774
  14.5108547  10.1362095  11.2696056  77.4672699  63.2939186  47.0647545
  77.2430420  63.6045418  46.1875610  76.6558228  62.9107094  47.3978310
  53.3737984   9.9528599  12.6811209  53.5749054  10.7644787  12.2152214
  53.8246803  10.0407238  13.5208921  55.5729790   6.1867766  78.1403580
  55.3603287   5.6616898  78.9119110  56.5192833   6.3201046  78.1947632
  83.3702087  57.9957809  63.0393982  83.3337326  58.4465065  63.8830490
  84.2999649  57.8110504  62.9065399  24.0956955  69.0039597  41.5898094
  24.6795158  68.6796951  42.2755470  23.5224800  68.2630310  41.3931389
  58.9560165  21.8312206   4.8084273  58.3696594  22.4119682   4.3235078
  59.6263046  21.5819569   4.1721792   1.9769230  32.1719704  54.0072746
   1.2984779  31.5195885  54.1814728   1.7099527  32.9370728  54.5167618
  51.5197678   1.1162674  86.6947937  52.3821220   1.0728467  87.1079407
  50.9153671   1.2803113  87.4186859  75.7127151  60.0732956  31.1015339
  76.2459869  59.5622673  30.4926777  76.3041916  60.7522011  31.4263039
  72.3386078  28.6679573  85.6986465  73.0005188  28.0083885  85.9061890
  72.7634964  29.5032616  85.8935089  66.3086090  15.6840849  82.5439606
  65.8903656  15.6951704  83.4048843  66.6241226  16.5791683  82.4194183
  19.1716022  53.0194206   5.1871085  19.6476460  53.3831558   5.9336405
  19.8146820  52.4718475   4.7367272  26.4863739  51.4703331  88.0053558
  27.2447014  51.3914680  87.4266052  25.7311306  51.3991508  87.4216003
  61.0892448  33.2501869  53.8298988  60.4852295  32.5445824  54.0612373
  60.5492058  33.8815231  53.3545036  16.8775158  63.2281570  87.2848511
  16.6785126  63.3522949  86.3568344  16.4159660  62.4242096  87.5233307
  76.3117371  11.4438467  86.8050995  75.7717133  12.2209549  86.9490128
  77.2008743  11.7272663  87.0180359  73.0811768  38.0587654  70.2036057
  72.5713654  37.9414177  71.0052032  72.4658279  38.4500008  69.5835114
  22.3425045   4.8328724   9.9824123  22.0217457   5.5596070   9.4483681
  23.2923985   4.8509359   9.8657589  57.1296806  44.5980530  78.2376328
  57.7817039  44.0119781  78.6218338  57.3080826  44.5714569  77.2975769
  59.0838966  34.3199272  70.8703842  58.1502609  34.1600037  70.7326202
  59.1387062  35.2520447  71.0810623   0.9716664  14.6312189  36.3584976
   0.9479411  13.7412376  36.0069275   0.9372160  14.5146761  37.3079529
  69.7182312  11.5832119  60.7093658  70.5258255  11.0777702  60.8018379
  69.0232010  10.9700346  60.9484978  43.5597992  50.9541779  82.8693390
  44.0492249  51.7266235  82.5864563  43.3027420  50.5219841  82.0548706
  76.2529449  28.3047390  80.2721252  75.5974197  27.6705627  80.5625458
  77.0702591  28.0029583  80.6685562  54.0914116  26.4768333  69.0226669
  53.3009987  26.9915848  69.1854782  53.8415222  25.5788593  69.2404556
  67.2313232  28.1979790  13.7462082  66.7869263  27.4577961  13.3328419
  67.1803207  28.9003754  13.0979252  23.4767857  53.2668991  58.2210350
  23.1888638  53.4010391  57.3180733  22.7206764  52.8747330  58.6577682
   4.7005444  37.0715904  55.2602119   3.9751427  36.5251999  54.9577522
   4.6571817  37.0201912  56.2150497  85.7743683  30.5109749  82.2342987
  85.9196014  30.8781223  81.3623276  86.4035950  29.7926140  82.2995605
  73.7395935  44.0965347  13.9096470  73.5671310  43.5003128  13.1809406
  73.3243866  43.6788864  14.6642370  79.2774811  25.8211212  82.9382401
  78.5474167  26.0570202  83.5105896  79.2865143  26.5041313  82.2676849
  49.0763512  19.5599728  77.1265564  48.4139061  19.5703106  77.8174210
  49.3160286  18.6374741  77.0383301  35.7744522  28.2242947  76.9470596
  35.1557312  27.8398190  77.5680313  36.1364632  28.9814568  77.4073715
  65.7807236  27.2630978  16.4139900  65.0936279  27.5278244  15.8023987
  66.3605194  26.7048874  15.8958492   6.5336857  59.9479408  88.6361771
   5.8192277  60.5619354  88.4665070   7.0850582  60.0004044  87.8554916
  13.4500790  41.1548157  37.1657677  13.2734413  40.2166672  37.2358208
  12.7548561  41.4877129  36.5982513  62.3061371  42.2783661  63.3576889
  63.1946526  42.5258446  63.6136703  61.7907486  42.3739281  64.1586151
  39.7842827  61.9876099  76.3133316  39.5932846  62.8815804  76.0294800
  40.6249428  61.7810631  75.9048462  53.2110291  45.5094070  77.8088303
  52.4073944  45.9715157  77.5703812  53.2980080  44.8231583  77.1472244
  44.0262146  16.9643288  80.2468719  43.9302368  17.6341839  79.5698853
  43.1433258  16.8514709  80.5990143  69.0687027  48.3776016   1.1504403
  69.5836182  48.8115425   0.4701581  69.7098236  47.8725815   1.6505860
  48.7751579   5.4669142  79.2555618  49.4101601   4.7588944  79.3638000
  49.1919174   6.2266560  79.6621780  69.4935226  26.8298874  88.7633514
  69.4802322  26.5510159  89.6789246  69.8485107  26.0780239  88.2890930
  76.3574219  48.1333466  45.3754463  77.2490234  47.9188995  45.6498222
  76.3957214  49.0603294  45.1399345  81.3737488  61.3160629  69.6688690
  80.5646286  61.1824760  70.1625366  81.5946579  60.4479103  69.3316193
   3.8121278   8.4858122  46.2077751   3.1483715   9.1592226  46.3566971
   3.3487837   7.6590233  46.3418083  38.3346901  10.0918350  39.6760521
  37.4470482   9.9494944  39.3473244  38.8587990  10.2482681  38.8905144
  44.6549568  23.1900539  16.1008472  44.6802063  24.0832977  16.4439354
  45.5721550  22.9174690  16.0748081  10.0910616  57.8725739   8.1217146
  10.9632282  58.0900230   7.7926664  10.2545471  57.3737717   8.9221535
  68.7397461  32.4260445  80.9737549  68.0081635  32.0291481  81.4465103
  69.0330734  31.7437325  80.3699036  73.4557571  37.3946762  85.1557922
  73.5143280  38.0300598  84.4422913  73.7769852  36.5771294  84.7754440
  86.9079819  36.0537872  38.1037903  86.7798309  35.3572884  37.4598236
  86.1796036  36.6562729  37.9531212  16.6112404   1.8249558  71.9660339
  16.8298531   0.9582378  71.6236267  15.6735344   1.9191396  71.7984924
   3.4582841  31.1279125  21.7736702   3.7754014  30.2363358  21.9177551
   4.2477570  31.6354694  21.5856514   9.8566389   3.5508025  73.2577591
   9.8076363   2.8794611  73.9383011   9.6601305   3.0835512  72.4457932
  70.0826569  54.5940628  39.9264832  69.7432251  53.7039070  40.0194130
  69.3109512  55.1254387  39.7306786  50.3740959  31.6897430  12.9544086
  50.6328125  30.8041592  13.2094336  49.9000435  32.0287971  13.7137194
  80.8629913  58.1548653  28.0333939  81.6389694  57.6815681  28.3335266
  80.7956696  58.9041710  28.6252060   9.6176987  57.5075188  12.7712002
   8.7480993  57.1804276  12.5409012   9.4781246  58.4305649  12.9827156
  83.8939667  35.6337318   2.5731633  83.5255966  36.4879036   2.7988319
  84.8406982  35.7541542   2.6468368  29.1873016  65.9967499  72.9025955
  28.3884888  66.0859528  72.3828125  28.8886318  65.6493988  73.7430573
  51.4973640   6.5561166  25.3003693  52.0253143   6.1564188  25.9915581
  51.3131256   7.4393134  25.6201382  85.2134323  69.5010376  31.1205959
  85.0771484  69.3010178  32.0466881  85.8224640  70.2394943  31.1221600
  20.5169735  42.0684814  76.8221054  21.3908997  42.3877831  76.5973206
  19.9575863  42.3808594  76.1109543  41.5229530  33.7537613  72.6200790
  41.8483810  34.6531792  72.5829849  40.7218513  33.7671204  72.0963516
  20.6384888   5.3261399   2.6768668  20.1348972   4.5228024   2.8083112
  20.2557030   5.9520702   3.2916172   9.8335180  15.7452488  85.9620438
   9.0028181  16.0760822  86.3036880  10.3678999  16.5286293  85.8317337
  10.1919479   1.1799817  24.1339226   9.6411676   1.8374264  23.7089062
  10.5182590   0.6395170  23.4144440  22.1224194  16.3660545  83.9512558
  21.7548237  16.3676739  84.8350601  21.7584076  17.1494980  83.5390167
  57.9411049  40.7924232  57.5936813  56.9974785  40.8707390  57.7339172
  58.3308411  41.0869827  58.4168282  66.7383728  41.9587479  62.8602524
  67.6585236  42.2101173  62.9400177  66.4530563  42.3527184  62.0358658
  15.7066031  70.0243454  61.9602394  15.2756996  70.6696625  61.3997688
  16.3728027  70.5239182  62.4322968  32.2918205  58.4832611  73.4560242
  33.1215553  58.7750969  73.0783920  31.6639671  59.1618958  73.2080536
  72.4361496   5.2648168   3.9222999  71.6409607   5.3968081   3.4060724
  72.9039078   4.5647860   3.4668968  59.9770050  18.7140064  49.0452232
  60.8701363  18.4391422  48.8378639  59.4261322  18.2099056  48.4463501
   1.9743521   8.3827076  62.7673378   1.0261549   8.2517996  62.7632256
   2.1077578   9.1836462  62.2604523  79.3734894  69.3335190  36.8165932
  78.8060303  69.7523117  36.1694183  79.6561737  68.5208969  36.3971138
  59.4816933  68.3785400  21.7712345  58.6366501  68.7115784  21.4692078
  59.2626610  67.6035156  22.2885303  38.5168839  11.8001699  35.8796196
  37.5785217  11.9016237  36.0390434  38.7906418  12.6425772  35.5168037
  41.6655006  29.2040443   3.4617970  40.9926987  28.6660366   3.0445225
  41.7279282  28.8607807   4.3531470  59.0087357  70.3825607  12.5614843
  58.5796432  70.5138931  11.7159872  58.3338509  70.5909271  13.2075081
  69.7606354  10.1468801  42.5744286  69.5189667   9.3612394  42.0839233
  69.0210953  10.7422504  42.4525948  71.5795822   4.2738967  44.3636436
  72.2091522   3.6991072  43.9283333  70.7847672   3.7457438  44.4381866
  39.9247780  10.5474205  48.1443710  40.6700668  10.8409739  48.6683960
  39.6297913  11.3340969  47.6857262  62.2681618  39.1413651   9.2122469
  63.1681061  39.3727188   9.4420433  62.2500992  39.1708145   8.2556715
  50.2017593   5.0527596  17.1933022  50.6676407   5.6141953  17.8129616
  49.6996117   4.4526315  17.7445965  79.3347092  56.3320580  48.7175827
  78.7621613  56.9694977  48.2908707  80.0856705  56.8458481  49.0147667
  49.6782913  51.0215416  26.7476883  50.1895714  50.4757690  26.1502304
  50.1002007  51.8798447  26.7084236  61.4093399  35.3409119   5.9719858
  61.9600487  35.8745193   6.5448861  61.9832611  35.0995255   5.2449517
  49.5356369  28.5584946  81.1980209  48.8806725  28.1886120  81.7900009
  50.3606148  28.4856052  81.6779556   8.9456339  31.6966591  47.3197327
   9.7981920  31.7281475  46.8856964   9.1462345  31.4575844  48.2246284
  73.0435867  57.9558258  67.5566483  72.9259186  57.0060616  67.5383682
  73.0524979  58.2138481  66.6349182  55.2157669  43.8271294  17.1558723
  54.5338898  43.3277206  16.7065735  54.7386246  44.4966850  17.6460381
  78.2552490   4.4152493  15.6173658  77.3809814   4.7479587  15.4144039
  78.6583176   5.1060948  16.1432018  70.4678574  36.0950737  58.7122116
  70.7038727  36.2528954  57.7980881  69.9559784  36.8638535  58.9635773
  73.2427444  60.2996712  36.4540672  72.3952103  60.4343452  36.8780670
  73.4209824  61.1269989  36.0068626  14.0175810  45.4572144   9.0060635
  14.6067638  46.2080536   8.9329967  13.4503984  45.6690903   9.7474432
  44.6115112  56.1059227  13.3845854  45.5153389  56.0360718  13.0772676
  44.4866714  57.0402298  13.5510759  70.0460129  35.1604309  85.2977982
  69.7471161  35.2979393  86.1966782  70.1811905  36.0429611  84.9526901
  66.2841187  21.0775547  63.9081726  65.4180222  21.2434883  63.5359154
  66.7483902  21.9093800  63.8146362  52.2086792  16.9011955  74.8539276
  51.6354485  17.6662693  74.9018707  51.7545700  16.2294178  75.3625793
  82.8456955  51.5027390  28.4206829  83.1359329  52.2279472  28.9739113
  82.0281448  51.8116379  28.0302639   5.1400571  51.1811333  81.7428513
   4.5118232  51.7765236  82.1515808   5.3699570  51.6059647  80.9164734
  49.1381454  68.0063171  55.1243095  49.2744179  67.0916595  54.8772011
  48.3956146  67.9832687  55.7279205  26.9534893  47.9053612  74.3915253
  27.0564404  48.5940933  75.0482407  26.0208912  47.9171829  74.1762238
  43.4761276  42.5296211  10.4400988  43.3852615  42.1785698   9.5542450
  43.5227928  41.7553482  11.0009480  62.4677887  68.6342010  80.9079666
  62.4323006  69.4782257  80.4578629  62.7456932  68.8490982  81.7983704
  64.3160934  52.5764351  85.1457901  63.8692589  53.2848091  84.6823502
  65.2472000  52.7741432  85.0449371  10.9323149  18.3779316  56.8737297
  11.8647909  18.3987675  56.6585884  10.6355095  19.2780895  56.7401047
  14.6787443  47.9091225  15.0901442  14.6588421  48.6506310  14.4851608
  13.7813463  47.8419914  15.4163380   1.1863734  36.4957657  78.2670212
   1.9354057  35.9955025  78.5909424   0.7958655  36.8781586  79.0528412
  56.5517693  46.7298660  56.9531746  56.3479958  46.6840858  56.0190392
  55.9143639  46.1473160  57.3661919  20.1664677  22.9824772  60.5958786
  20.3119793  22.1497822  61.0449600  20.6440201  22.8962803  59.7708054
  77.1235809  46.3758049  28.1526833  76.2721024  46.4928589  28.5740128
  77.3117752  47.2249451  27.7529640  41.3774147  37.4241982  88.6187057
  40.9993896  37.8179512  89.4050140  41.1780968  38.0468216  87.9195328
  75.8707886   3.6266878  41.5056953  76.3756714   3.9507117  42.2515717
  76.5150681   3.1806893  40.9559555  22.9523678  69.9824448  18.4286537
  22.2259140  70.5393906  18.7084942  23.6801758  70.2345886  18.9969444
  27.9743786   3.3273430  17.4295311  28.7159405   3.3299434  18.0347691
  28.2893543   3.8059678  16.6627598  18.3688946  17.8601894   7.3341255
  18.4895802  18.7458935   6.9917846  18.4814873  17.9517021   8.2802649
  55.5982323  35.8393211  70.5267258  56.2846184  35.9614258  69.8708344
  55.2884979  36.7248154  70.7169800  64.4114151  38.0729256  79.1000824
  63.8551369  37.6514778  78.4449768  64.6137161  37.3773346  79.7257462
  28.4563541  50.3748856  65.0245361  27.7760105  49.7164764  64.8836060
  28.0342865  51.2058830  64.8065186  24.2886467  60.4093246  77.4362259
  23.9937630  59.9764977  76.6350174  25.2384491  60.4750443  77.3372955
   0.3558805  66.3402328  57.5229416   0.3291699  65.4388733  57.2018929
   1.1068090  66.3610382  58.1161575  11.7579594  40.6741867  40.9670219
  11.8141060  41.1830673  40.1582451  12.6459961  40.3445511  41.1047325
  10.6494818  12.5602016  46.7277794  10.5457010  12.2481441  45.8288460
  10.1346416  11.9488449  47.2544785  84.7303925  19.0031815  85.5194778
  85.6312332  19.2373409  85.2961197  84.2807007  19.8430176  85.6126709
  66.8596649  32.0992966  83.0853577  67.0910187  31.3195038  83.5899582
  66.0400925  31.8674812  82.6485443  85.9238281  24.5292168  45.0426598
  85.8583679  24.9477272  44.1842918  86.2671127  25.2135220  45.6172142
  44.9319191  65.4964828  34.8526802  44.8513489  66.4289322  34.6519928
  44.8954964  65.0638580  33.9995995  16.2714748  47.1673393   8.3866720
  16.1534119  47.1334381   7.4373860  16.1347847  48.0874634   8.6123238
  71.5672379   7.1621509  67.0926361  70.9247360   6.5960450  67.5203629
  72.0898514   6.5674787  66.5546112  65.7468414  33.6015053   2.4396384
  66.5328751  33.2541084   2.0180910  65.1647034  32.8459969   2.5206349
  75.7131577  13.3975248  78.5890198  74.8361282  13.4296227  78.2069092
  76.2964172  13.2749748  77.8400040  80.7610245  68.7300949  71.4452438
  80.5387421  68.8130798  70.5179138  79.9503326  68.4358215  71.8604660
  57.8887444  12.3431005   7.9723773  58.5439072  11.8149424   8.4284935
  57.0711899  11.8574142   8.0816727  11.5567675  12.0347595  19.4273224
  11.8032589  12.9592991  19.4008694  12.0355806  11.6383047  18.6994534
  34.0686417  35.0047913   4.9216952  33.6226730  35.8507690   4.9624438
  34.5284615  34.9358864   5.7583861  78.3413925  39.4082489  47.2115936
  79.0943985  39.9800911  47.0625420  77.7295990  39.9444237  47.7160339
  73.1435089  10.4361067   1.7587044  73.0333176  11.0081930   2.5181832
  74.0902786  10.3976536   1.6231673  57.2845993  67.0696259  43.3233643
  57.5912895  66.9580307  42.4235191  56.6872063  67.8163757  43.2819252
  20.8862686  34.3477173  86.0864639  21.4598083  33.7682838  85.5849304
  21.4527950  34.7184906  86.7630768  47.3428421  47.1875534  63.3297806
  47.2224197  46.2607880  63.1228104  46.5962143  47.4075279  63.8869057
  60.5909233  11.4349613  48.0821724  61.0083275  10.6345921  47.7637138
  61.3181763  11.9842663  48.3747482  16.5479507  44.5144920  30.9591408
  16.4118309  44.3721848  31.8958645  15.8521833  44.0107689  30.5367622
  27.0674706  50.2481232  72.9509659  27.4437904  49.5979729  73.5441895
  26.6063404  49.7311363  72.2904205  39.0077744   2.2401676  44.0201530
  39.5954094   2.7957199  44.5322838  38.1782913   2.2651238  44.4971886
   7.1231971   6.0054731  65.9978180   7.7030530   5.8113770  65.2613907
   6.2941241   6.2560477  65.5902863   1.9151304  57.0044861  55.0484962
   2.2061338  56.3782997  54.3855934   2.3610075  57.8200111  54.8197212
  72.8192596  64.7905121  25.6062622  72.8399277  64.3943024  26.4773674
  71.9898529  64.4969711  25.2292423  36.6671562  71.0648041  32.0877190
  36.5729904  71.2231293  33.0270271  35.7759132  70.8942642  31.7830391
  25.6971397   4.5183468  40.8606148  26.5035877   4.0027213  40.8594933
  25.2915421   4.3267674  41.7062035  50.6537971  17.3878307  65.0839081
  50.0097733  17.9431000  64.6444321  50.7022934  16.6012249  64.5406494
   3.1662319  67.8794022  43.7902298   3.8630302  68.0492172  43.1563034
   2.3619969  68.1277237  43.3344078  48.3564568  58.7236176  49.8184662
  47.7199593  58.2476997  49.2849846  49.1737862  58.2382660  49.7060356
  19.8995190  54.1605148  29.9398518  19.4707375  54.0732193  29.0885239
  19.9142704  53.2709389  30.2929344  82.7267151  70.9335022  46.6486282
  83.2772369  70.2368927  47.0062370  82.8699341  71.6766510  47.2346802
  18.7392902  61.6902008   4.4598498  18.1880684  60.9606476   4.1767602
  19.6159000  61.3131065   4.5346136  31.4274311   5.7375045  35.9929543
  30.6027145   5.2564478  36.0612144  32.0467606   5.2262120  36.5137672
  78.8850937  12.1291904   8.2749300  79.6409988  11.6943998   8.6696472
  79.2645035  12.7770452   7.6811562  68.5759430  35.7996979  29.6462288
  67.9938965  35.2155075  29.1602459  69.3196869  35.9388466  29.0599556
  72.8752213  37.2106819  51.3890495  73.3252563  37.0288124  50.5640488
  72.7256851  38.1560516  51.3769684   0.0232216  70.2922440   3.8177934
   0.7289670  69.7453156   4.1627884  -0.4817170  70.5469894   4.5900469
  40.2449722   4.6126299  80.3880920  39.6207657   4.0009303  80.7785034
  40.1211205   5.4260182  80.8772659  60.1893692  19.4497585  62.8908081
  60.9999390  18.9421787  62.8512383  59.5704460  18.9549103  62.3538818
  24.0829258  56.4743576  18.1241779  23.9872074  55.6263199  18.5576534
  23.3484631  56.9943428  18.4503880  11.7355595  28.3971062  18.1236515
  12.0751305  28.6814594  17.2750854  12.2042656  27.5832806  18.3086739
  66.5299149   6.2766871  87.7640076  66.7369308   6.7626734  86.9657593
  67.0339890   5.4664631  87.6886597  56.0658913  35.3493919  27.8243237
  56.0724602  34.8641243  26.9992752  56.8506279  35.8962135  27.7868214
  69.7162170  48.4022484  69.9700012  69.5370026  49.3057022  69.7094421
  70.6650009  48.3721695  70.0930328  78.1006012  21.9539833  31.1886940
  77.2933655  21.6304684  30.7887669  78.0959091  21.5833778  32.0712242
  52.3927917  53.0592995  76.9872284  52.7935028  53.8679123  77.3063049
  53.0411148  52.3805122  77.1747284  66.4987640  50.1488953   9.3892994
  66.9187622  50.2986794  10.2362947  66.1338272  49.2664833   9.4556284
  54.2850647  45.0199928  12.4189177  54.1904335  44.5802269  13.2638330
  55.2053413  44.8965187  12.1863804  62.6473083  53.5670929  71.7269135
  61.8520584  53.1166534  71.4424667  62.6297073  54.4022636  71.2595749
  58.0963631  22.2312698  50.8507538  58.6182442  21.5047550  51.1914101
  58.7363167  22.9170036  50.6598129  77.8161240  16.8699512  78.0399780
  78.3463974  16.0862465  78.1843872  76.9468307  16.5340481  77.8215103
  59.1867561  67.0490494  67.4896469  58.4320030  66.5147629  67.2424393
  59.4144173  66.7493362  68.3697510  38.2673836  65.4456177  38.4698296
  37.3651505  65.4798584  38.1519699  38.8007431  65.4274063  37.6752052
  63.7887726  20.6070862  60.3833847  64.2498398  19.7682590  60.3790932
  64.0848465  21.0472164  59.5866089  57.6742783  70.5129852  48.3694916
  56.8139343  70.5520477  48.7872391  58.2804070  70.8292465  49.0394325
  33.0052490  44.9554863  31.5150890  32.2500305  45.4157944  31.1490383
  33.6256256  44.8974266  30.7884579  76.8116837  14.1650190  31.8512268
  75.9520111  14.4345236  32.1745911  76.8554230  14.5194445  30.9631367
  80.4191666  17.3026485  10.4651489  81.0202942  17.3962135   9.7261457
  79.9585876  18.1407185  10.5068378   3.5219026  53.1201706  50.8245850
   4.1506057  52.4411621  50.5798225   2.6864631  52.8103065  50.4749298
  47.4481850  49.9998360  27.6649265  47.0200882  49.9476471  26.8103867
  48.3316002  50.3135071  27.4714909   0.3726072  17.6566181  29.1023273
  -0.2843977  18.3011875  28.8394470   0.3664109  17.6848297  30.0590916
  86.4293976  30.1044426  54.2112541  87.1507034  29.6076279  54.5974083
  86.0277710  29.4986668  53.5883827  27.2450237  29.8045540  12.7726526
  27.3078251  29.1354046  13.4542150  28.0444145  29.6971912  12.2572107
  11.5746536  30.8386211  31.5535660  11.4768505  31.4207745  30.8000660
  11.5687447  31.4240150  32.3108711  43.3034172  68.6740875  70.0458832
  43.5387268  68.3231354  69.1869888  43.1230392  67.9002304  70.5795898
  19.7315426  14.9101391  56.1698189  20.3366432  15.2458868  56.8311501
  19.0612907  15.5890350  56.0917511  81.0024261  47.8591003  56.5940132
  81.2865982  48.7587357  56.7556915  81.8072128  47.3894043  56.3750534
  76.6385574  43.0077972   5.1633101  76.3600769  42.3946953   4.4830260
  77.2503510  43.5956078   4.7201138  54.5215187  14.2600279  24.1249409
  55.1777115  13.5837622  24.2931995  55.0310707  15.0328875  23.8814735
  13.7030725  66.1513367  36.0727310  13.4708719  65.5330124  35.3799210
  14.5851507  66.4454880  35.8454781  36.1869888  58.1619034  43.5377731
  35.6634483  58.2428894  42.7405396  36.0681343  58.9980278  43.9883270
  48.3358955  67.1088486  39.3028831  47.8499756  66.3249969  39.0465736
  47.8935127  67.4169312  40.0938377  29.4904881  21.1717129  70.5884018
  29.9385509  20.4503136  70.1467590  29.5745068  21.9106369  69.9857712
  68.8761292  45.9278564  41.9961014  69.0122757  46.2684975  42.8802147
  67.9561005  46.1125793  41.8072968  76.8723221  51.0700684  44.0478134
  77.6504211  51.0565720  44.6051292  76.8385086  51.9632416  43.7052765
  66.0839310  49.1154137  31.3918533  66.9283752  48.6919327  31.5461292
  66.2954865  50.0441208  31.2970848  52.0512085  58.6319351  36.7066422
  52.4811974  57.9424400  36.2007370  52.4277115  58.5559349  37.5833969
  51.8181076  71.9412460  81.0403671  51.5043678  71.7005844  81.9120789
  51.8664665  71.1114426  80.5656815  28.1223793  21.1846447  17.0866928
  28.4757710  22.0446987  16.8594246  28.4098873  21.0380745  17.9878521
  37.6907692   2.0102262  10.9761915  37.7679863   1.6881711  11.8742733
  37.3156548   2.8861408  11.0672722  78.4954453  39.8029938  28.3834381
  78.0481567  40.4183731  27.8025131  78.3125458  38.9421387  28.0069962
  86.2471695  52.0819168  56.8145561  85.6836166  51.3628540  57.1001854
  87.0611115  51.9566422  57.3024483  50.9314728  32.1830254  49.7294655
  50.0230179  32.4228935  49.9122314  51.3446922  33.0015678  49.4547424
   4.3827772  59.0481796  30.8831005   4.4726233  58.7495956  29.9781094
   5.2581315  59.3521843  31.1230316  79.1023712  30.8584538   0.0841606
  79.3963165  29.9571667   0.2164842  78.7595596  31.1262035   0.9368154
  79.8757706   2.3126168  63.7785759  79.3933105   2.8538334  63.1536369
  79.5138397   1.4339340  63.6638756  37.5769539  10.0298824  28.5588779
  37.1708717   9.5619774  29.2885323  36.9766769  10.7521162  28.3737411
  26.2501945   1.1969723  16.7422581  26.8564129   0.4772753  16.9176693
  26.7286911   1.9828814  17.0061150  26.4346504  22.1233387  26.4982548
  26.1307507  21.2161751  26.4677505  25.9370098  22.5658894  25.8106976
   6.1500936   4.9014363  36.2725334   7.0710897   4.7079782  36.0976830
   6.0107846   5.7681665  35.8909531  36.5378532  18.0467968   9.0650616
  36.4099426  18.3576450   8.1688223  36.6733932  17.1035900   8.9743814
  49.2389755  60.5394363  51.6380043  48.9570885  61.4404716  51.4801941
  48.6812668  60.0105896  51.0674629  31.2502804  50.0145340  56.2701035
  30.6230030  49.4005203  55.8883438  31.1126995  49.9412766  57.2145271
   6.3774152  24.4781704  16.9346600   6.4081073  23.6330757  17.3831100
   5.4641752  24.7553215  17.0082207  34.6057663   5.2686667  51.8213806
  35.5266418   5.0264511  51.9190979  34.1873627   4.9465561  52.6197624
  44.4357796  66.0062180  59.3193779  44.9775391  65.3746414  59.7924919
  44.6255875  66.8457489  59.7381744  80.3509521  11.6952686  65.0721970
  79.6553802  11.1029158  65.3577271  80.0843735  12.5538073  65.4009476
  34.6414757  57.3716278  54.0639839  34.2345047  57.6035156  54.8987465
  34.2545471  56.5264626  53.8354797  49.5569000  63.2842522  56.8577881
  48.7212296  62.8189888  56.8954659  49.7447433  63.5133247  57.7679901
  74.7896347  69.5154266  48.2662010  75.0804825  69.0225525  49.0334778
  75.5459900  69.5136414  47.6795540  51.6959991  22.3427448  24.6303978
  50.9056320  22.7425156  24.2674408  52.2697983  23.0830040  24.8278942
  38.4992523  46.0181389  67.4253082  37.8190384  45.9848442  68.0979385
  39.3167572  45.8828812  67.9044876  78.1220169  20.8179245  46.9450188
  78.0558167  20.5980167  47.8742599  77.3001099  20.5063934  46.5660210
  49.3027306  54.2121544  58.3920059  49.7203484  53.8429184  59.1701431
  49.5214882  53.5999298  57.6894684  39.2032051   6.4603558  73.7821274
  38.9748535   6.8996592  74.6013412  39.7987289   5.7584596  74.0446701
  49.5897522   3.8325937  19.7770443  50.4219093   3.4081321  19.9858055
  49.1452026   3.9160705  20.6206322  29.6188793  62.5245399  72.0062256
  29.7434444  61.8202591  71.3700638  29.6214542  63.3248405  71.4811172
  74.6088104  18.8388500  51.3826752  74.2907944  18.0113678  51.7437439
  73.8190308  19.2879868  51.0814247  72.4094925  14.7139387   9.9017353
  72.8777618  14.9365444   9.0971203  71.5076675  14.5611963   9.6195717
  67.2725525  40.6505966   8.5791082  67.6051483  39.7787933   8.3656368
  67.3514938  41.1436501   7.7624707  22.6927795  67.8145676  39.3961029
  22.3806267  68.5507507  38.8699684  21.8949852  67.3955536  39.7188835
  52.6886177  68.3903732   6.0027018  52.4525375  69.3096466   5.8784299
  53.6368637  68.4020920   6.1327786  34.3228760  38.6252136  79.2630157
  33.4081039  38.8924065  79.1733780  34.2793922  37.7026215  79.5143509
  40.0159073  10.9134636  33.6858559  39.5156670  11.5387726  33.1614723
  39.6427956  10.9851160  34.5644302  84.9554291  41.0506668  81.0291824
  85.4302750  41.1325912  80.2021103  85.6359329  41.0914192  81.7011108
  19.0853729  65.2275314  82.2590103  20.0191994  65.3217926  82.4469376
  19.0246029  64.4224243  81.7448654  69.8395081  24.9306278  86.0651245
  68.9847031  24.6386757  85.7484131  69.9739151  25.7795048  85.6437302
  76.1746445  54.3015747  33.0814056  76.9144135  53.6975861  33.1459312
  76.5656891  55.1306686  32.8058701  26.6004543  42.9682007  28.2145329
  25.8430672  43.1169586  27.6484337  27.1328297  42.3300705  27.7395592
  40.1267014  55.5355186  86.7053070  39.2046852  55.3744850  86.9057770
  40.5050507  55.8260117  87.5351868  34.3282623   7.7575436  68.7551346
  34.6094933   7.1791763  68.0461731  33.6723862   8.3273840  68.3534622
   7.6291661  12.1676512  77.3813705   7.1164904  11.9704514  78.1652756
   8.0910730  11.3523788  77.1859055   9.2506704  60.8642921  41.1040726
   9.5499535  60.1222801  40.5786438   9.1495848  60.5075912  41.9865570
  52.6811829  26.3375931  73.2293320  52.6497154  26.6873512  72.3388748
  51.8073807  25.9751015  73.3752899  12.9742212  61.0016098  22.5279884
  13.6573019  61.6443062  22.7192307  13.4223337  60.3160324  22.0325966
  41.0993729  48.3899307   8.3554468  40.1560059  48.5283890   8.2710867
  41.2543030  47.5393829   7.9445977  68.5447464   9.1376495   6.8915954
  67.6009598   9.2221012   6.7561111  68.9194031   9.8988218   6.4483347
  24.9093723  39.8647804  67.8750153  25.4768143  39.3430672  67.3075104
  24.0527821  39.4424629  67.8107376   3.5401471  51.6377220  85.2679214
   2.7357183  52.0353165  84.9346848   4.1800857  52.3495178  85.2603607
  45.1099472  35.7602768  24.4997311  45.4820557  34.8874817  24.3732624
  45.3771706  36.0086479  25.3846798  68.7106476  29.0747299   5.7134953
  69.2326431  29.2590179   4.9326096  68.0967712  28.3946438   5.4362278
  78.3625336  23.9491653  58.1600037  78.5082703  23.5815620  57.2883034
  78.1630249  23.1910992  58.7093353  66.4667206  14.9330378  86.9593124
  65.9059372  14.1824007  86.7636185  67.2403412  14.8035307  86.4106979
  64.5729523  16.6940212  55.9101219  65.4298630  17.1191883  55.9444008
  64.0396194  17.1789322  56.5399170  81.6210175  66.8598328  51.4853439
  82.3061142  66.8709259  52.1537323  81.7687073  67.6577835  50.9777107
  17.5575714  63.6177063  57.4753227  17.5993004  64.5124512  57.8128357
  16.7594852  63.2540474  57.8587875  56.9388084  11.3141441  13.9511509
  56.5608139  10.4523563  13.7760086  56.1869621  11.9062901  13.9691334
  78.4243469   2.5597396   7.6506677  77.5730286   2.2455456   7.3460937
  78.9733810   2.5618756   6.8665814  79.4688797   3.7529416  49.4483719
  78.6032944   4.0447893  49.7344208  79.3342056   2.8500071  49.1606140
  61.5177841  11.1473227  24.0256786  61.1050873  10.4904585  23.4649258
  61.7049408  10.6825161  24.8412514  13.8494253   6.3207116  72.5797272
  13.5296640   5.5905070  73.1096191  13.7835045   6.0086303  71.6772385
  67.9543228   1.2637395  33.1042976  68.6380920   1.9277763  33.0162811
  67.6511078   1.1120621  32.2091522  72.7818756  18.2554607  60.7009850
  72.7463913  17.3589973  61.0346413  73.6080933  18.2993526  60.2196655
   9.1299658  51.6840401  48.2218552   9.8971605  51.1830978  47.9449081
   9.4116030  52.1320534  49.0194740  17.2382221   1.9741718  30.5836830
  17.0897408   2.7195408  30.0017796  16.6290894   1.3037351  30.2743225
   2.8615041  36.0138321  13.0296593   3.3076181  35.1998940  12.7957325
   3.3302212  36.3304710  13.8018475  75.0405045  39.8785019  71.2757111
  74.6945496  39.1268120  70.7945633  74.6556244  40.6392136  70.8404922
  78.8244629  21.3682537   6.5081677  79.2807541  21.9932289   5.9447536
  78.9828568  21.6868591   7.3967805  85.9534149   9.6321392  35.3979263
  86.3717194   9.2874184  34.6089897  86.2633438   9.0623236  36.1018333
  59.1956863   0.4396865  28.8208370  58.6710281  -0.3052834  29.1140709
  58.6687088   0.8482549  28.1341076   0.3792176  57.0612297  75.3561935
  -0.5522873  56.8434715  75.3228455   0.8229567  56.2132645  75.3731461
   5.8246708  33.0673409  27.8583927   4.8800058  32.9153061  27.8314457
   6.0832715  32.8115425  28.7437897  76.6295700  10.0769682  12.1744204
  76.7047195   9.4433222  12.8879156  75.7868729   9.8788786  11.7659369
   5.8242311  28.0398540  43.3933258   6.5652413  28.3762436  42.8893623
   5.6368117  28.7278481  44.0318947  85.3280258  19.7312260  28.4958515
  85.7568893  20.5851593  28.5515862  84.3935928  19.9347076  28.4550152
  17.8140984  51.0938606  49.0567398  18.4678574  51.4348297  48.4463501
  18.3028202  50.4948769  49.6211853  74.8643494   0.8675561  37.4674416
  75.4203644   0.6668455  38.2203064  74.1081696   0.2892189  37.5671997
  29.1296368  26.7707462  79.8058777  29.9967442  27.1433640  79.9656067
  28.9905891  26.1664619  80.5350800  20.6047974  14.2742214  66.0879822
  21.1808128  13.7248058  66.6195602  20.8124905  14.0352516  65.1846619
  67.6451187  56.2669334  73.5966339  68.0044708  55.3813667  73.5430679
  68.0877075  56.6599121  74.3489075  72.2317505  32.5483627  39.0371857
  72.0674896  32.4535217  39.9754028  73.1812592  32.6485634  38.9691963
  54.7153397  42.3481407  48.9868851  53.9351654  41.8428841  49.2155190
  54.5777779  43.2009201  49.3992844  40.1028290  40.3573112  13.2629118
  39.8438683  41.1449051  12.7845106  40.4866028  39.7875290  12.5963564
  16.0578346  48.5452309  69.2062912  16.9655075  48.8403244  69.2789764
  15.7903900  48.3687744  70.1082687  82.1628876  67.3254318  38.5270615
  82.4598236  67.2789841  39.4358559  82.4949799  66.5226212  38.1252594
  65.0131454  22.8015499  43.8877220  64.5671768  23.0149288  43.0680809
  64.9038773  23.5825768  44.4302063  86.3367233  49.4281235  74.3443604
  87.2101669  49.4937363  74.7303925  86.3581696  48.6147499  73.8401871
  68.3228836  35.6383972  87.9342041  68.3667603  35.9466629  88.8393478
  67.6329117  34.9749680  87.9403076  76.7935181   6.4585834  76.1513290
  76.2546387   5.6856179  75.9829102  77.3513031   6.5349941  75.3772049
  71.3081589  61.4264412  15.6075439  70.8686371  62.2760162  15.5718527
  71.6309967  61.2862129  14.7174101  72.4823456  67.5198975  57.7162895
  71.5720978  67.2467270  57.6019745  72.4276886  68.3274078  58.2273369
  27.1416359  28.2724037  76.3274078  26.2399750  28.5064754  76.1072922
  27.5825233  29.1122303  76.4560242  12.8119621   3.3842795  24.6957932
  13.1714392   2.4971569  24.6911049  12.2702904   3.4190493  25.4842186
  13.5161791  23.9529572  79.1391144  12.7218876  23.6906815  78.6737671
  13.2551908  23.9844551  80.0595016  70.1152573  55.7462997  60.8040199
  70.9846802  55.6257324  61.1858559  70.2533417  55.6571350  59.8610382
  61.8833389  64.6664276  21.8659630  61.2021942  64.5390167  22.5262947
  61.6238518  64.0974121  21.1413116  37.0157204  17.8567295  23.2603264
  36.7749062  17.9049835  24.1854820  37.8890610  18.2463989  23.2195225
  34.7125473  39.6190376  72.3522034  33.8340454  39.3697815  72.6391449
  35.2615356  39.4952698  73.1264954  12.8865128  50.7798729  78.8183441
  12.5635996  50.2092590  78.1209488  13.7920151  50.5015335  78.9555435
  61.4356346  24.2400360  54.5137596  61.3070946  23.8440704  53.6518326
  62.1647987  23.7513428  54.8955078   1.0906870  70.0347214  27.7371464
   0.9512498  70.8058624  27.1874847   1.9151773  69.6630325  27.4236259
  14.8845234  64.1768036  10.8857441  14.6186295  64.8820267  10.2956629
  14.8849411  64.5787506  11.7544594  85.1477814  28.6678467   4.1338615
  85.7311096  29.3619671   4.4407187  85.3143234  28.6136189   3.1928213
   1.4038222  15.1648779  60.1562843   1.5024554  16.0357437  59.7714539
   0.4800434  15.1148129  60.4019623  31.1903038  53.3216209  11.3938360
  32.0401382  53.5197868  11.0004644  30.5849304  53.9355431  10.9780779
  56.3454475  57.4878159  48.0817451  56.7305527  57.9966164  47.3682632
  55.5516281  57.1088142  47.7043304  83.3150253   7.9700599  51.4053383
  83.1139297   8.0552235  50.4733849  83.0094910   8.7905397  51.7922440
  18.9146767  17.5097904  58.6436920  19.0888004  17.2083340  59.5353394
  19.6909542  18.0170975  58.4064941  81.1614609  58.5038338  19.9059162
  81.2882767  59.4488220  19.8213825  80.2226105  58.3751411  19.7709179
  19.5835972  71.4457245  60.8999977  20.4666710  71.4151840  60.5319214
  19.0235691  71.6797562  60.1598434  69.6105881  71.3004990  49.7621880
  69.8181610  71.3635788  50.6944771  68.6563034  71.3648529  49.7243996
   2.3920419  63.7087898  30.7109318   1.8128862  63.8377800  31.4620476
   2.0887692  62.8932915  30.3119087  80.9130707  24.8216152  58.6926765
  79.9665680  24.6789570  58.6921692  81.2595978  24.1275597  59.2534256
  62.4592552  64.3710632  82.5022278  62.8712540  64.7828674  83.2617645
  62.5698128  65.0071487  81.7955399  14.8542156  35.5604095   6.1559153
  15.1266165  35.3089752   7.0384183  14.4438162  36.4179840   6.2671390
  67.8364716  54.5750732  87.0439453  67.0127487  55.0625916  87.0491257
  67.7134705  53.9041176  86.3724365  30.5030308  38.9878540   7.9893274
  29.9299717  39.4106178   8.6289425  30.9750042  38.3242264   8.4923878
   2.2137761  32.4633751  82.2960892   2.3322668  31.6159515  82.7251205
   3.0868294  32.8558159  82.2957535  52.1985893  38.6293259  21.0762367
  52.4230499  39.2175407  21.7972450  52.9035149  38.7503204  20.4400978
  18.6436939  29.7016411  86.4603577  19.4243660  30.1265469  86.8156586
  18.5134029  30.1150799  85.6069412  36.4283829  40.1753387  24.1388454
  36.9080467  41.0032730  24.1649342  37.1008720  39.5139618  23.9758339
  31.8097210   6.6960535  11.9384212  32.1855621   6.1248450  11.2685747
  32.5584450   7.1777349  12.2900276  85.7244720  28.7875042  59.6131172
  86.4878464  28.5073318  59.1081505  85.0210953  28.8533993  58.9672432
   9.9299145  42.0497437  61.4504776  10.0616941  41.1029472  61.4998322
   9.8409529  42.3270340  62.3623047  31.8032780  44.0188293  27.3603535
  31.4765034  44.7595596  27.8710079  32.7367249  44.1985397  27.2480431
  47.2567749  61.8541908  56.5947762  46.7559814  61.2207184  57.1087303
  47.6753387  61.3307381  55.9113731  50.0833740  67.4455948  30.9546318
  50.3890343  66.6369247  30.5437107  50.1482887  67.2760696  31.8944607
  11.9693050   0.1575132  85.9456635  11.7086973   1.0714201  86.0600739
  11.7973061  -0.2487371  86.7951355  66.5174789   7.7102313  70.5927811
  67.2368088   7.0999770  70.4303284  66.3228455   8.0851431  69.7338333
  22.0623169  54.1463890  77.6332779  21.5616703  53.9671364  76.8373795
  21.4527016  53.9588852  78.3470306  14.7149820  58.4016037  43.3772774
  14.6974754  57.9579353  44.2252655  13.9783430  58.0259094  42.8951454
  46.2997665  44.7250977  40.2943840  46.7778778  44.8283005  41.1171799
  45.3784904  44.7061157  40.5534668  57.7466965   4.2920508  34.7299385
  56.8782463   3.8959808  34.8017273  57.6589737   4.9358315  34.0270271
  27.8957882   8.7849531  89.1692886  26.9516163   8.7200127  89.0259094
  28.2412815   9.1194172  88.3416443  62.1459732  60.0136261  80.5735474
  62.9745216  60.4435425  80.7854691  61.4768715  60.6626091  80.7911530
  60.6742287  67.7202148  62.9115715  61.1151085  66.9051895  62.6715851
  59.7535591  67.4757767  63.0056381  25.2544975  10.8726759  23.3177299
  24.7727852  11.6234074  23.6649876  25.7005310  10.5013924  24.0789356
  37.2180061  42.9032135  69.5703659  37.5212784  41.9957085  69.5967712
  36.6730347  42.9964561  70.3517456  67.1909103   8.3366976  13.9364328
  67.4168396   8.5123253  13.0230093  67.6846085   8.9879761  14.4347601
  57.9688377   7.7272902  87.2212296  58.0747871   7.2045593  86.4263992
  57.4940910   7.1542306  87.8232651   7.6000290  45.5470734  73.7986679
   7.0187664  46.1572838  74.2525558   8.2453442  46.1070557  73.3671341
  59.5722656  46.3928795  36.6357155  59.3531456  46.8510437  35.8243561
  60.4687805  46.6660004  36.8303909  55.3525200   7.2724795  27.0020695
  54.5974655   6.6842566  27.0128803  55.3296738   7.7072229  27.8545418
   6.2118950  46.4126549  84.5971451   6.4078188  46.7916794  83.7403030
   6.8224378  46.8438873  85.1950684  76.2426529  44.0340462  80.2699585
  75.9172363  43.1743813  80.5370026  75.5817947  44.3613396  79.6597290
  63.5423851  23.4113655  27.6084385  64.2854309  23.9217892  27.2866077
  63.9351921  22.7483616  28.1762047  20.9192066  17.1536942  61.1347351
  21.0341682  16.2429657  61.4060059  20.6541786  17.6098728  61.9334145
  80.7472610  38.0517769  79.2193680  80.6908264  38.3474922  80.1279907
  79.8735657  38.2093124  78.8615112  74.5019913  40.5318871  57.1496124
  75.3386765  40.1335106  57.3893661  74.7198868  41.1398048  56.4430771
  58.4850349   2.1598060  77.3781357  57.5410423   2.0014188  77.3736572
  58.6598053   2.5413249  78.2384415  10.1455917  33.4177780  50.0783310
  10.5418520  34.2061424  50.4493942   9.9506617  33.6520348  49.1709404
  40.7836189  65.4292526   5.3111124  40.6783447  65.5306625   6.2570853
  39.8950195  65.2864914   4.9851708   6.6309156  11.6039658  63.2216644
   5.7887015  11.4710445  62.7866478   6.8087301  10.7712221  63.6588745
  20.4607716  45.7283173  11.2243557  20.0341053  44.8852692  11.3775167
  21.1455860  45.5372391  10.5834560   4.3037505  68.1340637  39.0545807
   3.9422781  67.4062195  38.5488014   5.2284422  67.9128876  39.1652908
  37.1663475   4.4966273  52.3668251  37.6174355   3.7587652  51.9565659
  37.8247414   5.1905632  52.4014969  64.9137344   7.1790347  12.7004089
  65.0474472   6.2385235  12.8178444  65.7047882   7.5802002  13.0603199
  17.9180565  28.1377563   8.6656084  18.0083466  27.8138981   7.7693968
  16.9734211  28.1583118   8.8188238  80.3922119  17.1774521  57.5390091
  79.5430832  17.0744324  57.9686661  81.0154877  17.2704659  58.2595024
  77.9911194  60.9146805  28.2585659  78.0710907  61.0150185  27.3100033
  77.4043274  61.6222000  28.5256290  23.2628403  42.6546326  12.3536510
  22.3700066  42.6394501  12.6983976  23.2396755  43.3112564  11.6575613
   7.5973005   9.9876614  60.5696373   6.6586518  10.1718168  60.5341797
   7.8090734   9.6542616  59.6977272  40.0516205  37.2521019  75.0088577
  39.3794403  36.6160698  75.2535400  39.5631332  37.9835167  74.6311722
   0.6910897   7.7617779  85.3172684  -0.2067726   8.0683899  85.1905212
   1.2352914   8.5204172  85.1062164  85.8066254  31.3302822  60.8342476
  85.6578674  30.3870869  60.7672539  86.2638702  31.5587215  60.0249443
  13.6535759  13.3147335  52.1773376  12.9160643  13.2442837  52.7834282
  14.0030413  14.1932974  52.3264389  31.7430363  60.0407715  13.2803822
  32.3847885  59.7967987  13.9473629  31.2047882  60.7119026  13.7000341
  61.9594307  13.1885757  53.3423805  61.2461815  12.5540648  53.4124260
  62.5079842  13.0177889  54.1079826  34.9086533   2.7178333  83.8346710
  34.5964966   2.9383094  82.9570694  35.8498039   2.8897142  83.8043289
  81.3062820  56.6475258  61.5876122  81.8906708  57.0873337  62.2051010
  81.8307648  55.9309235  61.2303658  40.2452202  64.5165176  72.0241852
  39.4065056  64.5860596  71.5681610  40.5726128  65.4151993  72.0618286
   1.7505343  24.2711887  50.6632919   2.2028117  24.3726521  51.5007782
   2.3588312  23.7679863  50.1220016  83.0629501  41.2551956  86.1638870
  83.9843674  41.0301552  86.0351181  83.0781403  41.9755020  86.7940903
  33.1929512  25.5262585  76.1956253  33.0138359  24.6366425  76.5001526
  33.9430962  25.8115063  76.7173080  27.8606205  53.7194061   6.2819991
  27.2468414  54.1063347   6.9063325  28.4766083  53.2276611   6.8251204
  43.5555229  26.6770763  88.6209564  44.1004448  26.9668484  87.8892975
  43.6254997  27.3814011  89.2653656   2.8669164  61.9159889  54.3011208
   3.6057947  62.5243454  54.2873611   3.2626154  61.0554199  54.1629982
  28.2717304  25.2284012  82.0404282  27.6465130  24.8116837  81.4473953
  28.9447803  24.5632801  82.1848145  63.5227814  55.4871750  57.4474411
  64.2187881  54.9075012  57.1379471  63.1568222  55.0368347  58.2086906
  21.2533970  24.4957771   5.0913892  20.7904491  23.6584301   5.1189408
  21.1645546  24.8478317   5.9770508  44.5560341  47.2363968  48.6271210
  43.8051300  47.4618912  48.0780106  45.2662048  47.0731544  48.0064430
  82.3507233  67.9302750  43.9312096  81.8643265  68.2704010  44.6821785
  81.6876221  67.8079834  43.2518196  27.7003651   7.0385985  20.7739887
  28.1603699   6.2464724  21.0517750  26.9249954   7.0741844  21.3341351
  51.3270798  68.8904419   1.3203235  52.0680504  69.4944916   1.3684527
  51.7186241  68.0226822   1.4198935  24.6019974   0.9069054  60.1743088
  25.3573856   0.4118274  60.4913521  24.9199219   1.8065848  60.0985909
  45.5240059  11.6459703   8.6568756  46.3139191  11.2350473   9.0081701
  44.8239136  11.3595715   9.2434597  62.3176689  15.1356955  30.1157761
  62.9243469  14.4475784  29.8425140  61.6856804  15.1961527  29.3994179
  84.5379257  24.0240860  84.0866241  84.6153870  24.8501568  83.6092987
  83.6886139  23.6721725  83.8200684  54.9593887  16.3112659   0.8106166
  55.6491737  16.1692257   0.1623471  54.3377571  16.8944340   0.3750492
  27.4264660  29.6566200  73.3780899  27.1128807  29.2588940  72.5658646
  27.9988689  30.3680649  73.0909805   8.3509550  54.3976479   9.9580288
   8.9887428  54.9953041   9.5678205   8.6086521  53.5320320   9.6409521
  80.6697922   9.4735603  57.1743126  80.5829086   8.9128370  56.4034195
  80.4722214  10.3536177  56.8538475   1.6264215  30.3002739  14.0527124
   2.4191051  29.8204880  14.2929001   1.0518880  30.2094555  14.8129063
  63.3384361  12.9395828  23.1302986  63.7418747  13.3614683  23.8889027
  62.7590256  12.2762451  23.5051308   4.2541623  34.7586365   5.8232689
   3.8532107  35.1324577   6.6079531   5.0130672  34.2749176   6.1493196
   8.5327482  22.7005138  40.0423241   8.9482031  22.0063438  40.5539436
   8.8518553  22.5642643  39.1502266   9.8541164  54.5490379  74.8498154
   9.3438826  55.3541870  74.7624588  10.2211218  54.4022903  73.9780350
  13.2672720  52.3345184  17.9376259  14.0736971  52.2336845  17.4319153
  13.3774967  51.7456398  18.6841545  71.2827301  40.4421043  60.9776878
  70.8985748  39.6676636  60.5667191  71.4542847  41.0393867  60.2496414
  20.9176121  31.2653065  14.3418436  20.4483337  30.5011959  14.0069637
  20.8745537  31.1745987  15.2937622  39.2829666  47.8612976  65.3885727
  39.2842674  47.3535385  66.1999969  39.9620056  47.4544983  64.8503799
  22.0824680  21.2291813  27.9119930  22.3672390  20.7654800  27.1245155
  22.3714638  20.6727772  28.6352692  20.6212139  36.3567123  54.7849312
  20.8958454  37.1656837  54.3532219  19.6773891  36.4590034  54.9072533
  75.4317322  60.9342995  21.9914455  75.5936890  60.0286522  21.7272434
  76.1162720  61.1225624  22.6334705  31.2406616  45.0166969   7.2778816
  31.0177517  44.0860748   7.2999063  30.5694141  45.4106445   6.7206898
  15.9335356  35.8887100  70.3431854  15.3511248  36.2489853  71.0119400
  16.3870831  35.1695061  70.7828140  64.8886490  29.8041687  16.8148365
  65.3250732  29.0358486  17.1828785  64.7658157  30.3904343  17.5614510
   8.5097847  51.7597694  63.1633606   8.3573132  52.2949142  63.9422073
   9.2861490  51.2420959  63.3766785  20.4434891  54.4002724  72.5847855
  21.3195801  54.7049751  72.3484497  19.8565865  54.8856010  72.0049210
  46.6977692  49.7768593  40.0912781  45.8725967  50.0481834  39.6891518
  47.2036819  49.4020081  39.3703270  26.6338539   2.6840923  31.4953861
  26.7166252   2.8901825  30.5643063  27.2547398   1.9698157  31.6387100
   3.2403569   1.7105421   4.4900217   3.9356847   2.2888455   4.8035760
   2.6350420   1.6416118   5.2283134  10.2076178   3.8385854  41.7568741
  10.2808771   2.9721005  42.1569633   9.6038561   3.7140214  41.0246277
   5.5688915  62.9206581  32.3348007   6.3826022  63.3311119  32.6274338
   4.9251523  63.1639633  33.0001106  25.4391270  48.6854362  30.3956394
  26.3173180  48.3046379  30.3975620  25.2375870  48.8180237  29.4693375
  57.0279541   8.0554047  55.6501999  56.5449867   8.2348318  56.4569092
  56.9440422   7.1100073  55.5260468   4.2134576  63.8790398  75.2599869
   4.0481677  64.1415482  76.1655273   3.3838105  64.0371780  74.8095322
  79.0931396  49.2188225  19.3545113  78.8466187  49.2313499  18.4296856
  79.8116074  48.5881577  19.4023495  24.5197105  41.2258377  16.1733265
  23.6235065  41.0985146  15.8621349  24.5285568  40.8319969  17.0457039
  10.5070705   8.2748032  61.1948471  11.2169647   8.8894424  61.0091019
   9.7128668   8.8077888  61.1574593  75.0988770  26.3918781  31.2760887
  75.0779800  25.5544834  30.8128777  76.0221405  26.6444836  31.2727127
  68.2951889  33.3133583  24.1415272  68.9556732  33.8207817  24.6132374
  68.1638107  32.5325432  24.6793880   1.6048355   1.6127819  81.5748444
   0.8607578   1.0666525  81.8284607   1.2721825   2.5089357  81.6246643
  77.4080276  25.9613132  55.1003151  77.3225784  26.7340164  55.6587563
  78.2727356  25.6085358  55.3102150  67.0028610  49.6576462  59.6520004
  66.1408615  50.0613937  59.5511093  67.2134171  49.7709579  60.5788574
  82.9318161   6.5334845  21.8266678  82.2881241   7.1171536  21.4251385
  82.6715240   5.6575599  21.5416431  74.9824982  29.5119114  14.7489614
  74.4832687  29.1377106  15.4748917  75.3449860  28.7533169  14.2913942
   2.7538874  67.9586868  29.8548641   2.6065500  67.2103348  29.2765160
   2.8462827  68.7047653  29.2623520  41.4774284  38.9776878  25.6307964
  40.5750351  39.2968941  25.6357117  41.8497200  39.3244133  24.8199863
  73.1779938   4.3830681  28.3380241  73.0305481   3.4373541  28.3488827
  73.0511780   4.6556935  29.2467728  46.5859299  42.4692955  65.8283997
  46.5461235  41.5961113  66.2185287  47.0640640  42.3438339  65.0087204
  46.5268326  51.9959335  29.6892052  46.1256523  51.5081367  30.4084682
  46.5639915  51.3695374  28.9663754  41.7428665  20.8825779  78.4308090
  40.8666725  20.9347305  78.0489807  42.2982063  21.3717003  77.8237000
  44.0621719  64.5789261  32.4322853  43.1722069  64.7245407  32.7532120
  43.9680328  63.8986282  31.7655277   8.1902905  56.5425987   2.5401657
   8.7129288  57.3076477   2.7805367   7.6276813  56.8505211   1.8296125
  11.2433329  45.9075851  37.5964622  12.0049152  45.4294090  37.2684822
  10.5169792  45.2903824  37.5086975  10.2351913  60.1502647  78.7111130
  10.8481846  60.7067947  78.2307510  10.7051249  59.3251953  78.8321762
  15.4921618  68.4003754  24.7951527  15.3556929  69.3065643  24.5186844
  16.2487183  68.1065063  24.2877159   7.1531172  43.9922867  16.0760365
   8.0311918  44.3268585  16.2584610   6.7448840  43.9085960  16.9377632
  64.5620346   7.9179282  89.0434875  64.7940140   8.8243294  89.2456055
  65.1750488   7.6617532  88.3544159  53.3727989  24.3815727  75.4040375
  53.9008179  24.7698765  76.1016388  53.5445328  24.9312420  74.6394501
   7.4217920  19.2581654  41.2102165   7.2450457  20.1852169  41.0503197
   7.2272849  18.8299866  40.3765106  48.5122604  47.4704781   9.3084364
  49.2822227  47.7112999   8.7932692  48.8529053  47.3131180  10.1890211
  30.2208004   3.7154300  71.9545746  31.0745068   3.6019881  71.5367889
  30.4262619   3.9765339  72.8522644  52.0506287  26.5288582  62.6806831
  52.7268372  26.8273907  62.0725327  51.9697456  25.5909672  62.5073318
  82.4743423  10.5295973  14.3250818  82.2291183  10.2008104  13.4602146
  82.6666565  11.4564943  14.1832685  46.9888878   0.6530778  76.7354507
  46.2039413   1.1509440  76.9639740  47.6520119   0.9526355  77.3573608
  38.4452896   4.6804209  20.3691082  39.3643875   4.8543859  20.5721588
  38.4731216   4.1242023  19.5905972  39.6276894  64.4731293  15.5938377
  38.7720070  64.6275024  15.1935816  39.4465675  64.4166336  16.5320473
  30.9075985  32.0256729  17.7043076  30.8212070  31.2208595  18.2152309
  31.3109341  31.7456245  16.8826485  16.8570118  13.7297964  56.1681061
  17.0647240  13.9826612  55.2685814  17.6735268  13.8640614  56.6492615
  36.1410675  22.8874722   7.4347100  36.5759544  23.6754227   7.1087632
  36.0578651  23.0323200   8.3772221  57.8461571  16.5271511  74.7883835
  58.5376015  17.1539001  74.5755005  57.0361443  16.9677143  74.5314407
  20.7584419   4.9774609  41.5832481  20.1751461   4.2631016  41.8395424
  20.9329872   5.4482517  42.3981857  35.5577927  28.1332207  23.7656841
  36.3502159  27.9309731  24.2630692  35.3368950  29.0289345  24.0209007
  41.2142181  66.5843353  51.5203857  41.0827255  66.5761337  52.4684753
  41.3501778  65.6654129  51.2894745  79.5154343  55.1816406  29.8660679
  79.2922440  55.8688278  30.4939156  80.1907883  55.5733452  29.3122654
  21.5346775  53.6447449   2.5716736  22.0489826  52.9615059   2.1416640
  20.6410065  53.5045357   2.2587445  77.4867172  29.7273388  84.0420303
  77.8140259  30.1501331  83.2480927  76.7440720  30.2674294  84.3122482
  50.3199883  50.1786346  37.8942833  50.6056061  50.1030273  38.8047409
  51.0082588  49.7442360  37.3904839  75.7877350   5.4285703  15.3999748
  75.6061935   6.0060334  16.1414680  74.9464874   5.0145822  15.2072334
  12.5948009  48.1457863  68.0922852  13.2201958  47.6120110  68.5823822
  12.2853975  48.7938576  68.7251434  39.0266037  70.2786255  14.2349319
  39.0458260  69.3705597  14.5370531  38.5421333  70.2463837  13.4100170
  24.4799633   8.5196018   1.4149051  24.7252579   7.5951505   1.3767836
  24.7265911   8.8683624   0.5582999  54.0947762   8.1647644  73.4836349
  54.1360474   7.2556329  73.7803040  53.1786308   8.2955523  73.2390900
  85.1332397  30.7982979  87.2104874  85.3444672  30.7391224  88.1422119
  84.9630890  31.7284889  87.0620804   6.6285067  12.9646368  59.9223824
   5.7884870  13.3048382  60.2303772   6.9796190  12.4808655  60.6699905
  17.7277985  63.9423523  67.7143097  16.9989643  63.5152931  67.2641373
  17.7979660  64.8004303  67.2959518   1.8478656  15.8742142  27.8990822
   2.4301724  15.4552135  28.5327911   1.2804314  16.4341373  28.4289265
  73.4512787  39.0631027  83.1360626  73.9426804  39.7952690  83.5084686
  72.9588013  39.4489822  82.4116364   3.5413291  57.5464172  18.3957329
   4.0235176  57.8092918  17.6117535   4.1844521  57.6023712  19.1024818
   3.0873363  35.7922096  52.1456146   3.9815300  35.5938301  52.4236336
   3.1942410  36.3537064  51.3778076  81.6790085  54.5958099  57.8316040
  82.4744949  54.2439804  58.2311630  81.9911575  55.2776718  57.2367477
  54.5458870  42.1098976  13.6690197  54.1648865  41.3182564  13.2890491
  53.8021355  42.5716362  14.0561457  36.5734138  10.2093811  20.5137444
  36.9052429  10.7343941  21.2420864  35.8873444   9.6668644  20.9026089
   3.4878578  35.7828407   8.3667727   3.7198341  36.1896324   9.2016010
   3.0256612  34.9810753   8.6112661  13.6137390  40.0859108  59.0784531
  13.6231461  40.3194046  58.1502151  14.0037165  39.2123146  59.1096382
  58.2477531  19.3087425   6.2333436  58.3930664  19.0827827   5.3146172
  57.3408661  19.0532951   6.4022713  74.7738419  48.6061592  12.4019451
  75.1887131  49.0674973  13.1308365  75.4974594  48.1714363  11.9506950
  23.8211269  13.4858971  76.7256851  24.3785286  13.1382933  76.0294800
  23.5678234  12.7168217  77.2361679  60.9607162   9.4659891  18.2022266
  60.2042732  10.0518370  18.1737728  61.1512871   9.2761078  17.2836094
  13.0044174  67.7494583  16.8682003  13.5301733  68.2367935  17.5024834
  12.7680893  66.9413452  17.3235340  85.1209793  15.3033829  84.4846802
  85.9533920  15.4207315  84.0269165  85.3562698  15.3001261  85.4125137
  35.9891319  22.5422993  82.9609146  36.4359398  21.7431030  83.2399826
  35.7518539  22.3778305  82.0482941  50.0751114   2.8085577  72.6170120
  49.2304764   2.3922017  72.7886963  50.2266655   3.3663590  73.3799820
  54.8688469  24.4248695  64.4325409  55.1663704  25.0274372  65.1141739
  54.1482773  24.8859596  64.0031128   6.3558550  34.9125252  62.2491074
   5.8495202  35.5643654  61.7643814   6.7225857  35.3961067  62.9893036
  78.7710495   1.8491940  20.6898594  77.8243713   1.9905795  20.6962700
  78.9480896   1.3762271  21.5029945  55.6316452  50.8477707  54.9011078
  56.5327721  50.6112404  55.1207771  55.4054947  50.2749290  54.1683464
  77.1031342  25.1171322  47.8762512  76.9156876  25.5683117  48.6993752
  77.0698624  24.1870365  48.0999603  41.0071793  25.1451435  84.9341736
  40.3125305  24.9959049  85.5755997  40.5831375  25.6391125  84.2324524
  30.3860435  56.5626717   3.0953720  30.2422924  55.7876930   2.5522556
  30.1266594  56.2898483   3.9754398  62.5525475  48.8818588  75.2993088
  62.7303581  48.0585136  74.8446503  61.7429733  49.2042122  74.9031906
  47.4325180  54.5380898  30.3143101  47.7055016  54.3563919  31.2135868
  46.7343483  53.9059181  30.1435795  30.3650837  61.0431557  43.1968613
  30.5001316  60.1169777  42.9963913  29.5080490  61.2467842  42.8223495
  65.6588211  60.4159508  85.7338943  66.3542709  60.0811005  86.2999878
  65.0931625  59.6599579  85.5766449  14.1347418  49.1661606  18.8244534
  14.3589487  49.8714523  19.4315205  14.8842688  49.1132431  18.2314606
  84.2709274  66.6399155  26.1450729  84.9043198  67.2774353  26.4746513
  84.6091919  65.7933655  26.4368801  25.1581001  68.1138916  68.0484619
  24.8262787  68.1755905  68.9441833  24.7177086  67.3469925  67.6821976
  29.5282078  69.0015488   0.8458882  30.3581600  69.4370804   0.6516652
  29.0072899  69.6677704   1.2942514  72.0295868  52.0876656  58.6902924
  72.2390366  52.1393738  59.6228638  71.1240234  51.7785645  58.6649818
   6.6850996   9.0776358  71.5288315   6.8306050   9.3730497  72.4276047
   6.8931184   9.8404655  70.9893417  80.3847580  65.4496231  45.5677032
  80.2922287  66.2005386  46.1540413  81.2743683  65.1324310  45.7233162
  65.4756470  68.3217850  84.3967743  65.4528046  67.5019226  83.9032745
  65.9443588  68.1034851  85.2023010  62.5066147  48.4823837  79.9276428
  61.6831589  48.4717903  79.4397507  62.4648514  47.7052422  80.4849014
  53.9018745   6.9201279  32.0096817  53.9257965   5.9697480  32.1212044
  52.9884300   7.1136355  31.7989445  66.5086517  57.7634773  53.3098831
  65.6060333  57.5933495  53.5792809  66.8251114  56.9199677  52.9864960
  52.9819221  61.2160492  86.5953674  52.8737831  61.7784042  85.8283615
  52.0984230  60.9028625  86.7892151  17.5718613  56.0330849  48.0995216
  17.8384933  55.9990082  49.0182037  18.3876095  56.1719131  47.6183624
  48.3909798  37.5124741  83.6293411  48.7033272  36.8831635  82.9792328
  48.2630768  38.3227959  83.1361389  73.3151932  17.5106106  43.1518593
  72.9688950  18.3052177  42.7457657  73.7766266  17.0612965  42.4437447
  11.5228901  60.1880188  30.1494293  12.1418705  60.3266220  30.8662872
  10.7082958  59.9326172  30.5823689  53.6650085  21.6570454  64.9228134
  53.7215424  22.6102409  64.8560715  53.1152802  21.5029278  65.6911087
  82.5775528  13.0925188  85.6574783  82.3506393  13.8900728  85.1792984
  82.8147278  13.3975906  86.5332108  42.4188766  67.6279144  83.6719513
  42.5261688  68.3256836  84.3183594  43.3129082  67.3824005  83.4339066
  10.8338900  13.7770224  51.2987976  10.4716835  13.6747198  52.1788940
  11.5091572  13.1013670  51.2376709  72.5675735  64.8788757  54.8655586
  72.5471420  65.8203125  54.6937714  71.9873505  64.7599792  55.6175156
  64.8688965  68.6939850   1.7623172  65.7891922  68.6753464   2.0248885
  64.6884308  67.8043747   1.4585826  36.3975754  60.1473961  10.0440369
  36.9590416  60.5653648  10.6969490  36.4612122  60.7142029   9.2753305
  13.3229122   7.0808663  66.9822998  13.8289795   7.8811307  66.8419266
  12.4204397   7.3301702  66.7832413  67.9033813  56.1271019  40.4418526
  68.1139603  56.9889984  40.8010483  67.4891281  55.6599503  41.1673851
  68.6875229  10.8682384  50.4117508  69.1087723  10.0357008  50.6254349
  68.7626038  11.3871489  51.2125816  53.4493713  17.3139610  51.0079918
  53.6521072  16.3786259  50.9912415  54.3042641  17.7444820  51.0017853
   8.3727980  55.0486717  46.3462219   7.6988354  55.5697556  45.9097824
   9.0182810  55.6908607  46.6414795  58.3607407  21.9122295  29.1905346
  58.3449402  21.8332100  28.2367325  58.8968391  21.1751785  29.4830818
  18.0673428  52.5500603  85.8848419  17.8988361  53.4276733  85.5418701
  18.8945580  52.2893944  85.4798737  64.2261963  36.7025032  52.2202644
  64.3893661  37.3585014  51.5425682  63.3070526  36.8262863  52.4570808
  72.0125504  50.1912651  43.3992691  71.3091202  50.8010101  43.1764946
  72.3597565  50.5189362  44.2289162  67.6532822  39.6506042  55.9094963
  66.7228394  39.8296356  55.7736435  67.6697235  38.9512787  56.5628738
  67.4132614  59.9850731  63.1868401  66.7757111  60.6473045  62.9199791
  67.3679733  59.3189011  62.5009880  39.9675026  55.9148178  18.4281330
  39.7237778  56.4121857  17.6474571  39.3324051  55.1995811  18.4644032
  69.1503754  17.0082169  12.6234856  69.3414536  16.2372437  12.0893316
  69.0328751  16.6632309  13.5085917  31.4677391  59.9867096   8.7342691
  31.1249390  59.1266136   8.4914541  31.1512871  60.5733337   8.0472755
  31.2744808   0.4882260  53.0678978  30.6032505   0.7430991  53.7009239
  31.1588593   1.0967444  52.3381233  76.5548325  42.1300125  63.4908905
  75.9185486  42.8159714  63.6929626  76.1710815  41.6574326  62.7522163
   9.0893955  41.4387589   3.5778399   9.1942415  42.0352058   2.8365622
   8.5855789  40.7050858   3.2255309   2.2328074   5.6111779  18.9592152
   1.7720215   5.8700895  18.1611710   1.5384443   5.3381357  19.5588322
  42.0780983  18.9545250  73.8661804  41.6388474  19.8006420  73.9520645
  42.7385788  19.0953026  73.1878128   3.5614560  60.3162498  63.6450539
   4.3776622  60.8126221  63.7054787   3.4756670  59.8915443  64.4985733
   5.6986284  66.0879364  47.8983536   5.9033494  65.5239487  47.1525345
   5.1493111  65.5460205  48.4647560  80.2891998  43.9537697  73.8644104
  79.9645462  43.9701004  72.9640961  80.6241379  43.0648460  73.9821548
   2.8281519  43.2388573  20.7692509   3.1642699  42.4216156  20.4013138
   3.2655206  43.3175812  21.6170368  59.9695511   2.7389450  61.6674995
  59.7953262   3.3926215  62.3446884  59.3645744   2.9603927  60.9595451
  78.6155777  13.9288769  17.1127949  78.0691910  14.5278444  16.6039448
  78.1762085  13.0817699  17.0379963  61.7111473   8.3220005  65.4048462
  62.5548820   8.1846476  65.8355179  61.8672371   9.0450401  64.7973251
  37.1836624  20.0819435  86.1613541  36.3735390  20.2292023  85.6732483
  37.7551575  20.8041115  85.9003906  29.2007561  48.1539993  36.9256630
  29.7311897  48.8842239  37.2444763  28.8718090  47.7323799  37.7195549
  27.0664635  50.9958076  37.5301514  27.9962616  51.2111664  37.4571571
  26.6148262  51.7591972  37.1703033  -0.0689306   4.5477190  62.7484550
   0.6870593   3.9631341  62.8029633  -0.3374785   4.6774201  63.6580086
   4.6750474  24.7801781  44.9534378   4.2204142  24.0962486  45.4451523
   4.5957289  24.5103130  44.0384979  10.1427746   7.9780760  57.3889542
  10.1787910   7.0215921  57.3803673   9.2077751   8.1826687  57.3766937
  86.7421341  51.8511162   6.4955864  86.2582626  51.5287170   5.7352166
  86.5033340  52.7760239   6.5568967  78.6593018  63.2170792   0.5276027
  78.4190063  62.8938828   1.3959557  77.8230591  63.3444748   0.0795964
   6.1211767   9.4198933  16.5792465   5.9707975  10.0116100  15.8420286
   6.0142164   9.9710999  17.3544636  31.7042236  59.0239029  78.4089890
  32.0240631  59.1297836  79.3049393  32.1014862  58.2067528  78.1078568
  46.4567719  62.5004196   7.6917334  45.8229523  62.2868195   7.0069847
  46.9866791  61.7085304   7.7830706  62.2402153  70.5635529  85.3653488
  62.3760452  70.0680389  86.1729660  62.5933685  71.4327011  85.5553513
   0.3127099   6.5762825  60.6745682   0.0209282   7.2817340  61.2520065
   0.2634526   5.7881360  61.2155228  15.0026932  66.1868973  41.1182938
  15.5795546  65.5055466  40.7730064  14.4428463  66.4240417  40.3789940
   8.0409241  60.2642250  20.7142010   8.9949732  60.1866722  20.7118473
   7.7683258  59.8923912  19.8753548  81.8497620  42.5719795  81.4505310
  80.9142609  42.3712502  81.4224930  82.0889359  42.7270737  80.5367661
  71.5919495  36.7207947  55.9341049  71.5270844  37.2230835  55.1218681
  72.1678238  35.9876709  55.7170105   4.6658163  40.2388916  80.8005676
   4.8897681  39.3150101  80.9124374   3.8445692  40.2284431  80.3089600
  46.6109924  51.4927254  86.2280426  45.7546577  51.2144737  86.5528488
  47.2376137  50.9607582  86.7185440  72.3244171   3.2472456  67.9587631
  72.6196899   3.7086570  67.1738205  71.5607376   3.7426333  68.2547607
   2.5630846  61.0337410  69.9735565   2.6746001  60.3048439  70.5838852
   1.6274680  61.0358925  69.7714462  32.0495682  33.5525894   3.5508773
  31.4712830  33.9290009   4.2143040  32.8988380  33.9635239   3.7124319
  83.2967529  39.8858223   4.8435798  83.5463638  39.2370148   5.5015869
  84.1069641  40.3591423   4.6545110  21.5172920   7.2506075  14.9759541
  20.9358120   7.9007964  14.5817881  22.3142109   7.2901521  14.4471912
  71.9478378  67.3223801  68.3314972  71.8874588  68.2564163  68.1311035
  72.8798599  67.1708374  68.4883804  80.4409561   6.2128320  52.5239792
  80.4149170   6.8267598  51.7900543  81.1494598   5.6076131  52.3049507
  76.4609985   8.4448833  23.5037632  76.5831223   9.3940849  23.4855461
  75.7227173   8.2870483  22.9153194  54.2242203   6.3232746  41.6281548
  53.5116577   5.8168159  42.0180130  55.0022011   6.0596371  42.1195526
  72.3508911  58.2408562  44.1759224  73.2706146  58.1757545  43.9188232
  72.2930222  59.0700035  44.6506844  40.5142479  23.2436562   7.9584455
  40.6839905  23.1127605   8.8913364  41.3803215  23.2186565   7.5516005
  61.4337807  15.7214050  78.4256134  60.7512665  16.3391361  78.1632919
  61.8971939  15.5173397  77.6133041  62.2908211  18.4797630  22.8044205
  62.6675110  18.0552101  22.0336456  61.5750160  17.9024410  23.0700321
  14.7275686  15.4745264  70.0736389  15.0377703  16.3769150  69.9981155
  14.5798826  15.3496895  71.0111008  31.4590931   2.1258795  35.8581352
  32.2495651   1.9523196  36.3692741  31.0761776   2.9027913  36.2655830
  21.7748013  31.5550919  25.7933941  21.0172596  32.1401482  25.8017292
  22.4601040  32.0440865  26.2488918  81.8758163  18.7371826  67.8991394
  82.1480865  18.0075283  68.4556503  81.7821960  19.4755383  68.5010529
   7.6595383  30.1887932  33.1569519   7.5014200  29.5497646  32.4620590
   7.2887402  29.7856770  33.9419594  18.1493301   5.8990431  55.6658859
  18.5315418   5.3200812  56.3253937  17.2044201   5.8210101  55.7973747
  80.2465591  54.6256752  14.0130854  80.6236267  54.0249748  14.6558981
  80.2516327  54.1325951  13.1926737  83.7820969  66.2294540  53.3945770
  83.6644363  65.9286499  54.2956352  84.3300781  67.0104065  53.4724007
   8.3906460  57.6787758  82.5168991   7.5298271  57.2670288  82.4414749
   8.3176889  58.4824142  82.0020523  59.1072540  58.7283936  61.3620872
  60.0286255  58.4901123  61.4646797  59.0667686  59.6476059  61.6259918
  46.7543068  11.0516453  31.4583340  46.6342621  11.9644022  31.1962337
  47.4939346  10.7468185  30.9327297  57.2273636  61.7021332  33.0839577
  56.5695267  61.3915787  32.4618301  57.7101288  60.9146652  33.3350830
  80.9664078  38.3875465  68.6636734  81.0633926  37.5077934  68.2991791
  80.0467224  38.4388885  68.9240265  44.5646973  45.3687401   5.7266665
  44.4236679  45.0897141   4.8219633  45.0529556  44.6487694   6.1260147
   4.7374401   1.9676449  87.8579025   4.1471987   1.2832656  88.1732941
   5.2723336   2.1921940  88.6192780  14.4535379   4.6645169  10.8552017
  14.0943985   5.5504079  10.8057251  13.7579670   4.1463542  11.2600727
   8.5950565  19.3587055  18.7977943   8.0228577  18.6271057  18.5663147
   8.9220428  19.6819630  17.9582615   6.5608659  71.2771378  66.2173157
   7.4222326  71.5915527  66.4919586   6.2290497  70.7952728  66.9748993
  28.7966309  49.8359451  51.9921265  29.5978985  49.3183823  51.9125519
  28.6380749  49.8885307  52.9346352  79.1654282  66.9409103  82.3303680
  78.8026581  66.3398590  81.6797028  80.1057510  66.7620468  82.3236847
  84.2771301  42.3910751  37.6325340  84.4673843  42.6195526  38.5423889
  83.5353241  41.7885895  37.6869659  79.1926804  62.1066895   3.2667828
  79.2150879  61.3567696   3.8612154  80.1032104  62.3969917   3.2130132
  24.4426155  14.6340437   4.7575617  24.0162868  15.2260885   4.1379185
  25.3426781  14.9547510   4.8147111  44.2561302  51.5448074  10.1758862
  44.4123230  52.4306145   9.8485041  43.8641968  51.0815125   9.4356298
  32.3206406  66.9811096  32.1528893  31.9344463  67.5994568  32.7731590
  32.3140373  66.1427994  32.6148720  41.8971291  15.0409231  75.7562561
  42.7321205  14.6363783  75.5209503  41.6376305  15.5271969  74.9736710
   9.0338049   4.2698331  48.3658562   9.0564766   3.4614155  47.8538246
   8.1775379   4.2585273  48.7935371  83.9965286  66.1945038   9.2805157
  84.4250717  65.9973373  10.1134071  84.7011261  66.5184326   8.7194061
  11.7122860  24.8964920  16.1848297  12.6432953  24.6860600  16.2567444
  11.6508350  25.8097706  16.4647942  79.7017136   3.1301010   5.3631849
  79.5913773   4.0801487   5.4014983  80.0404587   2.9636002   4.4835486
  68.7142029  18.9297352  39.6812210  69.0631638  19.4517345  38.9587402
  68.3009796  18.1782818  39.2560234  75.0624847  36.1986542  53.2665710
  75.4073944  37.0578117  53.0234261  74.1842728  36.1767960  52.8864517
  37.4133568  36.4294739  75.3051987  37.1616936  37.2924080  75.6342010
  37.0388832  35.8142204  75.9356461  27.5529461  61.5388107   9.4900131
  26.9931850  60.8224945   9.1903639  27.1577682  62.3251572   9.1135454
  29.9333344  18.4406948  10.3588791  29.8227654  18.3702469   9.4107008
  29.0405159  18.4554863  10.7036829  69.6334305  11.0842934  81.5953751
  69.0842056  11.3223467  82.3423080  69.6047440  11.8509722  81.0230026
  11.1996593  30.1048431  45.4545822  10.8315687  30.4659328  44.6481323
  11.0570078  29.1611633  45.3814392   1.9824872  39.9065132  36.4256325
   2.0353484  39.6573486  37.3483238   1.3595917  40.6331215  36.4090652
  47.9343758  66.4008789  35.8490944  48.5168381  66.9939346  36.3237000
  47.9023514  65.6123123  36.3907280  44.8710938  22.2173519  74.0432434
  45.3822746  21.9357796  74.8019562  45.1079102  21.5989876  73.3520279
  41.2376060  32.9778748   8.7318048  41.7613640  33.1735802   9.5087290
  41.1274376  32.0272179   8.7504530  39.7254677  26.3437538   2.9982393
  40.4087715  26.3567734   2.3280473  39.4688263  25.4237251   3.0607867
   9.7216215  45.6627808  20.0783005  10.6409101  45.8753014  19.9171410
   9.2727737  46.5078964  20.0550175  54.4917755  14.0130272  57.0707855
  54.0759811  13.8394079  56.2262688  54.1320229  13.3467531  57.6563530
  70.2009659  37.0837288  25.8180256  70.5667267  37.5769272  25.0837173
  69.3536987  37.4964676  25.9854279  63.6158676   7.2426577  28.5013752
  64.0380554   6.3873525  28.4210873  64.3007584   7.8703985  28.2709389
  79.3985596  33.3585815  83.1910553  79.9082794  34.1476707  83.0073242
  80.0543442  32.6700478  83.3010483  77.7864914  42.6738281  57.5962791
  77.6422653  43.2649384  58.3352127  78.2682953  41.9360809  57.9702187
  65.4835663  65.3416290  33.5210953  66.1914139  64.8430405  33.9292450
  65.6379471  65.2508774  32.5807953  36.1152077  28.8009205  14.7736692
  36.2120018  29.6965714  15.0972042  37.0124474  28.4779263  14.6907854
  68.7895126  18.5012093  42.3516045  68.5195236  18.7722702  41.4741859
  69.0050430  17.5731144  42.2598572  57.7657013  46.5210075  60.9630508
  58.6810875  46.5138474  61.2427826  57.4116211  47.3342209  61.3229752
  25.9175949  59.7440262  23.2595634  26.6373138  60.2083282  23.6869507
  25.4977760  59.2516975  23.9649677   3.5373447  44.6878700  33.7020836
   3.8096454  45.2764130  32.9980240   2.8147669  44.1842575  33.3272667
  74.6798706  51.8700981  12.4111576  74.3711548  52.7164726  12.7345352
  74.0067749  51.5908394  11.7905226  44.2870293  40.0424957  24.7420368
  44.7529144  40.7767029  25.1421928  44.5030327  39.2917252  25.2951355
  80.6281433  68.9547882  14.6491222  80.3123322  69.8220673  14.3955173
  81.2723694  69.1259079  15.3360910  56.7133865  60.8546906  62.6205864
  57.0116730  61.5765343  62.0672340  56.5109749  61.2651825  63.4612770
  57.7437859  47.3364029  42.7047539  56.9869957  46.8765602  42.3413773
  58.0987282  46.7341347  43.3586044  79.5709000  27.3845673   6.7443290
  79.7279510  26.5774841   6.2542419  78.7282333  27.2427464   7.1756468
  37.7399940  49.4924507  22.3028774  37.8280296  48.7224731  22.8646774
  37.5738907  50.2139091  22.9096222  86.3219986  53.7819405  27.5311947
  85.4043961  54.0265732  27.4111824  86.2999573  53.0825005  28.1842861
  22.8447208  29.7261028   6.8544979  23.2031155  29.6595840   5.9694214
  23.4723606  29.2555676   7.4030399  68.6577911  56.0906067  31.9731712
  69.0656281  55.2294388  31.8821335  69.3283157  56.7057762  31.6761875
  50.1553154   1.9833716  30.3923340  49.5517349   1.3445665  30.0130615
  50.2219772   1.7322938  31.3136101  80.5849152   3.0128083  25.9850483
  80.1126099   2.5833127  25.2718239  81.3829117   2.4947224  26.0900269
  14.7842350  64.0101471  80.1197281  14.4499512  64.7520218  80.6238098
  15.5769482  64.3437805  79.6995773  73.7872009  70.6783218   8.7793779
  74.6577072  70.3653946   8.5333633  73.1840668  70.1056595   8.3055506
  17.2505093  23.9287758  17.7207508  16.3956947  23.5355225  17.8964653
  17.4314671  24.4637432  18.4936008  69.8081436  32.9477158  38.2704048
  69.2323914  32.1989288  38.4255257  70.6772156  32.6386375  38.5261650
   0.1437090  55.6523323  15.0833387   0.3272860  55.5344543  16.0153446
  -0.2679333  54.8310318  14.8145561  29.6807060   6.7327709  38.4236717
  30.4019642   6.2873497  37.9791298  28.8913860   6.3750062  38.0172119
  16.5989227  56.0939980   9.6241245  16.8865185  56.9190865   9.2332897
  16.7181606  56.2204514  10.5654125  75.1264343  25.5763302  69.8484955
  74.2645721  25.9684544  69.7082825  75.2846069  25.0573540  69.0598984
  27.0349083  13.6752319  10.5035419  27.4123268  14.3804550   9.9777594
  26.7234383  13.0377769   9.8609924  29.8323650   4.0947104  23.0074596
  29.6053524   4.0970793  22.0775719  30.1578045   3.2097545  23.1723022
  64.2341461  23.6287365  18.6246643  64.3754501  23.4105129  17.7034454
  64.2721176  24.5847664  18.6528873  81.7115326  53.2817307  26.7159710
  82.6378708  53.0490150  26.6528282  81.4245987  53.3713036  25.8071938
  50.2409096   6.6529255  45.5125885  49.5294571   7.2897630  45.4454765
  51.0385132   7.1816912  45.4908676  69.6016083  18.4552574  37.0771141
  68.8356323  17.9724369  37.3875999  69.5417175  18.4114075  36.1227989
  11.7827263   3.0187938  64.0195923  12.0601120   3.8187428  63.5730858
  10.9733534   3.2633193  64.4683151  84.2738953   5.3726239  48.4145584
  84.3396912   5.3963599  49.3692017  83.7583542   4.5876493  48.2294502
  14.4228601  32.9745445  18.9497528  13.7842083  33.5294228  19.3974857
  14.1085567  32.0822029  19.0952644  25.9957542  53.4751511  49.0579643
  25.1011009  53.1789932  49.2256432  25.9853897  54.4062157  49.2798691
  30.5604572  70.3245468  15.5821600  30.1806908  71.1335220  15.9250555
  30.1644669  70.2220688  14.7167578   7.3358731  12.5805683  66.1437836
   6.8900061  12.0860643  65.4561081   6.7842598  13.3507137  66.2810059
  16.6316986  52.3067970  63.2194557  15.7983093  52.4585152  63.6651802
  16.4574795  51.5739937  62.6287956   6.5901012  12.8609324   5.7396760
   6.9260001  12.2104864   6.3563800   7.3738661  13.2588482   5.3607197
  51.3687668   1.4339980  54.3029556  52.1006660   1.2227201  54.8825378
  51.6612129   1.1533817  53.4357986  37.3172874  49.5839272  48.0275536
  36.6179543  49.6068611  48.6807289  37.1402283  48.7953606  47.5146713
   0.3567086  12.4827280  52.1363144   0.2386241  12.2582111  53.0592880
  -0.1083955  13.3125877  52.0302811  30.7846222  46.7916260   0.7955201
  30.9016552  45.9412956   0.3718745  31.5623398  47.2916718   0.5478474
  22.6029434  35.5532913  22.2632275  21.8961754  34.9430389  22.4737167
  23.1943798  35.5030060  23.0141640  25.7366390  11.6418734  72.4457855
  25.2922802  12.4711657  72.6220016  25.5895138  11.4847708  71.5130997
  54.3178520  44.7122765  33.9231491  54.9035873  44.3202057  33.2755165
  54.6344681  44.3815193  34.7637367  36.4705620   6.5853171  12.1106644
  36.3975906   7.0887733  12.9214907  35.8824844   5.8407612  12.2372980
  24.3012428  48.9571419  65.7466431  24.4246750  49.8343048  66.1093903
  25.0736885  48.8131409  65.1999969  73.4457397  25.4017334  21.4412231
  73.9730072  24.6213703  21.6122551  73.9868011  25.9330864  20.8571415
  23.9276161  64.2070465  65.5782471  24.3078136  63.5977745  64.9454269
  23.0430183  64.3708878  65.2513275  75.9211502  45.2774620  55.3767700
  76.2365875  45.0301666  54.5075302  76.7160950  45.4676590  55.8748817
   4.0348811  54.2958183   2.7415869   4.8532567  54.5446091   3.1712329
   4.3002343  54.0124054   1.8666600  19.3500099  28.2266483  21.6913872
  20.2739372  28.0346470  21.5309925  19.3214378  29.1745358  21.8214855
  43.5279579  33.6146812   0.5173012  42.8263512  33.9396057  -0.0469712
  43.1615028  32.8317947   0.9284335  45.9411240  69.8305206  50.4431038
  45.6624870  69.7331314  51.3536606  45.3377914  69.2768173  49.9474831
   6.8097525  61.8633995  40.6273994   7.6028123  61.5286560  41.0460091
   6.3043575  61.0799141  40.4106903  60.2940331  27.1445637  59.5342751
  60.3984337  27.2021523  58.5845299  59.3772926  27.3725262  59.6887169
  60.0426254  67.5493164  41.5440636  60.4981537  68.0800934  42.1975174
  59.4062462  68.1468964  41.1514473  25.5049763  17.2152691  71.4450607
  26.2994308  17.6246586  71.7878113  25.7200909  16.2842007  71.3896561
  -0.2153040  35.7693329   2.8470335   0.0251908  34.9034882   2.5173237
   0.6098462  36.2538300   2.8719158  11.4260702  45.0759506  54.8857574
  11.0741987  44.3899612  54.3184509  11.3223219  44.7302208  55.7722893
  38.1662254   8.6561651  18.1126957  37.7338142   7.8028302  18.1454201
  37.4747429   9.2652969  17.8537750   0.6671343  57.4464684  82.2419052
   1.2226002  57.3343353  83.0133362   1.1846806  57.9942017  81.6516800
  84.5105743  50.1479912  68.1050110  84.8008957  49.4401932  67.5297165
  84.5145111  49.7616844  68.9807892  73.8680801   3.4499414  49.1961594
  72.9480133   3.6435404  49.0166359  73.9883881   2.5517352  48.8879662
  42.1555214   8.4709587  37.5611992  41.5170898   9.1430187  37.3225021
  42.4076843   8.0733738  36.7277870  76.2401047   2.1961839  61.7741318
  76.3060760   1.3094717  61.4197044  77.0139694   2.6472228  61.4366150
  18.6436024  67.4792328  80.7726517  17.6989002  67.4973755  80.6195450
  18.7686348  66.7814713  81.4158707  24.7280483  60.6236076  59.7871628
  25.2825851  61.3306541  59.4573021  25.1663952  60.3277855  60.5850143
  27.9607964   3.4922330   1.1775388  27.5546379   3.1318891   0.3892368
  27.8305054   4.4376178   1.1033485  70.0328369  28.8451157  69.5753326
  69.7729492  27.9704075  69.8644333  69.9535446  28.8156509  68.6218796
  40.5896378  64.9644775  39.7246246  39.6571503  64.9107895  39.5153008
  40.8729134  65.7961044  39.3446388  80.1533508  71.7633667  80.8208923
  79.7017670  70.9388809  81.0012283  81.0272675  71.6441116  81.1927490
  76.7233124  63.4657516  81.6076965  76.9757919  64.1234589  80.9596939
  75.8208618  63.6885910  81.8360596   9.4710026   9.8918066  18.1266632
   9.9237137  10.6935911  18.3882484   9.0048084  10.1304893  17.3254604
   1.8290212  23.1035423  70.3591156   1.7368912  23.8986855  70.8839874
   0.9925494  23.0205479  69.9012299  67.2799911   6.1291037  31.0481319
  68.2306595   6.2402134  31.0586624  67.1500778   5.1893730  30.9206142
  27.9263153   0.8761163  11.3122702  27.0613098   1.1218870  11.6402874
  27.7467880   0.2645388  10.5981455  10.7557173  29.9462662  48.7066193
  10.3286657  29.0914860  48.6499825  11.0495901  30.1268196  47.8137207
  79.9056549  12.7425632  48.9903145  79.9379120  11.7871447  49.0389595
  79.5049515  12.9257278  48.1405411  70.8275909  26.3708954  49.8346748
  71.3752365  25.5866299  49.7994270  70.8373108  26.7102318  48.9396973
  17.7121563  32.4483299  19.7567539  18.5625973  32.0887451  20.0091076
  17.1034832  32.1056480  20.4112129  36.8154640  44.6201134  62.7339211
  36.8118935  45.3400650  63.3647041  36.7676430  43.8299522  63.2720566
  43.6754303  63.1901970  78.8624039  42.9980087  62.7662010  78.3355637
  43.6405830  64.1105423  78.6016846  36.3739052  25.8878536  27.8801880
  36.5606804  25.1231842  27.3355503  35.5534897  25.6716328  28.3233528
  63.1954765  64.9160919  45.9387207  62.8558769  65.3876572  45.1781082
  62.7316780  64.0788345  45.9281311  64.7018127  58.4733200  56.7980728
  64.1334839  59.1145935  56.3714600  64.0983276  57.8590660  57.2160873
  26.8168697  61.0285912  39.1356010  25.9834061  60.8161774  38.7155418
  26.6304913  61.8100281  39.6560326  45.0855751  28.2357101  19.1772919
  44.5906334  28.3125954  18.3616009  44.9324226  27.3361893  19.4664993
  77.8056564   7.0862069  65.7885742  76.9717865   6.8622661  65.3753738
  77.9599686   6.3792310  66.4151535  11.8083763  17.7128010  18.9900780
  11.2056932  18.1473083  19.5935745  12.2498016  18.4298019  18.5347919
  73.5385971   1.0602410  74.6443100  73.5028152   1.7383084  75.3189774
  74.2896194   1.3013256  74.1020279  26.5833454   3.4796228   4.6196294
  25.7800159   3.8669295   4.9673152  26.2822399   2.8582692   3.9566915
  65.5290833  69.2657089  20.3197594  64.8939285  69.5543137  20.9751377
  65.0216141  68.7211685  19.7179356  16.1011200  40.2941437  24.1781883
  15.4028864  39.7343750  23.8385448  16.8486595  40.1178780  23.6069221
  20.7190800  13.2573528  52.0587692  20.1746330  13.4545345  51.2965813
  21.6174755  13.3523569  51.7423973  48.5661240   2.8125005  39.6970634
  48.8036003   2.6729209  40.6137695  48.9502754   3.6610785  39.4766617
  52.0207062  48.8326378  67.6942444  52.5765724  48.0588570  67.7865219
  51.4904785  48.8430481  68.4910965  62.6070976   8.8802385  25.7448502
  63.2565193   8.4514990  26.3022251  62.1980858   8.1639843  25.2591362
  40.0455170  66.8059921  84.3259964  40.2703590  65.9537430  84.6992798
  40.8894424  67.2324905  84.1772308  54.1291962   1.7234589  80.8658752
  53.4503784   2.1749978  81.3674240  53.9820557   0.7948721  81.0456161
  51.8115845  21.0747776  13.8532658  51.0748367  20.4769974  13.7264204
  52.3713722  20.9302502  13.0903873   0.1579026  19.1164799  70.6962357
   1.0108762  18.8218975  70.3770294  -0.3441560  18.3104668  70.8167038
  61.1929741  28.8715096  82.2244797  61.9270325  29.3564606  82.6015930
  60.4530983  29.0732460  82.7972946   5.6415119  47.3332596  63.7611656
   5.1152844  47.1850128  64.5468750   6.4949875  47.6114349  64.0934753
  36.0689125  52.8662949  16.9743023  36.3036270  51.9713631  16.7288609
  35.3317032  52.7640419  17.5762177  42.5922928  51.8876915   1.6197289
  42.5024490  52.6288338   2.2187881  41.8128510  51.3553276   1.7787603
  64.7078552  40.0787582  10.1476870  65.0301208  40.1836777  11.0428810
  65.4349213  40.3673363   9.5960274  77.2613297  20.1249390  22.2721272
  77.0931702  20.8418865  22.8836327  76.7473145  19.3932648  22.6137009
  38.7678947  60.1008453  43.1189690  39.0573006  59.2212448  43.3614044
  38.1697388  60.3580666  43.8205948  74.6994858  32.9600677  54.5913658
  75.2752228  32.1954041  54.5979156  74.7884140  33.3192825  53.7085915
  77.0698471   0.8715460   5.5510955  77.0284424   1.7724617   5.2303648
  77.3786240   0.3640586   4.8005333  12.8495550  44.4439964  87.6697693
  13.2397051  43.7148895  88.1518707  13.2863407  45.2217445  88.0169830
  17.2505016  57.3046341  83.3708420  17.7293053  57.1765594  82.5519562
  16.3439083  57.0862846  83.1548767  55.7644501   6.5200725   5.2356682
  56.5098991   7.0067983   5.5872874  56.1184311   6.0541663   4.4781308
  43.9095688  57.6344719  50.9196243  43.3581390  56.8659935  51.0665741
  43.6573486  57.9476814  50.0509949  45.4620171   4.9378352  24.7299747
  44.8178558   5.0394626  25.4306602  45.8592300   4.0821590  24.8920574
  44.7937927  68.7189941  53.1570740  45.5183105  68.1805725  53.4755135
  44.4812012  68.2622681  52.3760986  69.0790863  66.5494995  13.7606411
  69.0264587  66.3574677  14.6969032  68.6575623  65.8009109  13.3385420
  36.4718666  67.2853165   3.4097042  35.8307190  66.7751083   3.9045260
  37.3061523  67.1073685   3.8439012  74.9996262  68.6099167  26.6284752
  74.2455673  68.8387070  27.1718788  75.7481155  68.6633530  27.2227249
  18.6860867  63.6762123  54.9677467  18.6236076  62.8361206  54.5132484
  18.3392315  63.5015831  55.8426361  60.9729996  52.0173607  86.7157516
  61.5420799  51.7170372  87.4244003  60.1451569  52.2294731  87.1469269
  71.1174088  11.6194363  56.2493973  71.5993271  11.6540041  55.4230881
  71.4507065  10.8369207  56.6884995   4.3678689  18.3294525  86.9773712
   4.1411152  17.4356689  87.2342148   5.0431437  18.5941372  87.6020126
  70.0452576   2.6361799  19.4014111  70.3254929   3.1413093  20.1646557
  70.2990646   3.1743913  18.6516495   6.2024155   3.5014608  55.4871941
   6.3166108   2.5551739  55.5751305   6.2825274   3.6660962  54.5476685
  79.2388458  19.5428772   9.0322638  79.4230499  20.4486904   8.7836561
  78.3736115  19.3645840   8.6637449  50.7905464  41.0819817  81.8489609
  50.1610756  40.6360779  81.2822418  51.5540428  40.5047531  81.8596420
  36.0258026   8.8431654  73.4977646  35.5686264   8.5976019  74.3020782
  35.6180954   8.3073511  72.8173904  62.8156013  15.1967249  45.8686333
  63.1166954  16.0528870  46.1728706  61.9389420  15.1046572  46.2417641
  68.4474182  69.3823624  70.6204453  69.1015625  68.7663116  70.2905731
  68.0328293  69.7357254  69.8333740  84.4248734  18.8968201  37.9361954
  84.6886597  18.0327015  37.6200523  83.7771759  19.1976032  37.2988129
  81.2581100  27.3222923   2.7433944  81.9795151  26.7188892   2.5653353
  81.6836700  28.1660118   2.8959277  55.7654610  53.4726295   7.7102442
  56.4132996  54.1270599   7.9715080  54.9862709  53.6892357   8.2222757
  70.5324554   4.1975212  65.0254135  69.7448044   4.5888996  65.4031219
  70.2590332   3.3202746  64.7572556  24.3458633  58.7779541  65.2798538
  23.9653416  57.9510078  65.5758209  24.2989464  59.3507423  66.0453262
  83.7292862  53.1212883  71.3593597  83.5858841  53.9001694  70.8217621
  84.6524582  52.9056473  71.2271347  33.4231033  18.3511143  26.5669041
  34.2298660  18.5477428  26.0907707  33.5097275  18.8281956  27.3922062
   7.5984478  13.2466888  42.7686348   8.2801847  13.2224255  43.4401093
   7.9908562  12.8093548  42.0129967  62.2122841  58.0068932  13.0374699
  62.3528404  58.9313126  12.8327217  61.3026810  57.9624748  13.3322229
  27.0158195  57.5524673  33.5333138  27.7579880  56.9507561  33.4753113
  26.3018723  57.0957603  33.0884209  76.7521973  16.2148457  43.6658249
  77.2365189  17.0339966  43.7690430  75.8515244  16.4378624  43.9009590
  52.5359497  29.9907169  80.2798615  53.3315735  30.4978390  80.4412460
  51.9913712  30.1475391  81.0512695  68.4703369   9.5160608  11.4117002
  68.9449463   8.6954727  11.2790051  67.7819214   9.5048103  10.7467260
  33.5341034  22.3041687  83.9502792  34.4524994  22.5534344  83.8470917
  33.5528984  21.5685863  84.5624847   3.0746028  61.6478004  50.6829338
   2.7946332  62.3719673  51.2427788   2.5872567  60.8910446  51.0085831
  52.4093704  69.2843094  75.5038223  51.8821144  68.6930084  74.9666138
  53.1014557  68.7288971  75.8626633  44.5840225  59.6832314  63.2828217
  44.3180542  59.6423035  64.2014160  43.7936325  59.9554100  62.8165245
  75.3901367  44.3837624   1.1103745  75.9292450  45.0347137   0.6610948
  76.0043182  43.6913338   1.3544071  85.2065430  45.3851318  55.1105156
  85.3245087  44.5611115  54.6379623  85.6851654  45.2617874  55.9302330
  77.1715088  67.3969498  35.0496330  76.8930817  67.7763062  34.2160835
  76.3558807  67.1433792  35.4817085  41.7688980  12.5039139  19.1540871
  42.0627632  12.0768900  18.3493958  41.2223320  11.8483057  19.5873032
  81.1760254  14.4850807  29.5562630  81.4540863  15.2990713  29.9761848
  81.3915253  14.6068239  28.6316166  80.4367905  26.7791462  54.6301842
  81.1927719  26.2423534  54.8680305  80.7609482  27.6790371  54.6669083
  17.1003990   4.5620213  83.7368469  16.5374413   4.2969913  83.0094681
  17.9888821   4.3801694  83.4306412   5.3260598  33.4173851   9.7025576
   5.2799716  32.5500069  10.1047525   5.3208818  34.0249405  10.4422054
  79.2822342  43.7280197  64.8947525  79.5835876  44.0093765  64.0308914
  79.8552475  42.9955673  65.1214752  63.6249619  60.7650375   3.3695579
  63.3881531  60.3799667   4.2132840  62.9700928  60.4259911   2.7592928
  55.7825050   4.6878500  72.6323929  55.9588737   5.4142170  72.0344696
  55.6851997   5.1017790  73.4899673   6.5195980  71.1694107  13.2232704
   7.0622578  70.4238358  12.9666061   5.7770095  70.7780457  13.6833048
  39.2963562   7.9205236  41.0271568  40.2382278   7.8203583  40.8890457
  39.0138016   8.5130272  40.3304939   8.1510010  61.4190521  44.4937286
   8.0058737  60.9477615  45.3141289   8.9671783  61.8989601  44.6343460
  67.6996384  51.0899200  54.0473976  66.8725586  51.1012001  53.5656891
  68.2508926  50.4757538  53.5624657  42.6206055  52.6556778  79.4845734
  43.3062592  52.5739059  78.8216782  42.4443703  51.7557983  79.7591400
  81.5811234  49.7557411   0.3062221  81.5379944  48.8399162   0.0311994
  80.8952484  50.1905365  -0.2004940  11.7790613  45.0626717   7.3149810
  11.3216562  44.2797089   7.6215410  12.5138102  45.1632042   7.9201832
  48.6747971  63.3759613  63.5430946  49.0780678  62.5499077  63.2761879
  48.3792686  63.2194328  64.4399796   1.7801691  43.8007278  27.1664658
   1.2985809  43.8254280  26.3396072   2.5841873  43.3236008  26.9611950
  39.2254868  52.8434525  29.8540840  40.1066513  53.1156425  30.1103916
  39.3645821  52.2313461  29.1314411  79.4921188  52.5126076   6.0615716
  78.5366135  52.4584846   6.0789948  79.7377777  52.7030220   6.9669042
   4.2217040  45.8200150  18.6357155   4.4298530  46.6383324  18.1848717
   5.0734282  45.4204979  18.8123016  66.0516968  35.4050560  34.2307816
  65.6655426  35.7660179  35.0287895  65.7715912  34.4897995  34.2219467
  51.0126762   6.1569009  42.9873009  50.9407349   6.1242027  43.9412346
  51.4024200   7.0120878  42.8056755  14.1375990  60.6566124   5.9913926
  14.4875193  61.4852905   5.6641579  13.9847431  60.8125229   6.9233580
  66.9118423  34.0435677  28.5283222  66.1339569  33.9273605  29.0738735
  66.5674438  34.2845421  27.6683502  62.0154572  35.9167099  71.2888260
  61.3870392  35.6306267  71.9517593  61.8725700  36.8602791  71.2147369
  15.4600649  63.1025620   8.1891031  14.6159897  63.4836540   7.9471579
  15.5809126  63.3505516   9.1056881   2.3369617  63.2680321  16.1437626
   2.3527722  63.1105728  17.0877914   2.1338511  64.1996536  16.0597000
  64.2078857  56.0623055  20.0720787  63.7827492  55.3768692  19.5566483
  63.7286491  56.0709801  20.9006233  22.0064201  21.4457970  83.0845413
  22.8477802  21.1575012  82.7306595  21.8253078  22.2690868  82.6310806
  85.6978226  20.0707321  54.6155930  86.0129852  20.8783875  54.2098846
  86.2699432  19.9437962  55.3724289  77.2512589  54.3764877  86.8584290
  77.2902069  55.1692963  86.3234787  77.8986435  54.5211449  87.5485077
  44.8958549  46.0021706  77.3670807  45.3082581  45.2862549  76.8837357
  45.6187325  46.5891342  77.5887909  80.4114304  29.4539547  48.2734222
  81.0055847  30.1416893  48.5738182  80.4518280  28.7865238  48.9583549
  36.2353630   0.9268861  36.7432709  35.9372215   0.9013143  35.8340492
  36.0978394   1.8343469  37.0149956  53.7466011  39.2318344   7.7584972
  53.0965462  39.6362267   7.1839299  54.0491943  39.9468117   8.3183823
  58.1577187  62.8410263  82.7061844  58.4739952  63.3142738  81.9366150
  58.8452454  62.9620667  83.3610764  82.8494034  58.4156303  10.3900652
  82.9713516  58.0119934  11.2493887  82.0200653  58.0580063  10.0729895
  43.5400009  62.3244057  17.7089691  43.3579178  63.1486359  17.2576103
  43.3065491  62.4944305  18.6215630  76.2814636  53.4634666   9.1489992
  76.1623917  54.1971130   8.5458279  75.9788437  53.7964554   9.9938498
  16.8346500  64.0756683  40.7308159  16.9944115  63.7994423  41.6332626
  17.6970844  64.0503159  40.3163338  40.3312645  56.0979347  60.5737076
  40.5643463  56.8431625  60.0200500  40.5932922  55.3305130  60.0651474
  66.0838394  26.3988628   0.0089079  66.0679398  27.2275982  -0.4698165
  66.8998413  26.4264793   0.5085141   1.3891586  69.1855392  24.5986366
   1.9763540  68.8084030  25.2537746   1.3112072  68.5070267  23.9279766
  32.1818771  48.8757896  47.5733948  31.5746841  49.3113060  48.1716194
  31.6183662  48.4604225  46.9205933  82.9369736   1.6055038  39.2305069
  82.2506180   1.1976678  39.7585373  82.8832016   1.1620575  38.3839302
  19.0268478  51.7785072  11.6459951  19.8713818  51.5702858  12.0455456
  18.9096813  52.7146454  11.8077135  74.5907135  21.9049606   3.0630229
  74.5142212  21.7585297   2.1201870  74.6795120  22.8539085   3.1515992
  32.6029434  22.9186096  76.8630829  31.8139076  22.8864841  77.4040375
  33.2437134  22.3936481  77.3427277  37.0794563  36.0245247  87.4786530
  37.6343765  35.8197289  88.2312241  36.4058723  36.6072578  87.8292770
  73.8150330  60.6133995  80.9984818  74.6092529  61.0389290  81.3215408
  73.6690140  61.0019722  80.1359711  43.9304237  13.0997658  87.3608322
  43.7826157  14.0454187  87.3720551  44.8824348  13.0057430  87.3934402
  34.7517128  65.1548157  30.8023643  35.1101494  64.7847977  29.9956169
  33.8372345  65.3449402  30.5930405  85.0861816  40.3956947  41.5626678
  84.7735977  40.2107697  42.4482880  85.0394821  39.5528793  41.1113281
   3.9595392  67.7850494   4.2595534   4.5849833  68.5096512   4.2561617
   4.1519589  67.2988129   3.4578197  43.2292023  40.9066048  75.5489960
  42.6342888  40.5202026  74.9063416  42.6583252  41.4017754  76.1364822
  75.5942230   9.5448198  56.5461731  74.8480606   9.7213831  57.1191406
  76.2041931  10.2618675  56.7194290   7.4715834  63.0171127  62.4008064
   7.7329822  63.8727112  62.0604324   8.2892103  62.6172676  62.6971855
  11.9351864  37.4215546  21.5771961  11.1893921  36.9522247  21.2033596
  12.4168301  36.7547569  22.0667171  29.8853931  67.5561371   7.9833002
  30.0100803  68.3704071   8.4707994  29.0994473  67.1659546   8.3657608
  82.1847305  63.6496849  35.3510513  81.7860107  63.2271805  34.5902977
  81.5151443  63.5963020  36.0329895  39.4188652  57.7943649  26.7895126
  38.9710083  57.8337631  25.9444656  40.0440254  57.0755730  26.6959782
  40.9372597  58.9793930  85.3343124  41.4660110  59.7726784  85.4200516
  40.0407944  59.2697334  85.5024948  67.9032135  15.0549736  41.7353401
  67.0666504  14.6130505  41.5900917  67.9499435  15.1734848  42.6840248
  69.7838821  14.4644871  34.0718842  69.5908279  14.5018196  35.0086670
  70.6491623  14.8653984  33.9894943  34.9178391  31.2086029  10.5857296
  34.3949280  30.8399620  11.2976961  34.3860283  31.0709629   9.8018541
  13.4367867   2.2427018  29.1617241  12.8215742   1.8487747  29.7802448
  14.0325203   1.5302587  28.9298668  71.6136703  31.6275444  24.2337799
  72.3565903  31.1085796  23.9255981  71.7845993  32.5097733  23.9041042
  19.1097183  34.6302795  67.2253571  18.5553837  34.1232834  67.8185654
  18.9636173  34.2360611  66.3654251  30.7619858  49.1076736  70.7249603
  30.2773609  48.8805656  69.9313660  30.2851429  49.8520699  71.0920181
  74.7778473  25.0130978  78.0549469  75.6859665  24.7847157  77.8564606
  74.6517944  25.8699551  77.6473465   3.1722696  58.5358276  45.0726967
   4.0389318  58.4706573  44.6715965   3.0474262  59.4729958  45.2222481
  64.2756577  61.2838478  21.6106644  63.9630127  60.3794746  21.6350346
  64.5530548  61.4170303  20.7042732  37.2179070  49.6667023  13.7662106
  36.3802414  49.2781105  13.5141354  37.7478752  49.6308022  12.9699211
  70.7386627  14.3311214  12.3075495  71.2888031  14.2290154  13.0841818
  71.2677917  13.9799166  11.5913687  79.8781433  44.5012283  70.9552002
  79.3144150  43.8857079  70.4866104  79.4906845  45.3594475  70.7832642
   8.6590004  32.6682205  52.1516113   8.9925146  32.8384094  51.2706833
   9.0578175  33.3484459  52.6942635  19.7062531  67.7116776  31.1162930
  18.8339424  67.7331009  31.5097980  20.3052235  67.8139343  31.8558941
  68.8527451  50.4576797   5.6946545  69.2790298  50.4012032   6.5498300
  69.5540695  50.2877846   5.0657568  68.0406342  24.2171078  16.7562160
  68.9336395  24.0318680  16.4656029  67.5504303  24.3614063  15.9468250
  46.7118034  10.3348036  84.9802551  47.4640045  10.5871706  84.4447708
  46.4995804  11.1222401  85.4813919  86.6727905  13.2349062  81.5659790
  86.4064026  12.6652479  82.2876129  85.8854828  13.3255157  81.0291748
  76.7545776  57.0410080  34.1628342  77.4735718  57.4048958  33.6462479
  75.9646988  57.2913933  33.6836319  84.5285187  39.2890244  51.1099968
  85.2866516  39.3525314  50.5291061  83.8315582  39.7526321  50.6457291
  54.8019867  13.2502928   0.8450449  55.1668854  14.1167374   0.6651677
  55.5101013  12.6429672   0.6306509  85.0894089  30.2357407  22.0963345
  85.5661545  30.0541344  21.2864208  84.2280350  30.5349884  21.8052635
  75.1572342  62.0703011  73.6334763  75.8649750  61.6467667  74.1192169
  75.0342789  62.9112358  74.0738678  63.5025978  18.1797123  45.5599594
  62.5583267  18.3244629  45.4996910  63.8899918  18.9496078  45.1435242
  27.8663216  50.5248260  54.5401382  27.2086048  50.5221558  55.2355766
  28.5488834  51.1156921  54.8582840  32.8005905  15.1054449  13.5650015
  32.3663216  14.4992619  14.1651545  32.0920525  15.4584932  13.0268946
   3.2618563  35.6392555  35.2742729   3.6479778  35.3070412  36.0846901
   3.1068902  34.8571587  34.7446098   0.6086721  50.2511902  24.7718410
   1.1709905  51.0258064  24.7733250   1.1964446  49.5281219  24.9907589
  41.3125153   6.1377664  34.0992279  41.2049408   5.8517680  35.0063477
  41.2352638   7.0910606  34.1378899  67.8149033  15.8962975  55.3879280
  67.7064133  14.9641724  55.5766182  68.7490616  15.9964485  55.2047729
  49.1959801   8.4956837  22.6454601  49.8835220   7.8311238  22.6020832
  48.4395599   8.0344343  23.0078182  17.3756523  62.1351891  13.8257427
  16.7788601  61.3920975  13.9145441  17.5710793  62.3943672  14.7262239
  30.5463715   4.9888473  30.0106277  30.8892593   5.8581944  29.8035145
  30.4799671   4.9788036  30.9654694   5.8010898   1.8414575  42.0746498
   5.4872465   2.3628900  41.3358383   5.1140804   1.1903776  42.2172852
  58.8132133  60.2080307  76.1802902  59.1952400  60.2550735  75.3038864
  58.9250336  61.0888481  76.5379028  67.0117035  21.1259632  47.1079750
  66.2055817  20.6579227  47.3255539  67.2906036  20.7477703  46.2740555
  37.8471375  15.7017107  36.0264511  37.9773140  16.4569035  35.4528961
  37.1812057  15.9877853  36.6516953   9.3649244  31.8051872   7.0624084
  10.3138685  31.6799984   7.0543499   9.2488775  32.7510986   7.1519256
  49.3031769  42.4866562  63.8263550  49.8838692  42.6974907  63.0952072
  49.1227913  43.3307762  64.2400665  44.4089127  11.6563063  23.6514015
  45.0299988  12.2615662  23.2462597  44.9183578  10.8619051  23.8114738
  25.2904510  56.3234177  49.6261368  25.1644630  56.8386497  50.4229431
  24.4304752  55.9422989  49.4488754  75.7327728  10.6090584  73.8589325
  76.6786880  10.6259966  74.0044785  75.4825058  11.5312634  73.8029327
  55.9077415   2.0031044  72.5023804  55.9268265   2.1620443  71.5586548
  55.5840721   2.8224406  72.8767548  55.7898064  21.1584129  78.4146576
  56.7160912  21.2291050  78.6453857  55.5121117  20.3235512  78.7916489
  84.7318802   7.1139078  13.5324755  85.1949234   6.2947297  13.7078772
  83.8128052   6.8577685  13.4554491  40.9199295  63.5414543  52.5903893
  40.6111336  62.8755684  53.2047806  41.8641281  63.3950348  52.5331078
  26.6120052  67.6716156  20.1576748  26.3110886  67.8256836  19.2621613
  27.0546436  68.4835968  20.4046421  74.5951843  59.7343063  25.8235493
  73.7003403  59.3999901  25.8845673  74.4968948  60.6862907  25.8407612
  46.2071228  52.8158951   5.9446130  46.7193184  53.5004692   6.3750153
  45.2960510  53.0635643   6.1022301  85.6040344  16.9723816  68.8581085
  86.4066238  17.3020821  68.4539108  85.9082184  16.3952408  69.5585480
  52.1036186  64.2440948   4.9673319  52.5189056  64.1759567   4.1076064
  52.7703705  63.9348907   5.5805750  15.1161900  38.9135933  19.6403980
  15.6741257  39.1258240  18.8921337  14.5299721  38.2300568  19.3158073
  56.0180969  55.6348648  67.3739624  55.4298325  56.2945633  67.7413483
  55.6637688  54.8003654  67.6810379  78.6136551  50.4205055  37.7374687
  79.0305786  49.5592003  37.7137871  78.8362045  50.7706947  38.6000633
  71.5416336  27.8200092  78.8367996  70.9295044  27.6836491  78.1136627
  71.8874741  28.7012005  78.6949234  54.4824944  18.8271255  53.8557434
  54.1415253  17.9332123  53.8258705  55.0172234  18.8531113  54.6492310
  35.0975533  56.5984840  70.5303040  35.3482628  55.7551308  70.9073105
  35.6901207  56.7144585  69.7875748  83.8543396  39.3913345   9.1990633
  84.7192383  38.9812279   9.1980944  83.3845825  38.9579811   9.9116430
  85.3846817  46.0913162  27.5423622  84.9200058  46.5988655  28.2077217
  86.3001785  46.3544579  27.6364269   1.9597361  40.0473824  39.1159248
   2.0992534  40.9919510  39.0484428   1.7324797  39.9038658  40.0346146
  69.6611710  39.4439850  58.6359749  70.0428009  39.5204277  57.7614784
  69.2949600  40.3102455  58.8140488   7.1748710  30.7787933  45.1238327
   7.8563585  30.7683601  45.7959175   6.4302783  30.3359032  45.5308456
  32.9819565  46.5624733  19.0548687  32.8877068  46.0679932  18.2407188
  32.0834579  46.7486534  19.3273983  13.5981283  39.8760300  88.3222656
  13.7948303  39.9215164  87.3866043  13.9816589  39.0467415  88.6076050
  71.8174210  17.5335522   1.1248587  71.8373718  18.4427471   0.8261977
  71.1707916  17.1101093   0.5602341  45.1442299  31.1850109  26.4072571
  45.3148575  31.0108814  25.4816246  46.0079384  31.3588219  26.7814560
  66.9430923  50.6664009  71.1956863  66.2879791  49.9699631  71.2408066
  67.4012222  50.5111313  70.3697052  82.3752441  34.9560051  12.6184368
  83.0400772  35.5580254  12.9527893  81.9638519  35.4306488  11.8961449
  79.5146713  37.7607422  65.4782028  80.1440811  37.1057587  65.7799911
  78.9255905  37.2776604  64.8986816  41.1865234  27.5851879  18.5090637
  40.4459801  27.2711411  17.9902172  41.7728500  27.9893456  17.8694458
  40.8910255  11.9680729  83.8959122  41.5122452  11.4266243  84.3828964
  40.0717659  11.8913879  84.3849564  42.0826035  58.3194962  41.0122986
  42.4126129  59.0648727  41.5140381  41.5105782  58.7099457  40.3515663
  48.3783188  52.8929596  11.5974064  48.0670624  52.7911873  12.4968472
  47.9427261  52.1920166  11.1124630  80.2134476  28.6883450  45.7160873
  81.1059723  28.3453331  45.6716080  80.1028137  28.9503384  46.6300621
  32.1064148  53.4788818   5.0427976  32.4884834  53.2450180   4.1968875
  31.2849083  52.9888763   5.0782399  11.1973886  41.6772995  28.1619816
  11.8571291  41.1955910  27.6630497  11.3044510  42.5871544  27.8846111
   0.0359916  65.7173080  25.9045296   0.8291549  65.8616409  26.4205647
   0.1643945  66.2439499  25.1156063  30.1817074  17.1969700  84.4622650
  30.9044285  17.7587929  84.1825180  29.3969364  17.7245846  84.3139801
   7.2487369  35.1784973  66.7198792   6.6822939  35.9249039  66.9154587
   7.9324994  35.5382996  66.1548615  68.5884018  24.7790775  56.2400398
  67.8096313  24.7131062  55.6874161  68.3774033  25.4681950  56.8699837
  19.2812138  10.0906963   4.6363068  19.1952362   9.8446693   5.5573444
  20.0575581  10.6499748   4.6092572  33.2955170  66.4418182  65.1250916
  32.4656448  66.8638153  64.9026871  33.4213829  65.7850952  64.4401779
  71.1475372   0.7859133  88.4530411  71.1680756   1.7085420  88.1989441
  72.0500870   0.5856476  88.7010880  83.6294250  42.6016045  74.0822220
  82.9051208  42.7332573  74.6940079  84.3204575  43.1823997  74.4006195
  33.1787338  36.9242325   1.1499306  34.0526962  36.7945251   1.5181607
  32.5878296  36.8319550   1.8972915   0.6621048  41.6423683  17.2295723
  -0.2301209  41.7689819  17.5522709   1.1491286  42.3921051  17.5715256
  18.9637165  40.8716011  84.7434921  19.8271484  40.4584427  84.7393799
  18.4090729  40.2625275  85.2309723  17.4073734  19.2782669  25.7171917
  18.1299324  19.5366478  26.2893620  17.6471462  18.4046040  25.4082375
  76.0366058  29.0979366  18.1905289  75.8158875  28.1793556  18.0365086
  75.4573975  29.3671532  18.9034634  15.7805767  42.0470695  59.1868248
  16.0634155  41.9190140  58.2813759  15.1146164  41.3739967  59.3271866
  32.4800224  44.5238152   9.8073053  32.2503052  43.5954590   9.8475313
  31.8594360  44.8972130   9.1814642   3.9279776  49.2426033  44.1118240
   3.3045218  48.9463768  44.7749901   3.5136409  50.0113869  43.7199936
   9.1862326  40.0212021  54.7148323   8.4708872  39.4902306  55.0649452
   9.9809046  39.5666389  54.9942932  74.7897873  53.1843758  26.2541561
  74.2661438  52.3860435  26.3227119  74.7825851  53.3961182  25.3206959
  57.0698853  66.4965439  26.5504475  57.0147820  67.0914078  27.2983360
  56.1751900  66.4524002  26.2130966  58.0084801  23.8352242  79.7531128
  57.9997597  24.1751881  80.6478653  58.0842018  22.8868046  79.8579788
  80.6130524   7.1926646  82.8169403  80.1378174   8.0167990  82.7111969
  81.3862000   7.2889709  82.2608795  11.9027500  47.1958504  32.2824669
  11.7137899  46.3504677  31.8752155  12.7219667  47.0552483  32.7571716
  36.7851753  46.2596779  87.0513687  36.4538002  45.3680878  87.1585541
  37.0731773  46.3001404  86.1394196  14.1217947  63.2049713  84.7078247
  14.0365448  62.4751244  84.0943985  14.3295298  63.9588318  84.1557541
  49.3927994  55.8739853  78.2115250  49.4705086  56.7905540  78.4762802
  48.6371307  55.5469322  78.6996155  67.3192291   4.3244257  55.8186798
  66.9582214   5.0992312  56.2494698  66.5924683   3.7018647  55.7971649
   4.8129745  60.5107765  80.8064194   4.0808864  60.4411392  81.4191437
   4.7743011  59.7030563  80.2942429  33.1140785   0.1807502  22.6248951
  33.5549660   0.0698115  23.4672394  33.8188057   0.3879092  22.0111523
  73.1645813   1.1965542  58.7892799  74.0932999   1.4219919  58.8430214
  72.8765945   1.5650686  57.9541168  71.4777451  26.3064423  65.8844452
  71.1934738  25.5386982  66.3804169  70.8342590  26.3886299  65.1806030
  11.6946201  17.4457779  49.5175133  12.5592947  17.1188030  49.2692032
  11.7041864  17.4453545  50.4746666  49.9972534   0.5227526  18.1772976
  49.2338867  -0.0269817  18.3542080  49.7529564   1.0298843  17.4031105
  60.5304871   9.2045126  73.2609253  60.6991043   8.6972504  74.0549545
  61.0731506   8.7884159  72.5911331  66.4426956  44.0511436  51.8250732
  66.8676758  43.1947708  51.8725548  66.4980087  44.3957214  52.7163887
  10.7682266  50.0503197   7.7377300  11.1831942  49.6497459   8.5016518
   9.9503956  49.5653000   7.6275449   4.9502382  67.2893982  19.1726723
   4.5631728  67.5202789  18.3282146   5.4872055  66.5189667  18.9873962
  40.3572159  46.7352867  78.2442398  40.6815453  46.4974785  79.1128540
  40.0346375  47.6307411  78.3459015   6.3776984   9.5625772  65.2424316
   5.4448061   9.7669735  65.3069839   6.5966573   9.1729631  66.0888901
   6.8499999  54.7350845  63.9976425   7.0263977  54.2476921  64.8023529
   6.2859364  54.1556702  63.4854507  58.1448135  45.1805305  44.4510765
  58.9736595  45.0633469  44.9153099  58.0958862  44.4325600  43.8557777
  66.8509445  61.8874359  14.4709721  66.5296402  61.2082787  13.8778954
  67.6143723  61.4944267  14.8939962   8.4889612  16.4270115  23.9659882
   9.4106283  16.3492298  24.2123852   8.1924829  15.5231695  23.8592091
  39.8919640   6.5603862   7.2694416  39.7546577   7.4524174   7.5882816
  40.2950020   6.6731143   6.4085789  35.1965561   8.7311201  46.7475510
  35.7543106   9.1485758  46.0911407  35.5462151   9.0329981  47.5859070
  23.4106121  44.7189522   0.3933034  23.1035995  45.6173096   0.5154812
  24.2566051  44.8124275  -0.0446314  64.5583801   8.9391747  55.7656860
  64.7756577   9.1534433  54.8584328  63.6069946   8.8338413  55.7656593
   7.3519816  49.6693535  14.4606247   6.7380300  49.0041695  14.1494522
   7.1065645  49.8129616  15.3746157  78.3960114  18.5117359  74.0467529
  78.7994156  19.2511539  74.5014572  77.4745026  18.7564793  73.9621201
  65.3034134  50.7583923  57.0010109  66.0250549  50.9016266  56.3886871
  64.5211487  51.0177765  56.5141716  43.1883507  39.5420303   6.6252203
  43.6658859  38.9158516   6.0810771  42.6256485  40.0130882   6.0106463
  11.0209560  30.5390720  68.8626175  11.1061554  30.8947525  67.9780426
  10.0864353  30.3551159  68.9578171  47.7999611  55.5627174  21.3460712
  47.8354988  56.3874931  20.8615990  48.5615921  55.0712547  21.0384769
  77.9273834  14.4941301  24.7484322  78.2282410  13.8983345  24.0623207
  78.5218201  14.3348112  25.4815769  67.6466064  51.0518646  62.0907135
  67.1299515  51.1104965  62.8943710  67.5669250  51.9179688  61.6910286
  72.8288269  35.5130119  13.6723537  73.1452332  35.8288803  12.8259802
  72.0406799  36.0292778  13.8412600  77.3438950  31.0810432   6.6966977
  77.2447281  31.6153526   7.4846773  78.2499619  31.2237549   6.4230027
  57.2725105  17.2621441  82.0941391  58.0463295  17.0713043  81.5640259
  57.5195694  18.0288239  82.6112442  49.8939285  13.6679564  86.6748581
  49.8594627  14.5404463  86.2826843  50.6910934  13.6748314  87.2046814
  11.4379301   2.1187632  60.7071114  10.8377161   1.9150298  61.4243774
  12.2744160   2.2953572  61.1376228  67.7528687  62.6050720  88.7166672
  67.2686615  61.9430771  89.2101669  68.6592102  62.2974396  88.7287140
  65.3788757   2.8758512  33.5469666  65.3343277   3.2263310  32.6573524
  64.9469376   2.0235143  33.4905052  80.4565964  20.8336620  55.9323044
  79.7423859  21.4345894  55.7201271  80.0489273  19.9676151  55.9322701
  42.3655205  62.1334801  48.4858208  41.7675743  61.4034767  48.6464119
  43.1742935  61.8833389  48.9325256   0.9863096   9.3920736  43.5987587
   1.6219492   8.9112720  43.0686417   0.4574730   8.7111998  44.0146599
  49.0658493   2.9343355  48.5722160  49.0863953   3.6024859  47.8871002
  48.1653976   2.6097739  48.5633202   1.2151881  39.0162659  52.5653687
   1.0136888  39.9242897  52.3392639   2.1693470  38.9936485  52.6381760
  11.2130651   6.6580696  39.7011490  10.5343704   7.3078680  39.8838158
  10.7786970   5.8150501  39.8310509  10.9739914  63.8945351  26.3638783
  10.5976343  64.0003204  25.4901524  11.3684225  63.0224762  26.3507824
  38.1785278  12.5821457  32.7812233  38.4707603  12.9311152  31.9391727
  37.3809128  13.0726070  32.9799385  14.4960260  25.5998230  10.9370461
  15.2539892  25.5829391  11.5213737  14.1797457  26.5021877  10.9810343
   0.3199180  70.5603409   8.8092279   0.3763654  69.8701248   9.4700165
  -0.1121363  71.2869797   9.2581854  80.1462936  50.5873375  23.0049438
  80.8159256  50.6494751  22.3237896  79.5866699  49.8628807  22.7252769
  34.7228127   6.0698080  57.7437935  34.9982796   6.9010868  58.1302185
  35.4312630   5.8384814  57.1431122   2.2558677  31.9737206  85.8423004
   3.0205841  32.4548950  85.5262146   1.6070924  32.6519089  86.0304108
  71.0202332  69.5712433  23.7164154  70.4720306  69.4708328  24.4946365
  71.6490860  70.2530823  23.9527779  63.9979324  59.1388893  64.1059113
  64.0230560  58.9257774  63.1730728  63.6050224  60.0109940  64.1418610
  83.4196167  60.6530151  35.5496063  83.8605118  61.3776665  35.1060715
  84.1318436  60.1029434  35.8757706  17.2534924   9.4949636  28.1539421
  17.4960270   9.9135828  27.3280087  17.1014099   8.5787096  27.9224625
  28.3514595  64.5452423  60.7080727  28.7332458  65.4174347  60.6092949
  27.4439392  64.7087173  60.9648094  60.8215561  10.3483343  79.9492416
  59.9135513  10.2403631  79.6662140  61.1567345  11.0650492  79.4105301
   6.5365968  59.0631599  58.0438347   5.7919936  59.4933357  58.4642448
   6.4744997  59.3214531  57.1242371  72.7829132  18.0634232   9.9561682
  73.3173141  18.7774334   9.6085596  73.2937088  17.2736073   9.7786674
  75.6123123  48.5850029  24.3983574  75.9664078  47.8049927  23.9712372
  76.2481689  48.7926559  25.0830441  71.8237534  50.2013435  15.2329903
  72.3775787  49.8867455  15.9475145  71.8933487  51.1549454  15.2780552
  16.6680431   0.8067194   8.7967730  16.4008827   1.7252691   8.8302898
  16.0308456   0.3930479   8.2144623  73.4116364   7.0503693   0.7298662
  73.6574554   7.9248295   1.0317377  74.2408829   6.5761914   0.6687397
  20.8580284  39.4491425  64.9973373  21.3186226  39.3041153  64.1708679
  21.5475998  39.4373398  65.6611023  43.8430405  58.1787262  26.2061386
  44.0963326  57.2852135  25.9743862  43.2398834  58.4443741  25.5119762
  25.8525238  57.4706039  73.5188370  26.6593094  57.4663162  73.0037537
  25.3421688  56.7394905  73.1706314  50.6275597  71.6193924   9.4467173
  51.0833778  70.7808914   9.3734322  49.8502464  71.5182724   8.8973608
  54.4423599  57.4150391  57.9578857  53.7930183  56.7130547  57.9154053
  55.2460747  57.0185356  57.6216507  77.6973343  59.2164650  64.8895035
  77.2508087  58.3722954  64.8245010  78.1252747  59.3270683  64.0404663
   6.1134591   3.0171423  77.7599640   7.0211062   3.3174644  77.8070374
   5.9902372   2.5012856  78.5568008  64.6347961  51.3304443  49.9793854
  63.8163490  50.9980812  49.6107330  65.3133087  50.7747421  49.5959091
  22.5136566  13.6511831  82.9905319  21.8431358  13.5130997  82.3215256
  22.4523468  14.5826206  83.2024231  81.7183838  20.1787472   3.4103160
  80.8030624  20.1448994   3.1323307  82.1460419  19.4825668   2.9116478
  70.9231110  13.4754381  63.0723534  70.5682526  13.8685846  63.8696861
  70.3787689  12.7022257  62.9238091   0.7861360  67.1382294  22.7481022
   0.2117010  66.5952225  22.2082901   1.4014331  66.5190659  23.1408787
   8.8461246  34.9802742  80.0345230   9.6404676  34.7688713  79.5440598
   8.5475950  34.1393661  80.3809204  50.8341789   4.2446308   2.8337684
  50.4414330   4.9299293   2.2930756  51.7680435   4.2822108   2.6270783
  34.4903412  69.9429626  26.1848278  35.0584145  70.0917282  26.9407310
  34.3821220  68.9925385  26.1499100   0.0051330  68.9229279  68.4590988
   0.0975585  69.0450287  69.4039688   0.2482011  69.7690659  68.0833435
  82.3799057  12.9669800  43.3728638  81.6885986  12.4194059  43.0007133
  83.0799713  12.3523579  43.5928001  28.4800396   8.0541553  49.7830811
  28.9415035   8.4358759  49.0363731  28.8806610   8.4664135  50.5484428
  23.7586498  17.6102867  62.2241364  24.0137310  17.3509102  63.1095123
  24.0064507  16.8659172  61.6757355   0.7443607  28.0294209  76.4489441
   1.4115723  28.4865513  75.9369888   1.0498873  28.0951996  77.3536835
   8.4478760  32.8286514  36.1732597   7.9339423  33.5707054  36.4917908
   7.7958298  32.2066650  35.8504562  41.7292938  35.4166603   2.7961597
  41.9188118  35.5528526   1.8678458  42.5901451  35.3716545   3.2122662
  19.6388206   1.7709063  74.8395691  19.2520542   2.4295886  74.2626953
  19.4525585   0.9364901  74.4091187  76.5034409  17.3151035  32.5056114
  76.3926773  18.2527847  32.6628342  76.2613907  16.9029617  33.3349380
  58.1295395   8.9519529  72.0436859  57.6552010   9.2201405  72.8306503
  59.0525894   8.9990501  72.2926712   4.4380507  41.9978333  63.3034134
   3.8670154  41.7546234  64.0321121   5.3129740  42.0419693  63.6891479
  28.8520470   2.2005246   3.5558424  28.7100468   2.7239149   2.7670898
  28.3235264   2.6314147   4.2275801  71.2593002   4.6328917  17.5244656
  71.8411636   4.7409735  18.2767830  71.8391571   4.3730941  16.8085709
  11.8524790  11.8631535  72.0103455  12.0467224  11.3178349  72.7726593
  11.3376245  12.5900393  72.3607635  14.0495300  59.2212486   0.3882435
  13.1665878  59.5763626   0.4909061  14.2643204  58.8609581   1.2486430
   3.3434930   9.2052126  65.2471771   2.8390138   8.8658257  64.5078812
   2.6925135   9.6275234  65.8076324  10.6171188  18.6474648  12.8601923
  11.0429277  18.8554783  12.0285378  11.3307190  18.6347141  13.4980354
  26.1737099  59.7979164  15.2676115  27.0526237  59.4564552  15.1028481
  25.6473618  59.0218391  15.4596882  10.5847769  25.9844551  82.8486557
  11.4232159  26.3199062  82.5312881  10.6445646  26.0530796  83.8015213
  55.5598869  38.0465775  36.3298302  54.8399200  37.5304184  35.9672623
  55.9842300  37.4594040  36.9554405  84.9615097  48.0089226  66.3898239
  85.7526093  47.5145111  66.1754608  84.4531784  48.0109100  65.5787582
  20.3173542  49.1349182  80.3200378  19.8264580  49.1179581  81.1416016
  20.7102680  48.2643013  80.2577820  24.3949795  34.5448608   6.9792118
  24.1794014  35.0470009   7.7650948  24.6828156  35.2026138   6.3461723
  49.7055817  70.1260300  36.7341156  50.0160065  69.2790451  37.0542488
  49.0120277  70.3736343  37.3455963  22.3064938   2.7196298  26.0965405
  22.7578621   2.4610107  25.2930374  22.8506985   2.3675542  26.8008957
  81.8892975  14.5332260  49.5629616  82.6514893  13.9668312  49.6833458
  81.1922455  13.9403181  49.2822227   5.2107592  25.7600002   5.0733166
   5.6375556  26.6161156   5.1071749   4.7520323  25.7541218   4.2332172
  46.2068405  71.1349640  54.4022903  45.4780731  71.7233047  54.5997353
  45.8027382  70.3989868  53.9426460  71.5566711  46.2723808  34.4172325
  71.8690109  45.7177658  35.1321297  71.6358109  47.1647758  34.7542877
  49.4751740  18.8396187   7.5860896  48.7821655  18.3804646   8.0605888
  50.1679726  18.1871490   7.4833946  59.1263618  24.3415546  15.8187475
  59.5802498  25.1835232  15.7825813  58.4468231  24.4067688  15.1477757
  20.3535290   0.9095436  38.9822235  20.2660732   0.0183892  39.3204956
  21.1878796   0.9068493  38.5130959  73.6763992  37.6683960  73.4164734
  74.4764938  37.7641182  72.8998260  73.6486282  36.7393074  73.6450729
  85.0209351  35.6948891  67.3670044  85.6660233  36.4002113  67.4180984
  84.2425385  36.1087723  66.9941406  64.6957169  38.9554405  71.7238541
  64.7952957  39.1767387  70.7979279  65.2831650  38.2114906  71.8568268
  24.2198715  43.8846436  85.9276123  23.8601818  44.3730240  85.1871109
  24.1712952  42.9679985  85.6562576  11.1720505  39.5162621  19.0727539
  10.9851828  38.9985847  19.8559036  10.9147682  40.4077415  19.3079071
  57.9861336  62.9752846  25.2068386  58.6392517  62.5417938  25.7561588
  58.4425735  63.1485176  24.3835011  29.1150627  41.4497299  70.5330429
  29.2649441  40.5528069  70.2342224  28.2774010  41.6960526  70.1407700
  23.4713802  21.0486908  22.6017303  23.9716682  21.7854118  22.2507496
  22.9772797  21.4210014  23.3321285   8.0739174   2.3998175  20.2324924
   8.4181433   2.6212423  19.3672123   8.3393946   1.4905649  20.3703823
   6.9200597   1.5481353  60.4984779   6.5967617   1.8783500  59.6602249
   7.8186588   1.8732890  60.5534935  56.3026199  40.5177383  37.9055405
  55.7753296  39.9591904  37.3343811  56.6750412  39.9167747  38.5508156
  14.8879766  63.7061539  55.3614349  14.2911282  64.4428940  55.2302170
  15.6523590  64.0906372  55.7905312   1.0644430  19.4576054  49.2229309
   0.6841267  18.6999187  48.7785187   0.4853351  20.1847591  48.9946518
  80.3171463  21.9144974  73.8087158  79.5002365  22.1608143  73.3748779
  80.9397507  22.5942268  73.5507355  86.3781128  38.2555695  17.2090054
  87.0957870  37.8074455  16.7613869  85.9997864  38.8279610  16.5415707
  85.5615082  39.8133583  15.1869564  85.4501266  39.4085770  14.3267355
  86.0027618  40.6432495  15.0058327  59.0311394  60.6310692   8.3713665
  59.2392769  59.7737198   8.0000668  58.6380882  61.1170235   7.6463914
   8.1033516  49.5001488  50.6780167   7.8463893  48.5978241  50.8677902
   8.5338535  49.8000145  51.4786301  78.0033875   7.1170044   2.8326657
  78.3921661   7.9079790   2.4592416  78.6530609   6.4324260   2.6729293
  61.9276962  47.6080627  36.7057343  62.6368027  47.6317787  37.3482590
  62.3667145  47.7059402  35.8607979  17.2841206  69.3075867  77.5692444
  16.7714710  70.0852356  77.3485947  17.3297100  69.3141098  78.5253372
  20.7589321  56.2585602  86.6883240  21.5895348  56.0758438  86.2490692
  20.6763763  55.5648689  87.3427048  23.2752380  62.1953812  40.3486786
  23.4408283  61.3508034  40.7676048  23.2275543  61.9939346  39.4141350
  72.3554230  64.9666367   0.4065232  71.4220123  65.1651382   0.4811630
  72.7710800  65.5164795   1.0707017  15.1400442  53.5494194   6.4012389
  14.9817753  52.8670158   5.7489309  15.8847780  54.0421524   6.0565400
  11.3830948  10.4918613  49.2384567  11.8329649  11.3267918  49.1090698
  11.2723494  10.4239082  50.1867981  60.2593918  35.7867317  16.5544720
  59.7103653  35.0350533  16.3313560  59.6710663  36.5393677  16.4940872
  60.1636581  29.2303905  74.6745224  60.8185272  29.8976994  74.4693985
  59.3345947  29.7081509  74.6996155  55.6534462  11.5541725  51.9638710
  56.1950302  10.7673264  52.0254631  55.5074501  11.6715698  51.0251808
  71.6405182  37.0097733  64.7309952  71.3298035  37.8240891  64.3352814
  71.0727768  36.8808212  65.4907837  85.0946503  37.5456161  37.2354469
  84.2425079  37.2337189  36.9308167  85.5218201  37.8827133  36.4479675
  59.8442917  24.6295738  10.8141670  59.7748833  24.9886703   9.9295979
  59.4946938  23.7415676  10.7402849  83.8216553  65.7798996  68.2262344
  84.5289459  65.1357193  68.1946106  83.4142685  65.6464920  69.0820770
  66.5901718  28.2227039  62.8331108  67.4557800  28.4721699  62.5095139
  65.9949875  28.4370403  62.1147423  57.0586777   2.4331467  62.9340401
  57.2477074   1.5218626  63.1577835  57.8731308   2.8997319  63.1216469
  78.2005386  18.3691902  44.2710075  78.3607178  19.2882118  44.0565910
  79.0118942  17.9221058  44.0300751  11.2365322  27.6985111  64.4026031
  11.0347748  27.6945591  65.3382874  11.9807367  28.2948856  64.3205719
  82.5739212  28.3176308  51.8830986  82.6427383  29.1594601  51.4327431
  82.3201065  28.5446224  52.7776871  25.7673054  20.6545372  73.1840286
  26.6141834  20.2133846  73.2504730  25.2520218  20.2937050  73.9054947
  45.3081093  53.3228035  54.8678169  45.9627533  52.7886810  54.4179459
  45.7478714  54.1582642  55.0254402  48.6967010  16.1175518  29.9616737
  49.2746162  15.9593716  30.7081490  49.1861839  15.7914534  29.2064934
  65.3493500  20.2142544  41.2147484  64.4135132  20.4129639  41.2455864
  65.4129868  19.4488621  40.6434708  58.1100349  49.6183968  83.2729721
  58.2733421  49.0833321  84.0496750  57.3503036  49.2110405  82.8569183
  11.0691633  39.4839668  66.7209320  11.6928205  40.2095985  66.7480698
  11.5485821  38.7718086  66.2975845  64.8504639  63.0402260   1.0818385
  64.6915741  62.2434883   0.5756800  64.0425186  63.1743431   1.5772870
   3.3983150  57.5193481  32.8988991   3.8315649  58.2272148  32.4219818
   3.1622667  56.8843460  32.2226677   4.0855565  33.1605606  23.8984470
   3.7349710  33.9338226  23.4564228   3.5175989  33.0417442  24.6597214
  10.3652897  52.5167427  18.7582550  10.3141346  51.5987549  19.0245457
  11.2464361  52.6125374  18.3968163  47.3792229  61.1770515  49.2052803
  47.6416664  61.8553429  49.8275986  47.6677513  60.3579941  49.6079292
  57.2801857  61.9338570   6.4569631  56.6917992  61.3695374   5.9553819
  56.7605972  62.7157249   6.6438832  64.0533371  12.8792362  86.5902557
  63.8460541  11.9766121  86.3483200  64.3715591  12.8187246  87.4909821
  37.5038948  40.0572739   0.4066325  37.6823769  40.9929237   0.5011251
  36.8681679  39.8639336   1.0956210  32.1519928   3.4730458  87.3704987
  31.7989445   4.3545518  87.4910660  32.0705910   3.3088634  86.4310074
  55.5125999  32.9582443  72.5894623  54.6467514  32.6327553  72.3432999
  56.1038132  32.5837860  71.9364090  35.2859650  42.5013466   5.0512195
  35.9929543  42.5294380   5.6958971  35.5638390  43.1074600   4.3644547
  75.3107071  56.4087601  73.8033752  75.7071838  57.1459656  73.3390808
  74.5743942  56.1459465  73.2510986  47.1964874  33.1774063  27.4488201
  48.1488075  33.1097107  27.5176468  47.0141945  33.0527115  26.5174484
  71.7820206   0.5682871  18.5963135  71.2250443   1.2623821  18.9487953
  72.6301804   0.7040918  19.0186977  26.6133785   3.8612278  65.0865784
  26.3943748   3.2895501  65.8224106  27.4198818   4.3005471  65.3563538
  53.4662590  32.3927116  26.9583359  53.7496338  32.0204086  27.7933941
  54.1358337  33.0431404  26.7465630  69.1908264  62.8195763  12.1281748
  69.1535034  63.3503151  11.3324633  68.6003799  63.2612038  12.7385588
  28.1062851  51.2624702  40.4763184  27.1964664  51.0738983  40.2463150
  28.5092335  50.4010887  40.5853577  61.3969078  46.7251930  19.4242954
  61.4541359  46.0409737  18.7573624  61.1498604  46.2603455  20.2237434
  28.9655685  36.0371323  17.5759411  29.7350025  35.5225983  17.8197842
  29.2292500  36.9457817  17.7210560  63.1804390  27.8508415  57.6874619
  63.2119751  27.8426189  56.7308159  62.8997917  26.9671974  57.9254570
  39.5058174   0.4265901  47.2867126  39.3981323  -0.1996018  46.5708084
  40.2260704   0.9906948  47.0051994   9.2087431  44.2277756  37.3472252
   9.1450033  43.6286545  36.6034355   8.3953247  44.0932503  37.8335266
  29.7019939  14.6450901  12.8695021  29.1870880  15.2733078  13.3759089
  29.3243046  13.7934484  13.0892487  54.7137375  20.8299980  24.2325726
  55.0947723  21.3152294  24.9644146  53.9869232  20.3428459  24.6207199
  54.3374290  10.2647142  38.5534935  53.8399734   9.5030155  38.8511238
  54.3916245  10.8310833  39.3232498  68.5412674  54.4697495  62.5955429
  67.8331451  53.9271736  62.2485466  68.8707733  54.9486122  61.8350525
  25.3555946  66.9214554  59.3034096  25.7007160  66.1783981  58.8084564
  24.9638157  67.4897614  58.6402550  22.4794712   1.3651525  85.9222794
  23.0541210   0.6162086  85.7638779  22.3464928   1.3687484  86.8701935
  26.6267128  11.6793051  28.3931580  25.9084225  11.0660143  28.5486107
  26.6043034  11.8402691  27.4498558  66.0761566  18.4957371  17.2049465
  66.6881866  18.3060741  17.9160557  66.1608276  19.4382648  17.0610600
  29.0574970  42.0203438  31.8169422  29.7804470  42.4317284  31.3432980
  29.4837990  41.4406700  32.4481888  81.3999939  10.3499537   6.5257702
  82.0029755  11.0571880   6.2967238  81.6029892  10.1485586   7.4392600
  27.3714046  66.5143356  52.5829201  28.0837994  66.2332458  52.0087128
  26.7018147  66.8501968  51.9870377   0.1813421  55.3822327  20.1252480
  -0.0665898  54.4579964  20.1019535   0.6282516  55.5314026  19.2920284
   0.3950697  34.1331978  83.4375381   0.9562141  33.4623375  83.0485764
   0.5053698  34.0198441  84.3815842  53.3293533  51.5970192  72.8921204
  53.7764664  52.3789787  73.2159500  53.0290833  51.8383942  72.0158768
  55.9563522  67.1524353  21.3023243  56.2410240  68.0577545  21.4272079
  56.6091995  66.7752609  20.7126122  56.5766029   5.1432676   3.0537214
  56.1863098   4.4519429   2.5189564  57.4196968   4.7845874   3.3307979
  37.1072807   5.1288438  46.7678528  37.9758949   5.2240410  47.1585960
  36.5058174   5.1538839  47.5120621  51.7021103  39.1598701  77.9325790
  52.2100258  38.7374649  78.6252747  52.0046158  40.0680122  77.9335861
  49.7470551  69.0166702   3.7150497  50.2452660  69.1318817   2.9058881
  50.3816986  68.6642609   4.3389616  68.8103638  54.3401337  67.4321747
  68.9358444  55.2335434  67.1123199  68.9109192  54.4092903  68.3815613
  51.5989380  41.7719383  16.9719028  52.3796577  41.2184944  16.9921570
  50.8901596  41.1773529  16.7262764  57.5971184   8.2899380   6.4428406
  58.0106812   9.0001917   5.9521914  56.9476013   8.7262383   6.9942079
  22.7001171  66.7197876  36.6660919  22.6913643  66.8699646  37.6114006
  21.7777920  66.7438507  36.4112053  43.5242386  35.5473747  17.3317146
  43.9129829  36.1874504  16.7355499  42.6310654  35.4302177  17.0080700
  49.8106956  62.8635521  87.6771851  49.9671669  61.9936752  87.3096771
  49.8158646  62.7277298  88.6246872  64.0858231  60.6380577  38.7480240
  63.9710121  61.5869102  38.8002129  63.7599869  60.3108978  39.5864944
  73.0154190  46.8996353  19.7484722  72.9092255  47.0309143  18.8062820
  73.8330078  47.3491478  19.9622822  23.1386871  55.6165047  53.3679848
  23.0311813  56.4679565  53.7919006  22.8703766  55.7648239  52.4612083
  57.2815552  48.5814133  66.5156250  56.6128006  48.4561768  65.8423386
  58.1081429  48.3976212  66.0693054  15.0131617  26.4341621  86.8925095
  15.7198000  26.4567795  87.5377808  14.2551308  26.7918072  87.3547974
  49.0423584  67.3584595  76.3271408  49.5362587  67.3492584  77.1470261
  48.3209991  67.9664993  76.4888840  11.1383829  44.9643974  64.0049973
  11.0139008  44.0385666  64.2137375  10.3005724  45.2409706  63.6337624
  74.8580627  17.7439137  54.7778587  75.7084656  17.9002571  55.1884689
  74.5608902  18.6117897  54.5045242  56.0494576  12.2321739  86.9079361
  56.3967590  11.3782911  86.6500626  55.3181877  12.3840332  86.3092575
  49.7499428  55.4265213   4.8338466  50.4351883  55.1956787   5.4610510
  50.2192345  55.5899277   4.0157418   8.5478973  38.3109818  13.5499964
   8.3369570  38.5491753  14.4527702   7.6968260  38.1850624  13.1304083
  39.0172729   5.9654260  64.3587494  39.0170326   6.7546382  64.9003906
  39.6241302   6.1644430  63.6457634  26.8583603  17.2086353  80.1654205
  26.9611931  17.1713810  79.2144852  26.0809383  16.6792507  80.3431778
  42.2603912  29.3727169  85.4747238  42.0201378  30.2901497  85.6044464
  41.4279022  28.9010372  85.5014420  20.2899151  51.3309898  56.9368134
  20.6282234  51.8828506  57.6419563  20.6602058  50.4657135  57.1112099
  68.2316360  57.5712738  14.3048763  68.5990982  57.6099281  13.4218655
  68.4972458  58.3962669  14.7111597  70.5328903  57.4434662  46.7276878
  70.3960342  57.2167854  45.8078423  71.3584137  57.9279099  46.7347221
  16.3374119  60.3532410   2.5981400  15.4919348  60.6691284   2.2793670
  16.1247540  59.8540382   3.3866847  33.4263802  49.2683563  19.6674366
  33.6475983  49.0745087  20.5783253  33.1614609  48.4248734  19.3005829
  10.9333801  60.1414490  20.7658215  11.6189928  60.4047432  21.3796959
  11.3943853  59.9968185  19.9395123  45.9449501  40.3559265  73.7721176
  46.6235924  40.1181602  73.1403427  46.4189644  40.7925644  74.4798508
  53.1926689  21.2998829  69.7153015  53.8999672  20.6632824  69.8187561
  52.5271950  21.0229950  70.3451538  28.7982941  65.5716171  33.1908569
  29.5782833  66.1249008  33.2323875  28.3382893  65.8647766  32.4042931
  46.4860878  32.1223946   5.3982973  47.1576500  32.8041000   5.3755336
  46.3814163  31.9202499   6.3280358  73.0067978  52.5570450  16.5943985
  73.6442032  51.8830490  16.8303642  73.4124451  53.3782043  16.8725605
  81.0597839  49.7753525  10.2342558  80.7305374  49.4292030   9.4047909
  81.7922516  49.2017021  10.4593010  38.9358063  40.8396797  60.0738792
  38.2839890  41.4491501  59.7276001  38.8846016  40.9482994  61.0235176
  46.0311508  10.5231133  47.7930069  45.9811363  10.0230036  48.6076355
  45.9151917  11.4339142  48.0636063  40.8860474  13.4056501   1.5881077
  41.0878601  12.9544115   0.7684209  41.6632385  13.2746248   2.1312823
  10.7427073  19.4545803  88.5479431  10.3379965  19.2596226  87.7026978
  11.6722641  19.2672596  88.4172974   9.6469698  49.8410034  67.9110107
   9.7596674  48.9538727  68.2523727   8.6994591  49.9767151  67.9048996
  56.7256279  58.9216194  45.5716248  55.8401947  58.9787865  45.2125015
  57.1221046  59.7685547  45.3673096  46.6816254  47.8864441  78.0238190
  47.0887337  48.2743797  77.2492218  47.3897400  47.8340912  78.6657410
  37.5676155  29.6990604   0.4145786  38.1873589  30.1076794   1.0188800
  38.0895004  29.4935780  -0.3610793  82.1839371   1.7203765  67.2399826
  82.4904633   1.7160114  66.3331985  82.6965485   1.0354859  67.6693878
  30.9973431  51.4548225  87.2870407  31.5492115  51.6824188  86.5387955
  30.8552475  50.5120659  87.2018814  21.8595371  29.4053040  27.5376663
  20.9075680  29.4986591  27.5733509  22.1488934  30.1179447  26.9678898
  33.4894714  56.3584061  65.8694611  33.7892227  57.2663803  65.9137344
  34.1810265  55.8565636  66.3008957  32.7635765  37.2677040   4.9510436
  31.9123592  37.2591591   4.5133333  32.6951675  37.9734459   5.5940704
   7.1009889  15.4704037   2.5761116   6.9790378  15.5403194   3.5229335
   7.8392024  14.8698006   2.4734066  85.2912521  23.6200905  58.2593765
  86.2135544  23.6619034  58.5120506  84.8142242  23.8617287  59.0532799
   1.9038929  39.1924591  83.4173813   2.1317744  39.9956284  83.8855896
   2.5979593  38.5752220  83.6487350  36.8788528  53.1098480   1.4007438
  36.3484650  53.6473045   0.8124745  36.9338799  53.6212006   2.2080362
  21.5817871  18.7017212   1.9589517  21.4910946  17.8085098   1.6270221
  20.6875019  18.9715042   2.1680095  16.6926498   7.6566567  64.5420303
  15.7932320   7.9725771  64.4555740  16.6009636   6.7267237  64.7495193
  19.9598637   6.7545042  80.8491516  19.7902279   5.8343077  81.0508804
  20.5122852   7.0595884  81.5688629   9.2254143  16.9400578  65.9199753
   9.2057581  16.0275993  66.2085342   9.0051641  17.4438438  66.7035065
  37.8698883  68.9521408  79.7727585  37.1663704  69.5935974  79.6736374
  37.4957314  68.2706680  80.3311844  47.4651031  71.2435150  61.5726738
  47.9800186  71.9660110  61.2133751  46.5882988  71.3709488  61.2104492
  11.4841461  34.7475395  10.7898531  10.7442780  34.1414299  10.7517176
  12.0782042  34.3601875  11.4327240   7.4734960  28.8430347  41.4527969
   8.3913622  28.8019772  41.1843452   6.9888186  28.9462662  40.6338577
  60.7344131   8.9922113  38.5429230  60.5847473   8.1012592  38.8592072
  61.6661186   9.1479158  38.6975594  50.2212105  12.8456182  67.3921204
  50.9362259  13.4755306  67.3016129  49.5393219  13.3235111  67.8642197
  46.4163322  71.2280884  46.4012184  47.1641426  71.6560898  46.8181458
  46.1987305  70.5025558  46.9864349   2.1652212  25.4346771  30.2334423
   2.1528628  25.1428642  31.1449928   2.8535111  26.0992241  30.2040081
   6.7848401  66.6847916  15.1794357   6.6614032  67.4737320  15.7072382
   7.4636159  66.1919403  15.6405096  62.8680420  21.4020214  55.1043358
  63.6951027  20.9487610  55.2679291  62.5982819  21.1022758  54.2362251
  38.0253067  42.5278969  75.2769547  38.6335068  43.0277176  74.7324295
  37.9077988  41.7016029  74.8082733  81.1054230  12.0197945  79.2884293
  81.0271378  12.6385736  80.0145264  81.5339584  12.5191870  78.5933075
  30.2508373  63.9419212  57.0159492  30.0089188  64.8679581  57.0035591
  31.2064075  63.9432335  56.9601250  61.6055069  57.7451706  62.1090546
  62.5168991  57.9871330  61.9445992  61.5613174  57.6072083  63.0552292
  12.5712700  61.3860321  73.6261444  12.4416895  62.2594261  73.9957733
  12.0966873  61.4048386  72.7950897  53.6990547  59.3742599  63.5668907
  53.3243828  58.7526894  64.1909943  54.6374130  59.3670998  63.7557487
  62.2560997  19.0817757  40.9655037  62.5159187  18.1605263  40.9603615
  61.8571396  19.2133121  41.8255997   0.6469438  48.0553322  86.7206650
   0.4446506  47.1231270  86.6412811   1.4478487  48.1710052  86.2093887
  77.6897736  19.5749683  66.8235474  77.7429886  19.4127235  65.8816986
  78.3376846  20.2607098  66.9854431  74.6701355   8.5634785  21.4226837
  73.9835434   9.1673031  21.1394539  74.2246323   7.9525409  22.0096359
  81.3882065   4.3985233  81.0853195  80.9155197   4.4538412  81.9158249
  81.3057251   5.2726541  80.7041016  39.3194275  63.5953407  63.0836563
  40.1192627  63.0746880  63.0100746  39.2474937  63.7932014  64.0174179
  67.1689072  59.1573868  57.5455017  67.8087845  58.4487762  57.6137657
  66.3528290  58.7205276  57.3017883  59.6568489  21.7442093  19.4704800
  59.7997971  22.0845623  20.3536320  60.3707886  22.1155815  18.9522057
   0.6351718   0.9289870   6.2389989   1.3236676   0.3978004   6.6390562
  -0.1692401   0.4333153   6.3921752   4.7765646  22.5885162  22.6558685
   5.6479878  22.5418777  23.0491600   4.4308162  23.4348660  22.9393864
  77.5670013  37.8744621  55.7249374  77.0919571  37.9661865  54.8990135
  78.4008255  38.3190727  55.5723114  48.9516029  61.2050362  10.6065159
  48.5477753  62.0243568  10.8926449  48.2230949  60.5870285  10.5467415
  85.0267563   6.6890001  41.8458176  85.1911087   7.5988345  41.5979843
  85.8985596   6.3105898  41.9598198  66.2623444  40.0515900  36.1228523
  65.6228485  39.6657143  36.7215004  67.0790634  40.0663338  36.6218452
  84.3600693  14.0070343  25.7263317  84.7175674  13.1374960  25.9061413
  84.3112488  14.0531721  24.7714920  62.1901703  14.3192291  70.3463745
  61.4442787  14.1167212  69.7816925  62.0874596  13.7349558  71.0975800
  83.1409073  46.7121201  48.9615631  83.6075592  45.8763924  48.9563217
  83.5323792  47.2095413  48.2435417  47.0016594   7.3189306  72.8289948
  46.3114777   6.8800297  73.3262329  47.6883545   6.6583257  72.7379761
  36.3962021  60.5063477  48.1874199  37.1613464  60.1286240  48.6211395
  35.6524963  60.2079506  48.7109604   9.6434126  68.7669296  22.9843998
  10.0885382  69.1478271  23.7413750   8.8683767  69.3150482  22.8614731
  44.2418404  54.1421928  37.0982056  43.3506126  53.8145599  37.2190399
  44.6316414  54.1037254  37.9715958  20.2715435  55.5882492   9.2503128
  20.0738678  56.2979584   8.6391897  20.7632103  56.0093269   9.9554291
  41.9356537   3.3447127  42.5403023  42.2058983   3.6109855  41.6614990
  41.9039421   2.3888135  42.5017967  31.6451340  59.8568687  23.7440090
  32.1969414  59.8299217  24.5256824  30.8167381  60.2275543  24.0482845
  64.2967987  58.9073143  30.8909988  63.3551788  58.9267426  31.0618973
  64.4408875  58.0765762  30.4378433   6.7845378   9.9281521  74.0024643
   7.0471811  10.8463621  74.0668030   5.8280768   9.9499044  74.0331497
  19.6109295  58.9618187  44.9799690  20.0310230  58.4502869  45.6714058
  18.8131847  58.4750214  44.7729416  24.0726490   9.5220137  25.8349247
  25.0126324   9.6118565  25.6781101  23.9929314   9.4663544  26.7871742
  12.0354729   5.6207604  45.4953156  12.1179438   5.7710176  46.4370422
  12.7251778   4.9888425  45.2922935  24.6356640   5.4380260   5.0325150
  25.1247559   6.1984596   4.7182503  24.1348362   5.7671208   5.7789059
  27.9023361   5.0109649  53.9678917  27.6167526   4.2830930  53.4157372
  27.2914467   5.0066156  54.7047958  36.0882759  56.9273262  21.4045448
  36.1722069  56.0961990  20.9371986  36.9903145  57.1982422  21.5753078
  84.2162476  66.8373795  49.8054886  83.3963776  66.4247437  50.0770836
  84.8996124  66.2864990  50.1872978  77.7672195  66.6319885  41.3815155
  78.1703568  66.9895554  40.5904045  78.3832245  66.8463516  42.0821037
   0.3798614  23.0250206  38.0605507   0.4809397  22.0751133  38.1213074
  -0.4758292  23.1490517  37.6498909  66.9118347   3.3076773  76.0726624
  67.1482391   3.5294442  75.1720123  67.0069427   4.1292834  76.5544815
  42.6218491  14.9190035  17.9639015  42.0653992  14.2500439  18.3627605
  43.5123863  14.5847445  18.0708866  27.0202389  34.7050285   8.6354675
  27.4651775  35.4290390   8.1949368  26.5048122  35.1243591   9.3244734
   8.7916336  30.9374619  74.9366684   9.1212444  30.0601215  75.1312485
   8.1548309  30.8038349  74.2346344  79.4254379  58.1539154  87.8680115
  78.9076767  58.9042625  88.1597900  80.3281479  58.4722519  87.8654938
   6.7845459  71.3277435  62.5129623   6.6418991  71.8161545  61.7021980
   7.7006927  71.4941635  62.7347984  64.4225235   1.8809292  75.8823318
  65.2602539   2.2864859  76.1058502  64.6572876   1.1346686  75.3307800
  65.8484039  56.3124580  14.4647045  66.2060776  55.4268074  14.4021053
  66.6134338  56.8845558  14.4041977  67.8497849  11.7959290  39.4601593
  67.7386398  11.6514864  40.3998489  68.5129929  11.1580362  39.1965714
  42.1813812  35.6559982   7.8204365  42.0097313  34.7543831   8.0922050
  42.7102089  35.5704918   7.0271769  29.5885296  14.6528740  83.1701508
  29.6051044  13.8662586  83.7153015  30.0504951  15.3125763  83.6874619
  78.2592545  47.2789803  85.1236801  78.8516541  47.6847076  84.4906921
  77.4959946  47.0215797  84.6065598  76.3911209  46.9221573  50.8209991
  75.8593750  47.4819717  50.2552376  76.2417297  47.2622757  51.7031746
  63.5148697   8.6533136  77.5677032  64.1709442   8.0543375  77.2112961
  64.0251694   9.3641806  77.9556427  46.6885414  33.6160583  23.4967175
  46.7716103  33.9237022  22.5941181  47.5518875  33.7668915  23.8815823
  18.7599792  35.1154289  52.2108955  18.3683949  35.3648300  53.0479698
  18.8483238  35.9398994  51.7326965  82.3341370  50.2690697  66.4260330
  83.0554428  50.4899902  67.0152206  82.3744659  50.9336815  65.7383575
  29.9086971  20.0601501  18.9324036  30.3814774  19.2466564  18.7565098
  29.5959511  19.9656773  19.8321228  25.6445732  18.5935459   5.1177521
  24.7804890  18.9886150   5.0015106  26.1051712  19.1933098   5.7045765
  27.3281174  60.1286354  69.5037918  27.1351585  59.6387978  68.7043839
  28.0684032  59.6654015  69.8957367  63.7447128  41.6331978  74.6491623
  63.5446320  41.4319229  75.5633240  63.1347198  42.3340912  74.4191818
  63.3867531  12.2098799  16.6064987  63.1556892  12.8866711  15.9702654
  64.1393433  11.7633924  16.2185669  56.5266800  69.7851944  64.5820923
  57.3042641  69.9433289  65.1174393  56.7980385  69.1113815  63.9587364
  76.9882050  12.7142811   1.8549830  76.1299744  13.0121384   2.1565599
  77.2857819  13.4033928   1.2610066  68.2053223  26.6406040   2.0261738
  68.4132614  27.5541382   1.8300970  68.9894104  26.3043175   2.4601617
  57.0084953  58.2505455  31.4799309  57.7794876  58.4549065  30.9507484
  57.3546715  57.7701569  32.2320099  55.1767159   1.9047360  85.4255829
  54.2948570   1.9096440  85.0533829  55.0469971   2.1094689  86.3515930
  71.3594742  56.7446251  27.9390068  70.7949905  56.7452393  27.1659679
  71.2338867  55.8784599  28.3265915  51.8673058  11.6886864   8.7965059
  51.5945015  11.3535748   9.6506195  51.0847168  12.1128502   8.4445496
  73.0460815  28.4177132  70.3418121  72.6105423  29.0718708  69.7953491
  72.8720016  27.5849266  69.9031830  78.6704178  34.1510048  42.2086296
  78.7163773  35.1065292  42.1755905  79.5615540  33.8756523  42.4237747
  53.3034744  59.0055199  19.1151257  52.4001427  59.2449074  19.3222885
  53.7247162  58.8992653  19.9680595  16.8781376  32.0923119   9.9936771
  17.0779247  31.5098972  10.7265549  15.9227667  32.1511803   9.9880781
  65.2804794   3.0624247  18.8699341  64.9553452   2.1976237  19.1202049
  64.7043686   3.3377554  18.1568279   9.5519714  42.5150261  64.2281036
  10.0225420  42.0652809  64.9299088   8.6538725  42.5888214  64.5509109
  16.6022701  17.7902107   5.1698751  15.9869270  18.4763374   5.4283590
  17.3422623  17.8943806   5.7680335  72.8621979  19.6068096   6.1996870
  73.4700623  19.8159027   5.4904509  73.2698593  19.9785156   6.9819140
   4.0125442   2.9820929   1.7529653   4.4355702   3.5296109   2.4144068
   3.6298151   2.2589307   2.2497413  21.4497547  42.7557335   0.3744589
  21.4370785  42.8390045  -0.5790278  22.0212765  43.4647522   0.6692259
   7.5826097  11.7024956  70.2149506   7.2841196  12.3612366  70.8420029
   8.5047684  11.9125900  70.0675888  53.3925018  32.2284088  68.7322540
  53.7017097  33.1104393  68.5257416  52.9644051  32.3179054  69.5836945
   1.0348884  65.8227921  63.0383911   1.5880281  65.8222351  63.8195877
   1.6153736  66.1113129  62.3341026  28.6196136  56.0461082  73.5743942
  29.0147915  56.5724869  74.2693710  28.2653790  55.2801323  74.0260925
  67.8090515  38.1996422  60.3822250  67.3229294  37.5517807  59.8721390
  68.2357483  38.7502365  59.7257118  25.9544697  25.3108578  19.5975094
  26.6984730  24.7094555  19.5658417  25.6735687  25.3925552  18.6861076
  43.3007088  15.1907454  28.9511852  44.1367302  15.6402750  28.8278046
  42.6941643  15.6491623  28.3696442  58.5380516  29.8813477  83.0594559
  57.9144287  29.5835781  83.7217712  58.0200500  29.9528427  82.2577133
   2.3017213  57.4024010  22.5515556   1.7815846  58.1666870  22.3034382
   3.1086864  57.7689705  22.9130363  40.7756081  55.3252487  77.1306839
  41.6208878  55.5889702  76.7671127  40.1309776  55.6708603  76.5132446
  48.9875908  42.6969032  14.4767427  49.5560074  43.3600922  14.8683004
  48.1648903  43.1560898  14.3077955   7.2419782   9.1172581  53.5042839
   6.3697162   8.7750406  53.3086357   7.7355266   8.3554792  53.8081512
  79.9602890  13.2745047  75.2019882  80.2372513  12.7862329  74.4266663
  79.7695541  14.1539345  74.8757095  32.0560036  64.9155273  45.6361618
  31.4433174  65.2562561  44.9844284  31.6369457  64.1208267  45.9664192
  31.0712910  34.6085434  88.0942459  31.3179626  34.6705132  87.1714554
  31.7105618  34.0051613  88.4730530  53.1058998  64.8812103  13.9075298
  54.0275154  64.9689713  14.1507435  52.6350937  64.9042435  14.7406235
  48.0555840  56.1440430  27.7789860  47.6432266  56.9895630  27.6021061
  47.7198830  55.8889465  28.6383228  19.3328857  30.5819626  28.4660492
  18.7255669  30.7145252  29.1939392  18.7717590  30.3573666  27.7238064
  20.0169239  65.9536591  26.7355251  19.3076973  65.7535477  26.1246357
  19.6237221  66.5512161  27.3715687   3.3955045  23.6400967  64.9670410
   3.9474885  23.0949020  64.4064102   3.6287825  24.5382481  64.7322311
  63.3194160  51.8034363  55.4167976  62.8243370  52.4634171  55.9021339
  62.6866455  51.1052437  55.2483864  74.5034790  40.7449760  74.0950165
  74.6409073  40.6491928  73.1525879  75.0784683  40.0888214  74.4888153
  63.4539413  67.5380936  47.7612495  63.3685112  66.7966080  47.1619644
  64.3457260  67.8568726  47.6222534   3.7341983  42.8666611  47.5940323
   4.4619079  43.4168167  47.3042030   3.4258757  42.4373550  46.7959976
  55.5226669  66.0231934  64.0345764  55.2429428  65.4372482  63.3312607
  54.7113762  66.4177933  64.3544693  54.1333313  67.6623077   0.7341565
  54.8098564  67.1623306   0.2774584  53.3424187  67.5274963   0.2121316
  17.8741856  55.1677818  84.9480515  18.7561836  55.4299889  85.2117844
  17.4800072  55.9681511  84.6012573  23.0613003  69.9017639  21.7688007
  22.1654758  69.6430359  21.9851131  23.3544407  70.4069290  22.5271606
   4.3680220  15.2755136  76.2881088   5.2819433  15.4865541  76.4790039
   4.0565519  14.8269339  77.0742340  67.9918137  66.3483505   2.7460086
  67.2215958  66.4672623   3.3017600  67.6342850  66.1625519   1.8777430
  51.0055008  40.7423630  25.3806324  50.7860985  40.6800575  26.3102627
  50.2599754  41.1969910  24.9885349   1.8989449  44.5353432  64.2004242
   1.7409109  44.2204361  65.0904236   2.3713391  45.3594666  64.3183060
  39.8260727  15.5486069  69.2119675  40.3622971  15.9756126  68.5438614
  39.0573463  15.2333717  68.7366562   8.2031822  12.4868088  17.4203892
   7.2608190  12.5972347  17.5468388   8.6015196  13.0612669  18.0742683
  27.5475044  66.4722672  30.5909805  27.7020607  66.8931122  29.7452660
  27.2144547  65.6028748  30.3685741  16.6627522  19.8904419  72.1881256
  16.9508610  20.4478493  71.4652710  17.1269875  19.0642891  72.0532532
  37.1845169  63.2607498  82.9741669  37.8680916  63.6458092  82.4258194
  37.6423607  62.6095581  83.5057297  16.4483814  36.6980438  76.1167297
  15.9184389  36.5154076  76.8926392  16.3830967  37.6458244  75.9997559
  50.9538193  20.8377991  71.4424057  50.1112747  21.2920570  71.4424515
  50.7354851  19.9281654  71.2396088  77.4401703  54.5417786  15.0200615
  77.7226715  53.6363068  14.8914194  78.1073074  55.0660553  14.5770121
  49.3390121  12.2967100  62.6237068  48.4308357  12.0361147  62.4702797
  49.7191200  12.3673372  61.7480583  10.9271212  66.4967194  21.3081036
  11.6576338  66.9282532  21.7512341  10.2982292  66.3133698  22.0060349
  59.2562485  44.9251595  50.8360176  59.5834122  44.8082771  49.9440880
  59.9345970  44.5419464  51.3920975  62.9979134   0.2222726   9.0405264
  62.6922264   0.9758509   8.5356417  63.8571053   0.0188942   8.6708527
  78.4408569   4.9486909  38.4127502  77.8654480   4.3399963  37.9494743
  77.8695908   5.6747470  38.6632042  55.4653397  58.6011429  37.8777847
  55.7229996  58.2846565  38.7436256  55.2762337  59.5302734  38.0088997
  76.8848877  17.1139317  56.4903069  76.3694839  17.7227268  57.0194130
  77.0548325  16.3742695  57.0736160  59.0166702   8.8261013  14.1805916
  59.6928177   9.4490509  13.9141445  58.4445763   8.7523069  13.4167252
  83.7456894  60.2690315  73.9463577  84.2839432  59.6773300  73.4206161
  83.3849258  60.8903198  73.3138351  20.5471783  62.3415146  28.1124954
  19.6946201  61.9064484  28.1222515  20.3462791  63.2578926  27.9224243
   3.0535989  57.0303307  11.8795309   3.7302356  57.6965752  11.7590723
   2.9508252  56.6341553  11.0142488  52.9587212  49.8735809  42.8314896
  53.4841614  49.3886909  43.4679070  53.2860184  49.5835304  41.9800339
  32.1492119  15.5175714   2.5315242  31.7474232  15.7936144   3.3552945
  31.7533894  14.6661367   2.3454704  56.8579559  26.3506927  54.8724403
  57.0391388  26.4135113  53.9346466  57.4055252  25.6258659  55.1741486
   0.0395205  62.3830109  14.0625782   0.6889124  63.0479889  13.8338194
   0.1232808  61.7205276  13.3767738  25.7862396  52.5016747  71.0436401
  26.3678703  52.8828850  70.3859024  25.9389076  51.5588226  70.9807434
  84.6524124  64.3898544  33.8715858  83.9377213  63.9287453  34.3106995
  84.3269196  65.2827301  33.7573204  54.1690292  51.3115578  20.8760567
  54.9622040  51.4933243  20.3720074  54.3401222  50.4686699  21.2961750
  20.0635204  56.1207886  26.6430836  19.5297127  55.6982040  27.3159161
  19.6997280  55.8055534  25.8157310   9.6303740  13.9952660  76.7390289
   8.9311657  13.3791962  76.9576569   9.4902048  14.7358618  77.3290329
  80.1853638  42.1744499  77.6299667  79.6046982  42.8715820  77.3248978
  81.0546036  42.4371147  77.3272095  61.5326538  68.4003067  65.9122849
  61.6329956  68.3998260  66.8642120  60.6360207  68.0989304  65.7658081
  75.3153381  35.3648376  25.0766830  75.1817474  36.3093796  25.1555996
  75.8599701  35.2643738  24.2959690  11.9552565  54.5193596  27.4154625
  11.7944574  55.3653870  26.9975986  12.3157301  54.7409592  28.2740574
  85.5928726  54.2109299   6.0021787  85.4257431  54.1093903   5.0651674
  85.1370544  55.0181313   6.2406816  59.3087921   2.8836887  47.1877098
  60.0810547   2.3244808  47.1032715  58.9644699   2.9526100  46.2972450
  23.0910892  64.6874466  60.1614189  22.8743629  64.7192307  59.2296181
  22.7365952  63.8504295  60.4613609  36.8269730  13.6154566  79.1550674
  36.5618248  13.2566729  80.0019455  36.0033760  13.8351202  78.7195587
  59.6676979  53.2675972  22.2024994  59.4660149  53.4998970  21.2960796
  59.1034241  52.5171509  22.3886566  85.5487213  53.9891701  69.0069962
  86.1205597  54.7428665  69.1524963  85.0236282  54.2306824  68.2439880
  22.6268425  49.9857750  62.3328781  23.5806885  50.0611916  62.3060036
  22.3125553  50.8839684  62.2294197  22.4065609  14.7294331  60.8993073
  22.0581188  13.9315662  60.5015259  23.3423977  14.5567198  61.0023232
  74.3662109  11.5811329  36.7068253  73.5832138  11.8457203  37.1896820
  74.9459534  12.3412266  36.7556343   4.9896288  43.5293617  42.8639069
   5.3751931  44.3709373  43.1074638   5.5362716  42.8789215  43.3047447
  25.7163143  62.4964828  36.0910797  26.6582909  62.5245895  36.2587662
  25.5399494  63.2876625  35.5819969  52.2076912  21.5048256  67.2487717
  51.4321480  20.9764805  67.4375000  52.5922699  21.6809540  68.1074371
  35.7093964  70.5429459   4.4053168  34.9706192  70.3563080   3.8260031
  36.3945961  69.9374313   4.1223292   5.5556197  53.2625999  27.1882801
   6.2881265  53.7949867  26.8780746   5.8389897  52.9407120  28.0440369
  14.9801197  49.9940567  76.1797562  15.4390821  50.6399612  75.6427307
  15.1015501  50.3001022  77.0785446  38.2462082  25.3869572  85.4525528
  37.8385963  25.6392632  84.6240463  37.7629433  25.8784733  86.1167068
   6.2755680  52.1411247  79.2336731   6.4103246  52.7726974  78.5271454
   7.1175203  52.1063995  79.6877060  10.8214102  56.3907356  10.3367195
  11.0269470  55.4694862  10.4957514  10.7938080  56.7840080  11.2089615
  42.4776611   0.3903697  75.6920929  42.0712318  -0.4595529  75.5227509
  42.2328949   0.5974549  76.5940018  52.2949486  10.3725767  65.9854889
  51.8380203  10.8615913  65.3011551  53.1729889  10.2296963  65.6321335
  80.3141251  24.6576786  49.5254707  79.4847107  24.1805649  49.4996033
  80.5704498  24.7423916  48.6071281  79.8243027  13.1658316  56.2063217
  80.4202194  13.5903645  56.8234825  79.2253265  13.8613348  55.9347801
  77.8242188  33.1361809  85.9524002  78.2014847  33.2388840  85.0786972
  78.5193329  33.4162750  86.5478745  37.2820969  66.8489532  70.8279343
  38.0653763  67.1225739  70.3506088  37.3710709  65.8994370  70.9099426
  12.9449883   7.3364530   7.7398505  12.0050001   7.5152669   7.7659149
  13.1350946   7.1887197   6.8134236   0.0919108  69.9209137  85.6461105
   1.0351433  70.0832367  85.6601028  -0.2576692  70.4800797  86.3399048
  67.7043152  69.0084381  86.3721771  68.2982788  69.4765778  85.7854156
  67.0075912  69.6374969  86.5595169  63.2035103   7.4163470  43.4964714
  63.0357895   6.5732875  43.9176064  63.4003296   8.0107784  44.2204514
   6.6854248  16.9505310  76.6378174   6.8679576  16.9694424  75.6983719
   7.5012956  16.6448383  77.0342255  58.6792488  50.1833954  61.8455086
  59.4659958  49.7450371  62.1697083  57.9624596  49.5946198  62.0817032
   8.3331470  43.7702255  40.7929611   7.9640594  43.3652382  41.5778122
   7.5957832  43.8314552  40.1856918  80.2898407   3.2447703  32.3133621
  80.1398697   4.0172276  31.7683372  80.9087906   3.5394907  32.9813995
  11.0795460  40.6911583  -0.0636473  11.9258566  40.3802872  -0.3851285
  11.0256739  40.3563194   0.8314572  38.3055458  59.2504616  49.8295555
  37.9652100  59.0306091  50.6967773  39.2523308  59.1328316  49.9069328
   7.9431477  64.2872238  42.6504898   8.6886768  64.0295868  42.1082344
   7.3358355  63.5499496  42.5886040  43.9457092  37.2581749  83.4926453
  44.2429161  38.1366692  83.7295990  43.0658760  37.1946335  83.8642502
   0.5250889  62.9585457  63.0220871   0.5740000  63.8989334  63.1938858
  -0.4103050  62.7577591  63.0529823  17.4469738  16.6740761  56.5822220
  16.5832977  16.3941689  56.8854523  17.8581009  17.0616150  57.3548927
  76.9435730  27.9493332  87.3146667  76.0922775  27.6354675  87.6196594
  76.8566360  28.9024811  87.3011856  27.2428150   8.7305098  36.4855537
  27.1361389   9.6730185  36.3569870  28.0246468   8.5068769  35.9806213
   4.0722504  65.7416992  10.0003824   4.3152881  66.4988403   9.4675550
   3.1703045  65.9171677  10.2685919  51.0623970  55.1011086  47.0561638
  50.8712425  56.0315247  47.1745872  51.4467926  54.8276711  47.8890533
  71.9635849  25.9799061  69.8287277  71.0119781  26.0738831  69.8716507
  72.1098328  25.0343819  69.7999649  44.1234856  68.3428268   0.7548072
  43.5330963  69.0960236   0.7355608  44.9564095  68.6992188   1.0637543
  20.6766357  44.4367332  81.6762924  19.8354855  44.8262520  81.9149857
  20.4892654  43.9262543  80.8885574  34.1336212   3.4069233   4.9216404
  34.8919754   2.8230886   4.9053078  33.5350456   3.0044982   5.5509200
  73.4242325  49.7725296  23.0117359  73.9871826  50.5026932  22.7544785
  74.0007782  49.1869888  23.5026207  70.5560379  33.6953125  12.9459000
  71.3801651  34.1528587  13.1123171  69.9990387  34.3504410  12.5254374
   0.6442964   0.0514877  21.1031380   1.4588083   0.5537990  21.1251755
   0.6976948  -0.4559810  20.2932873  12.9976683  54.7624512  17.0848713
  12.4923925  54.4652977  16.3281498  13.3262358  53.9571953  17.4846630
  11.0876160  66.1240540   7.6964350  10.9610739  65.9539642   6.7630072
  10.2482376  66.4770508   7.9915156  72.4661484  30.3488178  78.8163223
  73.2909775  30.5236397  79.2694550  72.3951797  31.0502987  78.1689301
  58.5113029  47.9208565  76.3694839  58.2749939  48.8449860  76.4493256
  57.6828995  47.4521713  76.4710236  81.3072052  32.9236336  43.1552734
  81.3241730  32.1353836  42.6124954  80.8568192  32.6536942  43.9555969
  42.6429482  14.1611242  82.6811829  42.0270233  13.4738054  82.9350815
  42.2248917  14.9741201  82.9649048  18.9062901  48.9765320   4.9906707
  18.3629436  48.4510117   4.4034424  19.8008175  48.6851845   4.8141289
  48.8533897  46.2266083  40.5336838  48.2770081  46.2765999  41.2962608
  48.2781219  45.9628677  39.8155327  18.0753784  47.4288788  11.1244555
  18.3747234  48.2508926  10.7359781  18.8472862  46.8629875  11.1119881
  27.6173420  35.0023766   5.6786342  26.8191872  35.2296562   5.2016363
  27.3182373  34.8070145   6.5666661   0.2151367  36.5077667  56.6770439
   0.0075341  37.0627289  55.9252777  -0.1751965  36.9609718  57.4243584
  40.6118164  68.9447784  36.8810501  39.7613106  69.2256851  37.2186279
  40.4425468  68.7137299  35.9677048  42.2330742  57.3145828  54.3508835
  41.5134354  57.7960548  54.7589684  41.8269005  56.8532562  53.6171036
  17.1775570  59.0722771  65.3632660  16.9997864  59.0988960  64.4230957
  18.0721550  59.4022217  65.4473038  33.6386795  63.9024239  52.0400009
  32.8057289  64.1434784  52.4453621  33.9344559  63.1391258  52.5361061
  14.2467470   4.1812425  58.8943558  14.1559019   3.8431168  58.0034866
  14.3573151   5.1253829  58.7820816   5.3808599  14.9017744  30.8176613
   5.5881195  13.9673500  30.8064518   5.2936044  15.1388464  29.8943977
  65.3182068  28.9197960   3.0417922  65.1623154  29.8634834   3.0046198
  64.5483246  28.5332375   2.6245601  38.5210457  33.6284256  13.4061975
  38.6499748  32.7762184  13.8225527  39.3908539  33.8756866  13.0923119
  43.6772499  50.6032639  54.9550247  44.0483627  51.4197807  55.2893982
  44.4199104  50.0005836  54.9168205   1.4077390  25.6711445  43.2149658
   0.7220586  25.6958656  42.5475349   1.4271106  24.7590790  43.5047798
  44.5538177  62.7596207  29.7584190  44.1645317  61.9664154  29.3902874
  45.3138695  62.4476814  30.2495861  73.0365448  22.0625801  12.9573374
  72.3821945  21.6291790  12.4094210  73.8261871  22.0828323  12.4167004
  63.4405403  50.8258781   4.7998857  63.5196457  50.0712852   4.2163081
  62.5235672  50.8212509   5.0744219  43.8249512  18.7251682  12.4845304
  43.4533653  19.2729435  11.7930851  44.4328079  19.3023586  12.9466915
  23.5221558  71.3657227   0.1623103  22.6141338  71.0756226   0.0753291
  23.4818630  72.0975113   0.7780175  70.6217804  54.9136543  58.2589073
  71.1243668  55.4482727  57.6442413  71.1767883  54.1511345  58.4224854
  47.3682404  20.5841465  69.8458023  47.6028214  20.4527817  70.7644653
  47.4840126  19.7233028  69.4435883  79.5196838  36.5966110  61.2360802
  78.9455261  36.1251984  60.6324615  78.9455490  37.2290573  61.6680679
   2.6402321  52.9319153   4.7593875   3.1001115  53.5726471   4.2169781
   2.0256469  52.5080795   4.1603217  71.4700775  25.8450317  83.4058990
  71.8457794  26.4320374  82.7497711  70.5238266  25.9282303  83.2879181
  70.8784790  22.5892849  29.9683666  70.7514801  21.7369709  30.3850994
  70.0401535  23.0376472  30.0797634  38.1514168  60.9598351  12.1087294
  38.4590645  61.8541260  11.9609795  37.8644257  60.9530678  13.0218678
  54.2809410  32.7588310  16.2628784  53.3272247  32.6796227  16.2433167
  54.4870911  33.3499298  15.5387659   9.2681217  39.6335182  32.0059166
  10.0234594  39.1563873  31.6623421   8.5289478  39.0402946  31.8719673
  16.7693710  38.4604073  52.3129044  17.4276829  38.0065041  51.7867584
  17.2600498  38.8211327  53.0513763  13.0394258  45.8248711  39.8652306
  12.5935469  45.6011810  40.6821671  12.3309364  45.9981308  39.2453461
  24.2792320  25.8850269  68.1862030  24.8529110  25.8959885  68.9523621
  23.3968754  25.8061848  68.5487823  19.3833885  23.7125320   8.7812147
  19.3434467  23.9841022   9.6982136  18.5064564  23.8892879   8.4406605
  83.1601410   7.2751050  39.5278740  83.4828110   6.4702597  39.9332657
  82.2318344   7.1064997  39.3664818  14.1565218  69.7916946  51.9712639
  14.2875242  68.8437042  51.9910927  14.9944859  70.1430359  51.6702576
  33.3720894  50.6258049  16.8796082  33.6614380  49.7646294  16.5781364
  33.4251099  50.5757256  17.8340244  22.1025028   5.0979271  45.7177315
  21.6471710   4.3695068  45.2954636  21.5227814   5.8488817  45.5903587
   4.5544143  30.5924168  79.7951050   4.7764006  31.5201283  79.7156830
   5.3613358  30.1784153  80.1012344   7.9281554   4.5328679  80.2789307
   8.1812696   3.6420822  80.0367126   7.6168790   4.4565415  81.1808777
  58.9378242  22.1156120  10.6667061  59.2379112  22.2638226  11.5634861
  58.0714951  21.7208862  10.7661896  56.5598984   7.7315993  15.6922159
  57.0325890   8.2570171  15.0466690  57.1521988   7.0063505  15.8907728
  49.3744164  50.0877647  16.0814972  49.0158081  50.4329910  16.8990841
  49.9146385  50.7992020  15.7376299  50.8917923  60.5860672  12.5380363
  51.2131157  59.8365707  12.0367947  50.1271629  60.8908653  12.0494967
  59.5048103  43.4400177  33.1261444  59.8223343  44.3000603  33.4013519
  58.5720940  43.4490318  33.3410606  56.2773514   6.0670667  43.9458961
  56.6181641   5.9066987  43.0659180  56.4192924   7.0025082  44.0909233
   8.1493855  59.8494186  80.7981491   7.9287195  60.7801285  80.8344650
   8.9725046  59.8172646  80.3106384   3.4177427  38.1512756  34.4683418
   3.0094421  38.8596992  34.9659958   3.1702645  37.3549232  34.9382439
  12.3306913  32.0802994  84.0724945  12.1578627  31.8425694  83.1615372
  13.2589273  32.3135223  84.0871887   0.0039927  36.9777985  53.7384872
  -0.4370165  36.5730705  52.9915352   0.5183066  37.6889534  53.3564262
  36.1493835  53.3258324  40.2109337  36.2016029  53.2908669  39.2557983
  36.3923378  54.2250710  40.4313278  86.8299789  13.2903090  23.2352467
  85.9756470  13.6518850  22.9994125  86.8366318  12.4167614  22.8439636
  16.0421219  44.0473061  18.9645500  16.3281994  43.1973953  19.2992744
  15.1905422  43.8726196  18.5638905  39.2625389   4.2873545  77.9175949
  39.2276649   5.0119319  77.2930984  39.8344421   4.6019225  78.6177444
  59.0413818  10.1223545  88.0307388  59.9743004   9.9458361  88.1521225
  58.6485062   9.2585468  87.9053726   2.9932833  70.4563522   7.3317790
   2.2535203  70.4137802   7.9377246   2.7543685  69.8625717   6.6200361
  39.7473297  39.8601685  78.9486694  38.8223953  40.1024094  78.9034424
  39.8059807  39.0447464  78.4507904  49.2074318  11.3664808  65.1572266
  49.7311401  11.9401073  65.7166214  49.4272346  11.6358356  64.2653961
  14.5276880  40.5865440  14.8041019  15.1315565  39.8548889  14.9316015
  13.7034006  40.1744690  14.5453033  45.2495346  36.5935326  15.5778637
  46.0126228  36.9304771  16.0473289  45.1904182  37.1394272  14.7938118
  67.3253860  45.6015205  30.5566864  67.7414551  46.4395828  30.7586193
  67.9900742  45.1155891  30.0685310  80.5597839  44.5996552  28.3316746
  80.2470322  45.5017204  28.4002438  81.0090408  44.4382019  29.1613312
  66.0163498  41.2754936  73.1752167  65.1977081  41.4172745  73.6505661
  65.7803802  40.6796112  72.4642563  38.6083527  30.3668957   8.1676311
  39.1066704  31.1828327   8.1211548  39.2320061  29.7242947   8.5057869
  86.6228256  26.2094879  38.8493843  86.6062088  26.8764763  39.5357399
  87.1008453  25.4771881  39.2385750  75.0751495  55.7730522  39.2650146
  75.7962341  55.1468544  39.3294525  74.3294678  55.2501793  38.9704132
  23.4860802  67.0740738  56.9401016  23.3641987  67.9856949  57.2052956
  23.5665474  67.1106110  55.9869881   0.9100341   0.4328738  72.7554703
   0.0249373   0.5098951  73.1117020   1.4802482   0.7307221  73.4642563
  46.7989349  57.6557465  43.1937485  47.1287231  56.9539528  43.7549553
  45.9541740  57.3338509  42.8791161  13.7277460  61.1900978  28.7697983
  14.0799160  61.8842735  29.3268719  12.9097519  60.9332619  29.1954193
  47.1649971  26.0281258  71.8937683  47.1336250  26.8974991  71.4944763
  46.4305344  26.0198174  72.5075531  34.9156494   7.6446910  71.4161606
  34.8546028   7.8321209  70.4794769  34.7798767   6.6993637  71.4806061
  80.2995987  70.6997528  54.7120323  80.9119339  70.6644745  53.9771690
  80.5456085  71.4911346  55.1910133  63.9193878   7.0828342  40.8145103
  63.6716614   7.9438138  40.4775009  63.8449402   7.1672101  41.7650757
  83.6924973  21.3968334  43.4318771  83.3294907  21.0355911  44.2405586
  83.0275192  21.2138386  42.7681351  40.6291656  23.5372505  88.3549042
  39.9317093  24.0131531  87.9040146  40.5711632  22.6455097  88.0118866
  40.8322678  49.6538811  76.3149872  40.5815277  50.1533966  75.5379105
  41.6447601  50.0639877  76.6114731  50.1616783  54.3682823  21.3355713
  51.1029587  54.3356247  21.1648312  49.9955635  53.6178474  21.9060822
  20.4014778  60.3046112  25.8580112  20.2216816  59.5255318  25.3317604
  20.2126751  61.0379448  25.2725163   3.8540342  52.8400650  38.7007713
   3.6931510  52.6097145  37.7857361   4.7842712  52.6577682  38.8336563
  46.7346840  70.9195328  41.7552223  47.5935211  70.4969406  41.7486000
  46.8965912  71.7852173  42.1301842  61.4124413  69.0645294  12.0467758
  61.2893791  68.5568924  11.2446575  60.5318108  69.3554688  12.2835817
  79.2158432   4.9156451  68.1899338  78.2738876   4.9915719  68.0376511
  79.5077209   4.2557507  67.5609818  69.2603912  28.5425739  30.8662224
  68.9255905  28.1055412  30.0831890  68.8487396  29.4066334  30.8527603
   1.9347950  30.3915844  17.5330658   2.3060153  31.2716942  17.5949879
   2.5594845  29.9054756  16.9948349   9.0957108  33.9903603  13.3239985
   9.3786869  33.7512131  12.4414091   9.8331718  33.7506180  13.8851633
  79.0812149  69.8130417  17.0860596  78.9217224  70.2660904  17.9140358
  79.4562531  70.4832230  16.5147114  42.5467529  21.2577801  81.1989899
  42.7938499  21.2863827  80.2746811  43.3373375  21.5269489  81.6667023
  51.0177269  61.4328423  19.5998230  50.8051491  61.0493317  18.7489624
  50.2013512  61.8399162  19.8897476  44.0880928  13.3151770  80.5271683
  43.4226875  13.6055336  81.1509933  44.5968933  14.1030130  80.3356781
  61.5268059   0.6980850  60.6238441  61.3166695  -0.0725782  61.1512489
  61.0703545   1.4180100  61.0592690  27.0633106  61.1810913  43.0806694
  26.8658981  61.4289894  42.1774483  26.5716228  61.8060570  43.6134872
  65.4331665   9.0922489  36.2268105  66.0140228   8.7321472  35.5566139
  65.5825882   8.5407152  36.9947395  67.7055664   9.8440714  61.3822250
  66.9238968   9.3682375  61.1014977  68.0380554   9.3410864  62.1256599
  45.7075920   7.3906035  30.6513786  46.1411400   7.5914741  31.4807854
  44.8494301   7.0513258  30.9057121  65.3166199  -0.0346952  78.2634506
  66.1277237  -0.4101846  77.9208908  65.5168228   0.8927165  78.3901749
  64.1248779  40.0158043  69.0011597  63.9896851  40.0375481  68.0538101
  63.5041656  39.3589935  69.3166733  64.9947968  71.5110168  28.2228699
  64.6428986  71.2407837  29.0710297  64.2930298  72.0268097  27.8257427
  66.1489792   8.9532976  45.1365013  66.4128723   8.2927895  44.4959373
  66.9692001   9.2356539  45.5411606  55.6818008  50.6716537  33.7340240
  56.6382942  50.6487350  33.7627640  55.4108086  50.4948883  34.6348839
  58.7593956  29.5252399  17.3220787  59.5525093  29.0619602  17.5914726
  58.4084702  29.8913898  18.1338768  78.6343765  61.1809464  81.1694107
  79.4404068  61.4744148  81.5941696  78.0237045  61.9088249  81.2855911
  10.5158443   7.4900002  66.5629044  10.1506901   7.7003269  67.4223557
  10.6789951   8.3414345  66.1571045  43.6177444  24.6479263  70.7622833
  44.1310005  23.9247627  70.4019547  43.6838875  24.5391884  71.7109833
  54.2009048  19.7525787  85.2850800  54.8332901  19.4867001  85.9526291
  54.6147575  19.5154896  84.4551697   9.8317080   0.7898584   6.2049484
  10.6207829   1.1834530   6.5773387   9.1382885   1.0085115   6.8275175
  14.7939234  63.9315262  20.8337326  13.8450127  63.9949760  20.7252197
  15.0795193  63.3644333  20.1174431  65.7678986  47.7795677  85.7497635
  65.3262787  46.9344292  85.6664352  66.1731796  47.7535934  86.6165466
  31.5401096  48.6446457  39.0313797  32.3475838  48.8406296  39.5065689
  31.7898426  47.9656792  38.4045830  86.1195068  35.9090042   7.6102061
  85.6282501  35.1870270   7.2182312  86.5597000  36.3284035   6.8709064
  70.3557816  47.5124168  17.3980961  70.7261124  48.3343468  17.7198391
  71.1176910  46.9714966  17.1904125  81.2362289  24.2206802  61.3681335
  81.1001511  23.5661087  62.0531502  81.2048187  25.0592880  61.8285522
  49.5924187  50.4368019  29.9113388  49.1117592  51.0648155  29.3720856
  50.4268723  50.3203468  29.4570732  47.4092445  11.5248013  10.7385521
  46.6018066  12.0387650  10.7494974  47.4049149  11.0541897  11.5720615
  64.4193420   8.6526880  82.9300842  64.9082108   8.9482155  83.6981354
  65.0345688   8.7485971  82.2030869  53.1090469  15.2488813  11.2590189
  53.4633827  15.6884203  12.0319891  52.2784195  15.6936445  11.0902805
  75.4998627  17.3471680  29.7564182  76.0874023  17.1591339  30.4883137
  75.9939499  17.0857754  28.9793835  12.4165592  57.3650932  42.1314659
  11.7913065  56.7490540  42.5132828  12.5068159  57.0817299  41.2216339
  35.3489647  64.2453613  49.9146194  35.1029015  65.1640396  49.8063889
  34.8048782  63.9353638  50.6385689   9.2006302  10.7368279  66.7976532
   9.3948612  11.4141493  67.4455338   8.2467470  10.7473717  66.7187347
  54.1430511  54.1108055  26.3548088  53.9659920  54.8952599  25.8356590
  53.9576225  54.3733826  27.2564182  12.8565550  52.4611702  81.1444473
  13.7714405  52.3405533  81.3987427  12.7157326  51.8217125  80.4462357
  15.6428347  24.6423683  39.1254654  15.6740704  24.5920849  38.1700974
  14.7182932  24.7858009  39.3276596  55.6408882  48.7732620  25.2636833
  55.0529556  49.3380394  25.7652740  55.2423172  47.9046555  25.3174610
  49.0954819  65.4566345  46.0607300  48.9103203  64.7559128  45.4354744
  48.3311844  65.4717407  46.6367989  64.4846954  63.0720520  15.0576925
  65.3957596  62.8406601  15.2383699  64.0194855  62.2355232  15.0632849
  44.2712021  65.2283707  49.8817253  44.0166245  66.1292496  50.0812988
  43.4418945  64.7681427  49.7526016  43.2584953  20.9503937  20.6797466
  44.1206055  20.5769978  20.8629608  42.7780914  20.2436333  20.2485447
  14.3262663  43.4563179  38.2809601  13.8742285  42.7794609  37.7772179
  13.8522377  44.2627296  38.0779076  16.9338226   6.5870924  67.8990326
  17.7429733   6.4525852  68.3924026  17.0796070   7.4012380  67.4172134
  22.8397388  48.5346375  19.9667988  23.4460430  47.8227959  20.1715202
  22.0539379  48.3335762  20.4750519  65.5723877  20.9270363  69.3868942
  64.6702042  20.7430725  69.1252518  66.0391464  21.0580711  68.5615463
  25.2234974  26.9776173  61.4502869  25.8222466  26.7605972  60.7356987
  24.4575748  26.4242420  61.2974129  68.4524918  60.7667046  46.0623093
  68.1593475  60.0213013  45.5382118  67.7336960  60.9270401  46.6737518
  28.5976200  24.2028065  19.4331360  29.1041679  23.4719696  19.7874184
  28.7232571  24.1444511  18.4860115  19.7162495  21.5949459  57.3793297
  19.3231010  21.8258648  56.5377007  20.4910679  22.1533680  57.4430084
  28.5873680  25.5106049   5.0333920  27.8629017  25.7408848   4.4517117
  28.8976288  26.3498840   5.3733644  54.8841820   9.7881899   2.0111635
  55.8356819   9.7295055   1.9249104  54.6927948   9.3630524   2.8471425
  63.0138016  41.8025246  31.8635216  63.1232185  42.7230263  32.1021385
  62.3348274  41.4804802  32.4564095  20.2281914  41.6977272  34.7346001
  20.8104134  41.5484352  35.4795570  20.4654751  42.5685768  34.4159241
   9.7321405  65.4250793  74.8577957   9.3608351  65.7963715  74.0574799
   9.0302134  64.8835068  75.2186661  14.7037144  34.8079453  16.5274162
  15.3041010  35.5266724  16.3294296  14.9993305  34.4754944  17.3749523
  16.1057968  69.7074432  70.5756912  16.6632767  69.6781769  71.3532486
  16.5859909  69.2048416  69.9176407  56.1622276  12.0528870  21.7099075
  55.4825706  11.4192181  21.4801979  56.0743675  12.1658278  22.6563511
  62.0283508  15.9864216   9.4142122  62.7277412  16.4100399   8.9165869
  62.0689583  16.3942947  10.2792110  26.7864571  19.3469791  10.4927731
  26.9664383  20.0837841   9.9088573  26.8503380  18.5748024   9.9307289
  62.4719505  52.9104271  65.1423874  61.8028831  53.5453033  64.8864365
  63.1416321  53.4329643  65.5836487  53.6650009   1.8365940  34.1681366
  53.8066635   1.8016363  33.2221222  52.8035965   1.4393268  34.2961693
  40.5819740   5.1956134  56.8794746  40.6430168   5.8797169  57.5461884
  40.2921486   4.4193363  57.3586693  31.0539570  13.1311741   1.8055683
  30.2174168  12.9689198   1.3695544  31.2925320  12.2867002   2.1878991
  57.8510170  41.7941933  55.0755081  57.8603783  41.4102936  55.9523010
  58.0891953  41.0713501  54.4949913  25.0898762  64.5196304  46.1785126
  24.4844284  64.8298416  46.8518867  25.9456425  64.8453598  46.4574280
  16.3089371  32.6415558   0.2954420  16.6528187  31.7492752   0.3379979
  15.7867584  32.6589966  -0.5065909  12.8282671  33.7071571  72.9546356
  13.6450348  33.3430595  72.6132278  12.4209280  32.9806938  73.4263916
  79.8409653  65.5311203  88.4358749  79.6075668  64.6600189  88.7567215
  79.3552246  65.6225357  87.6161652  26.9049931  15.5211115  84.0941010
  27.1917362  16.3974876  83.8372421  27.6481857  14.9551535  83.8853226
   8.3367395  23.4108524  44.4564400   7.8644729  23.5524731  43.6359863
   8.2361679  24.2332897  44.9357224  75.9617233  43.3939095  69.7228012
  76.8754120  43.1217690  69.8085403  75.4586411  42.6553154  70.0657501
  47.6334229   4.9464536  53.9421310  47.4703178   5.6803417  53.3496475
  48.2163658   4.3672986  53.4512215   5.7220712  65.6125717  85.8230743
   6.2085795  66.4284515  85.9409332   5.1547709  65.7786179  85.0701904
  28.4943542  12.8206892   3.4074652  29.1363087  13.2451696   3.9766254
  27.8527527  12.4436779   4.0094962  59.9060020  34.7492828  61.0099869
  60.6812134  34.2557220  60.7422600  59.5958023  35.1633987  60.2046814
  47.8231697  35.6748772  13.9421654  47.7618713  36.4516029  13.3861380
  48.5799637  35.8416481  14.5040197   3.9278295  54.0350685  76.5805664
   3.5875604  53.1420441  76.5261841   4.7896547  53.9886169  76.1666489
  63.0615425  57.2041893  78.2372284  63.4950333  56.5131874  78.7380600
  62.1692924  57.2268867  78.5830612  82.3196030   0.6141069  44.2649193
  82.5835648   0.1339632  45.0497894  83.0174103   1.2553623  44.1304283
  15.7447481  52.1778030  81.1002426  15.9507627  53.0840988  80.8712845
  16.4251022  51.9281578  81.7255630  54.5229568  53.6667671  68.2381973
  53.7461548  54.0313148  68.6623688  54.4209061  52.7190208  68.3253479
  31.0410366  23.1038857  85.6317673  31.7586880  23.6325970  85.9805832
  31.4695625  22.3304119  85.2652512  30.0245972  33.8513184   5.6832452
  29.2610722  34.3511429   5.3943963  29.6569500  33.0995560   6.1479206
  13.8070774  17.7374439  55.6194763  13.7403679  17.4604454  54.7056618
  14.1612005  16.9742031  56.0758667  75.5835571  22.0322075  83.8708267
  76.1006393  21.9153118  83.0738373  75.6342316  22.9703979  84.0537567
  81.4015808  51.9724884  45.1662979  80.5312119  51.8076782  45.5289650
  81.6179657  52.8587074  45.4561729  40.5074615   5.6731172  71.3317413
  39.9797134   6.1498790  71.9723816  41.3507957   6.1259074  71.3316422
  34.0299797  51.8381882   3.3936768  34.5871620  52.5959511   3.5713739
  33.8743210  51.8714371   2.4498036  26.3535824   9.9553232  13.2991848
  25.4378128  10.2062569  13.1782322  26.3605022   9.4624481  14.1197081
   2.7742512  12.8406239  81.7688370   2.2977743  12.5950975  80.9757919
   2.2340152  13.5201283  82.1721344  86.1039963  58.7698975  57.6408844
  86.8166809  59.3866692  57.4738503  85.8053513  58.5074615  56.7701569
  19.5247269   0.3514072  72.2882919  19.0612869  -0.4860721  72.2791672
  20.3944626   0.1476150  71.9443970  67.5215149  27.0362320  57.9947548
  67.1685791  27.5894432  57.2978859  66.9523239  27.2046108  58.7456856
  15.1343203   9.2480116  85.9296494  14.7401438   9.6496611  85.1553574
  15.6995230   8.5588837  85.5805359  57.7031021  68.2903976  39.4922447
  56.8735886  68.7386093  39.6572952  57.5433769  67.3850861  39.7589340
  66.4984741  20.9318104  35.2357674  66.8732376  20.0660877  35.0735626
  65.5738068  20.7625427  35.4162140  64.3965225   0.5073725  33.8802948
  64.7662048   0.2607167  34.7280693  64.4106903  -0.3013278  33.3684006
  71.0008850  67.9913254  48.4926758  71.0552750  67.7078247  49.4053078
  70.9197235  67.1784515  47.9937935  68.8070831  39.3367233  88.4900894
  68.4455261  39.4822273  87.6158295  69.6673584  38.9479828  88.3318558
  62.9064751  14.4432840  36.0564461  63.7015839  14.7824278  35.6453323
  62.8569565  14.9008045  36.8957634  52.4029884  35.3394279  25.2167187
  51.7388000  34.8027077  24.7842655  52.1249199  36.2409630  25.0550251
  22.9886856   8.4330435  62.1670456  22.3428345   9.0385485  61.8030777
  23.8303986   8.7635326  61.8531532  41.6881866  71.6613922  38.1675224
  41.4841614  70.7745667  37.8706207  42.6365013  71.7371521  38.0617332
  78.8118896  67.1879959  53.4187202  79.2414703  66.4582520  53.8649940
  78.4832916  66.8099136  52.6030540  66.9752045  53.3559074  81.9722595
  66.2442322  53.7527275  82.4460144  66.5618973  52.8634567  81.2631073
  57.8789215  51.5428314  51.1629791  57.1125755  50.9756470  51.2481003
  58.1016808  51.7811165  52.0628853  11.6870852  12.2265720   4.5483432
  12.2678061  12.9135332   4.2211123  10.9298344  12.6982279   4.8952479
  24.4157963  27.8403225   3.5828061  24.9618149  27.5547600   4.3153009
  25.0280533  27.9461117   2.8546705  12.3584919  14.1119032  67.0443497
  11.7943974  14.8515882  66.8187485  12.0427914  13.3938723  66.4957123
  81.9505692  14.3168001   9.3712244  81.8389206  13.7880449  10.1612768
  82.4741211  15.0657225   9.6562548  58.4531975  26.9441586  75.8775635
  59.0171738  27.5119801  75.3524551  59.0137482  26.6461277  76.5939407
   4.7223620  23.2954197  73.7640991   4.6142483  23.1080379  72.8316727
   5.4965653  22.7945099  74.0208740  59.9626236  10.9511271  32.5180206
  60.5593109  10.7495232  33.2388229  60.2142944  11.8310919  32.2377434
  50.0252380  70.7680206  64.2378464  50.3296051  70.3432159  63.4358902
  50.5541687  71.5631180  64.3032990  75.9334564   4.2303371  28.2629795
  76.2542877   4.9763145  28.7697525  75.0244370   4.4515047  28.0605087
  34.7079315  62.4063492  82.1545715  34.1286240  63.1437302  81.9624710
  35.5646935  62.8069267  82.3019638  42.6854210  59.7927971  16.7179832
  42.0438499  59.5539589  17.3869934  43.0422974  60.6294136  17.0162106
  47.7090645  17.8689175  68.8335724  47.0503922  17.2646828  69.1760330
  48.1222382  17.3905449  68.1147690  77.9164886  51.4782600  48.7920341
  77.5303421  51.5597191  49.6640930  78.7792282  51.0937271  48.9470787
  11.3389902  56.3015862  87.3401947  10.7035866  55.5948677  87.4543991
  12.0461473  56.0885963  87.9491196  65.7687531  38.9616699  58.0501289
  66.0193710  39.3172264  58.9027748  65.0887146  38.3182068  58.2494621
  85.4503479   4.0403299  68.8680496  85.0971680   3.4148481  69.5007248
  85.6090012   4.8340697  69.3789673  65.2594070  31.1473999  30.0549335
  64.4232712  31.6105938  30.1055126  65.4557266  30.9079342  30.9606609
  73.6403046  34.8146858  70.8596649  73.2112503  35.3498764  70.1920471
  74.4226608  34.4732513  70.4265671  60.9714050  17.6716385  67.6417923
  60.9656258  18.2460117  66.8760986  60.0865250  17.7412319  68.0000916
  65.2664566  62.9689751  45.4083748  64.6846313  63.6972275  45.1907463
  66.0021362  63.3780937  45.8640366  86.3062363  41.2325554  55.7262917
  87.2529831  41.0952988  55.6937904  85.9494324  40.3815384  55.9806557
  20.1448879  22.7962322  22.3456516  20.4992199  22.4263821  23.1542873
  19.8240261  22.0387421  21.8562756   5.1572700  25.8217888  85.1542816
   5.3089237  25.1951218  84.4468079   6.0308075  26.1367130  85.3866272
  62.2769012  25.9246483  12.5635214  62.1880226  26.8490658  12.3316040
  61.4131966  25.5501518  12.3903246  45.6926880  22.7404575  69.9497910
  46.0513496  22.8013382  70.8351593  46.2605705  22.1119480  69.5040131
   4.5075994  29.8389416  12.5698252   5.1934280  29.8074799  11.9028311
   4.0613680  28.9954758  12.4945011  77.5183945  23.8398895  11.3172026
  76.7242889  24.1051483  10.8532352  77.2390594  23.7289066  12.2259846
  45.9653893  42.5669327  25.5384712  46.8057556  42.1598587  25.7489662
  46.0164108  42.7503815  24.6004009  22.3651581   7.7088966   6.3561182
  22.4901505   8.5140734   6.8584123  22.0587044   8.0061750   5.4994135
  63.4485855  32.8776817  52.4050217  63.3773003  32.0061874  52.0156021
  62.6191521  33.0025177  52.8661995  57.2981415  57.6787949  70.5646973
  56.3583336  57.8052711  70.4343338  57.3776360  57.3956947  71.4756088
  70.3818665  27.4614105  23.4686222  71.3172455  27.3488407  23.6378307
  70.1315918  28.2171898  24.0000267  70.0342865  28.7994595  82.4480133
  69.7994461  29.3875999  81.7302628  70.9546127  28.5872650  82.2924347
  78.5278091  29.2410049  60.5749588  77.9829254  28.5069580  60.2912292
  78.8976288  29.5919476  59.7648315  84.2636795   6.7664771  77.1978302
  83.8751144   7.5071435  77.6633072  84.8050995   7.1680613  76.5182495
   9.4050007  31.4731941  71.9584961  10.0499458  30.8132343  71.7040787
   8.6971788  30.9724903  72.3641052  39.0639153  34.7757568  20.6168175
  38.4937401  35.0190659  19.8874798  38.9857712  33.8235016  20.6745701
  68.3425064  50.6883087  68.0125351  68.4848557  50.9838333  67.1132965
  68.9907761  51.1683426  68.5278549  77.4167023  65.9037704  31.1386623
  77.3665771  65.3436966  31.9132805  76.5041580  66.0942154  30.9213428
  17.9158974   5.8089852  32.9344482  17.4544716   4.9749131  32.8470383
  17.8684521   6.0121994  33.8686256  73.2825089  20.6632137  62.4691772
  73.1310425  19.9441319  61.8558197  72.8282089  21.4101715  62.0794373
  68.3513870  22.2912445   5.2418714  67.6680222  22.9433384   5.3968320
  68.4940186  22.3140011   4.2956314  50.5677414  29.5877953   3.7167022
  50.9006119  30.2481308   4.3244748  51.3139114  29.3831615   3.1531525
  35.0409889  12.7063198  47.8741035  35.1180305  13.3029175  48.6186638
  35.2480392  11.8444347  48.2353745  62.5584755  18.4280396  18.7200966
  62.3141098  17.8120441  19.4107971  61.8830910  18.3177147  18.0508327
  -0.0230954  46.7505608  23.8948708   0.3203773  47.3793335  23.2601261
  -0.0123679  47.2213516  24.7282219  57.7582245  65.2409286  16.6736832
  58.4230957  65.8219833  17.0432148  56.9291534  65.6898346  16.8390903
  29.8344212   7.9576497  30.0728722  30.5739231   8.2623701  29.5470257
  29.3638020   8.7567053  30.3100605  57.9660416  60.8331451  15.8882818
  58.8852730  61.0486488  15.7307978  57.7246742  60.2645226  15.1570911
  51.1565742  50.0972404  86.0760651  51.3843575  50.9387054  86.4713974
  51.5416222  49.4453812  86.6617661  23.2232151   6.1460295  43.0362320
  23.9954338   6.1814213  43.6007309  23.0004292   5.2161136  42.9931679
  47.1728325  54.2803574  79.5692520  46.3978271  54.0473480  80.0804367
  47.8292503  54.5178261  80.2242050   2.7356479  48.1046333  17.4332581
   1.8705020  47.8147240  17.1439342   3.2117352  48.2838860  16.6224289
   7.6628489  35.7699165  86.6850357   7.6163769  35.3167648  87.5268936
   8.5825443  36.0207138  86.5984726  13.0516958  18.6478729  29.4075375
  12.3065643  19.1774635  29.1237316  13.5747643  18.5262947  28.6151676
  14.6015434   1.9191513  22.3321400  13.8057632   1.4103653  22.1768913
  14.5043440   2.6916735  21.7753696  72.5201721  23.9674129  28.4697933
  71.8298645  23.4902687  28.9302731  72.0526733  24.5184593  27.8420792
  53.7031326  64.3302231  51.9521255  53.9113731  63.4042664  52.0765419
  54.4304199  64.6714478  51.4316940  70.4106369  10.7999554  73.7063370
  70.2563553  11.5685978  74.2555313  70.1196594  10.0612526  74.2410126
  85.7509689  63.8473167  85.1736526  86.2257843  63.4318161  85.8934708
  84.8279266  63.6945152  85.3758163   0.1038500  12.7357283  54.8377342
   0.3936366  13.1464548  55.6523247  -0.2925795  11.9094238  55.1139526
  15.9862194  11.2546558   3.8070912  16.4613075  10.4501047   3.5991917
  15.1028767  10.9605417   4.0294313  25.5167866  35.9329224   4.4475441
  25.2679043  35.6220665   3.5771077  25.2442513  36.8504028   4.4611998
  10.4884262  55.6838226  43.2384720  10.8628263  55.1666412  42.5253220
   9.5492783  55.5033264  43.1977959   7.5548172  36.4304199  44.8109360
   6.7979922  36.0861931  44.3366394   8.1672430  35.6958275  44.8502083
  16.3120098  12.1098204  80.1407013  16.2663803  11.8181190  79.2301712
  17.2382240  12.0344477  80.3702164  72.2799072  27.1191673  38.9641228
  72.8934784  27.0760593  38.2307014  72.7399292  27.6280975  39.6316528
  17.4873981  53.4822006  45.4478531  18.0430260  53.5810013  46.2209930
  18.0464897  53.0453529  44.8053474  14.8675995  37.7517853   0.2642814
  15.0271301  38.0211678   1.1688339  15.3733072  36.9455757   0.1617354
  41.9781265   9.9008522   6.1564851  42.9044037   9.9248886   6.3966169
  41.6880760   9.0241127   6.4083414   7.6897154  25.4372387  19.6307411
   7.6336498  25.1692696  18.7135277   6.8042750  25.7272644  19.8500862
  44.6331062  12.6242723  11.6718864  44.9879532  12.3687906  12.5233831
  43.7133179  12.3616467  11.7071486  46.5862236  33.4113083  69.6212311
  46.3917389  34.2490540  69.2010040  46.6120911  32.7820663  68.9003906
  80.0042572   2.9584315   9.8124151  79.8335800   2.1622279  10.3155661
  79.4101639   2.9008391   9.0641022   6.4006586  65.1664886  18.3587055
   6.6780686  64.3063660  18.6740761   6.8469467  65.2687607  17.5181103
  38.8545189  12.0641003  87.0664749  38.3798637  12.0689354  87.8976822
  38.7561378  11.1698084  86.7396774  55.1317787  31.0998611  83.7102203
  55.8027153  30.8763447  84.3552856  54.3187599  30.7576389  84.0818558
  17.3879948  53.9982071  37.9345589  17.8007507  54.1735420  37.0889091
  17.0460205  54.8471870  38.2147713  33.4505424  53.4790115  88.1949615
  34.0935593  54.1357231  88.4623413  33.5490074  53.4204178  87.2446442
  77.9127808  71.3226242  57.6755676  77.6329117  70.4166183  57.5449448
  78.6449661  71.2610550  58.2890358  58.2600479  10.9376411  68.2625504
  58.5223694  11.7752743  67.8807297  57.6402359  11.1727943  68.9530334
  38.6426582  49.4413910   4.2871523  37.7390518  49.1294937   4.2377491
  38.5886459  50.3692055   4.0580845  28.4765739  12.1337252  49.1407890
  28.4734974  13.0062866  49.5343094  29.3594055  11.8010969  49.3026428
  57.5859756  43.2409439  42.6005249  57.0830345  42.4969597  42.9318352
  57.9602013  42.9291687  41.7765198  64.4857025  59.4130783  68.3988419
  64.9094467  58.7543869  67.8485718  64.5250168  59.0479660  69.2827988
   1.6377851  36.3227501  73.1411209   1.0659674  35.7415161  73.6425400
   1.0825262  37.0692291  72.9159775  29.1298351  66.9981613  23.3141518
  29.1054249  66.1638260  23.7826881  28.3730831  67.4813843  23.6458969
  76.6159439  71.2384491  87.1939392  76.4266129  72.0205994  87.7122269
  77.3443069  71.4961014  86.6288452  32.9048386  39.6448936   6.8232064
  32.0555115  39.6043282   7.2627892  33.5340118  39.7870789   7.5304232
  43.2054939  70.7848969  29.0444012  42.5471382  70.7932587  29.7391891
  43.3386612  71.7081070  28.8295002  17.1493702  57.0790825  44.7523232
  16.9710293  56.8915176  45.6738663  16.9013939  56.2771187  44.2923279
  73.2319946  13.2534599  76.9919586  73.2283020  12.4965439  77.5778732
  72.5920334  13.0350542  76.3144836  22.6601734  64.0981522  52.4779587
  23.4833927  63.8125076  52.8741264  22.2881165  63.3020744  52.0983963
   8.3124475   0.9057369  88.0094910   7.8606896   1.5081848  87.4185562
   8.7819405   1.4751595  88.6190491  10.9033499  19.9061184  70.0768280
  11.6578979  19.5122185  70.5147018  11.2846355  20.4774265  69.4101486
  29.5075092  71.0585709  82.4686890  28.7843990  71.0187302  81.8427811
  29.9865742  71.8524323  82.2309723  78.5447617  30.2982502  13.1537590
  78.1496582  31.1378536  12.9188328  79.0640106  30.4881725  13.9351320
  69.1637421  63.0143509  73.3748398  68.4047775  62.4796410  73.1418228
  69.8661957  62.6921730  72.8100433  18.2953510  60.7002869  60.8808784
  18.7792549  59.9176750  60.6170845  17.8289642  60.9713783  60.0901680
  78.7858582   5.9781551  47.0097427  78.0635910   6.1815143  47.6040535
  78.5959396   5.0941186  46.6956711  62.2407799  32.9090462  74.2210846
  61.7603416  33.7264709  74.3523636  61.5847702  32.2231064  74.3450394
  59.3041191  71.5561218  85.3110199  59.2690201  71.5711975  86.2674561
  60.1802063  71.2278824  85.1086349  18.9720554   8.7819214  65.5270081
  18.2803955   8.2322674  65.1586075  19.7779484   8.4503479  65.1309967
  83.3330002  34.1845551  48.3752708  82.5387421  34.6834908  48.5661926
  83.0145187  33.3411942  48.0534821  55.6991615   8.5042267  61.3374138
  55.7978706   7.5685101  61.5132637  56.2201538   8.6560125  60.5488968
  64.6653900  45.3116417  84.8660812  63.7520027  45.4950066  85.0859222
  64.8568954  44.4847488  85.3085785  15.0006962  23.1783409  58.2839165
  15.9466476  23.2400532  58.1512489  14.7137108  22.5144634  57.6569099
  44.8540688  40.1254730  84.2486801  45.3162346  40.0622559  83.4128342
  45.5327110  40.3639946  84.8801727  80.9481735  45.5667381  83.1709061
  80.3750076  44.9133148  82.7699814  80.5031128  46.4006233  83.0199509
  30.4310722  61.4476929  77.7974472  30.1603394  61.7330856  78.6700821
  30.9940434  60.6902008  77.9571228  47.6994133  26.1741390  13.8067703
  47.4691887  25.3130245  14.1556406  47.8991432  26.7005844  14.5808477
  84.5280151  70.4059448  25.4103813  85.3847733  70.6008453  25.0306282
  84.7241898  69.8865967  26.1901379   8.2263031  51.8032417  40.1640968
   7.6039987  52.5302811  40.1836586   8.8561974  52.0084724  40.8549995
  72.6135941  10.6034603  23.9804916  72.4088364  10.1311693  24.7874908
  73.3436890  11.1757078  24.2165508  79.6893234  21.7867203  38.9533424
  78.9383545  21.2771168  39.2576180  80.3952713  21.1458416  38.8688431
  73.2807770   5.6982150  82.7334671  73.6574783   6.5437984  82.4899139
  73.4503860   5.6219811  83.6724319  70.5794220  19.2286053  16.1311188
  69.9472046  18.6770515  15.6703396  71.3653107  18.6864262  16.1993713
  57.5799828  23.0524616  13.8560152  57.0171928  23.3686943  13.1492634
  57.0226173  22.4580536  14.3582668   2.6751046  64.5195694  81.4514771
   2.8721809  65.4529648  81.3729248   1.7975398  64.4280090  81.0803604
  35.6267014  66.9774857  48.8549843  34.8618240  66.4252701  48.6929474
  35.6859016  67.5377274  48.0811272  75.6224365  37.4309883  50.0961914
  75.1551361  38.1799126  50.4662895  75.6442337  37.6036110  49.1549377
  84.1728897  51.7677307  84.3496475  84.3545609  52.4551239  83.7087708
  85.0262451  51.5670319  84.7340164  83.3343506   4.7523131   4.4610338
  83.8266830   4.4014249   5.2031393  83.3388138   5.6997786   4.5971284
  65.8500519  71.3552551   8.9089699  66.4585648  71.4490738   8.1760674
  66.2449951  70.6824493   9.4635706  64.2043762   6.0427246  76.7115555
  64.3254852   5.1625962  77.0678406  63.7983322   5.9011550  75.8563843
   4.7520566  14.6256580  63.8580437   4.2669554  15.1984205  63.2640305
   4.0916820  14.0257940  64.2048874   1.1888291  43.1378136  39.1486816
   2.0349836  43.5088921  39.3987961   0.8528321  42.7436028  39.9536247
  62.5896378  66.1551437  74.0074997  63.4148407  66.0164261  73.5427094
  62.6101379  67.0777206  74.2618027  49.3179131  60.9814148  32.9706459
  49.7343292  60.9592934  33.8322372  48.5008011  60.4966278  33.0870285
  56.9903564  30.9926739  53.0528145  57.6358223  30.3175755  53.2622070
  56.1665726  30.6531200  53.4025497  67.7245636  27.1045685  24.0736046
  67.4426651  27.9005928  23.6229305  68.5544739  26.8740616  23.6560497
  39.4135094  61.1867180  37.6291924  40.0149612  61.6148872  38.2384186
  39.8854065  61.1731873  36.7965088  26.1043644  20.2217484  15.8250580
  26.1061897  19.3479652  16.2158680  26.8590660  20.6610374  16.2170792
  69.0605392  36.1101952  16.7917271  68.6369629  35.3241539  17.1366253
  68.3465195  36.6168289  16.4047699  24.4364910  20.6551723  65.6940918
  23.7483749  20.5835037  66.3555984  25.1279106  20.0699100  66.0033417
  72.3304901  38.8505821  27.1386509  71.6740112  38.1647911  27.0163383
  72.1029510  39.5181236  26.4914665  80.8964157  38.9481964  81.6677246
  80.0859146  39.2380142  82.0864334  81.5921478  39.3375168  82.1974487
  44.6955414   6.5503969  64.7422028  45.4255295   6.4450393  64.1320801
  44.7747841   7.4507675  65.0572968  52.8839912   5.1813083  61.8736038
  52.8433609   5.1316895  60.9185562  52.7026024   6.0996251  62.0736618
  85.2498016   8.0369196   1.0529385  85.7461395   7.2732925   1.3474874
  85.6691284   8.2928085   0.2314036  71.8810883  69.8922195  13.5078239
  71.8094711  68.9576645  13.7020254  71.6961899  70.3249207  14.3413801
  83.0459290  37.8166466  87.6742249  82.7572556  36.9260521  87.4748535
  83.9339294  37.7099037  88.0152359  23.0528736  46.3728523  86.7582016
  23.2387066  46.4467545  85.8221283  23.4732285  45.5543365  87.0219498
  79.8983078  15.4437551  21.3660469  80.7847137  15.8039684  21.3385944
  79.4706955  15.9141102  22.0816898  39.0996857  12.6548624  21.9998875
  38.9122543  12.1659260  22.8011627  38.3077126  13.1687860  21.8421059
  29.5203056   4.5562387  65.5690689  30.3242893   4.7559848  65.0895386
  29.5684299   5.1008949  66.3547287  44.5907364  30.9707565  84.3226318
  44.4947701  30.4836559  83.5042419  44.1985054  30.4034863  84.9863968
  80.8601685  17.4673042   6.5363245  80.0374832  17.9215584   6.3544636
  80.8897934  16.7588329   5.8933454  81.3576736  66.8016052   8.8424368
  81.0552521  66.5798035   7.9617705  82.2913208  66.5906754   8.8352709
  73.2593689  68.7686310  45.5023193  72.4189072  68.3802032  45.7451859
  73.6288223  69.0768433  46.3298111  79.1659241   9.4625206  10.2764540
  80.0970383   9.6464252  10.4006939  78.7189331  10.1138000  10.8170700
  77.5102234   0.8707279  13.6247816  77.2165298   1.7007431  14.0003500
  76.7329712   0.5140589  13.1947861  68.5611954  44.6407280   0.7249202
  68.5593033  43.7246780   0.4472840  67.6357346  44.8604126   0.8321274
   8.5281258  38.2990608  18.5260887   9.4490366  38.5515785  18.5923481
   8.4422359  37.9356651  17.6447277   5.7932014  44.3558960  46.2275810
   6.3723631  45.0779610  46.4713478   5.2602954  44.7067184  45.5140266
  86.6802292  59.7601547   8.0379734  87.5053940  59.9130898   8.4983501
  86.0246582  60.2201996   8.5621977  32.5456505  32.6507950  76.9361649
  32.3036728  31.7513714  77.1568756  33.3601189  32.5649796  76.4406738
   7.2718372  24.6452103  48.5644760   6.8180428  23.9121189  48.1486855
   7.6131406  25.1610146  47.8339348  22.6559525  56.5741348  33.2916107
  22.3448715  57.3588219  33.7429733  21.8807278  56.2296944  32.8481941
  12.3496313  46.1737518  11.1799192  13.1098719  46.0866776  11.7549696
  11.5965757  46.1141701  11.7677879  45.8832741  20.0049305  18.4880486
  45.3591156  19.5147247  19.1214428  46.2016563  20.7638111  18.9768887
  40.1505051  65.5438614  68.1700897  40.2916985  64.6269226  68.4057312
  40.4196358  66.0348434  68.9464569  81.1873093  41.8858528  84.0502777
  82.0242691  41.6321106  84.4393005  81.4231644  42.2792435  83.2101288
  12.6269808  66.5983047  58.2959557  12.9517460  66.4737854  57.4041862
  11.7430840  66.9476700  58.1823616  75.2228775   5.0234661  44.9080544
  75.7355576   5.6596107  44.4093399  75.0342484   4.3243399  44.2820587
  11.1747446  40.7524681  11.7294817  11.6169586  41.5213814  11.3696861
  11.2468796  40.8567734  12.6782436  13.2970657   3.7701890  38.8426437
  14.2040262   3.4885249  38.7229843  13.2452583   4.0260868  39.7635498
  21.1305904  42.9935455  66.5930710  22.0498295  42.9983292  66.3262177
  20.6615334  42.6552315  65.8303375  13.1294460  20.7505665  77.0346756
  13.2700319  19.8315735  76.8068161  13.8541279  21.2147884  76.6156693
   9.4222326  66.6160507  35.5235214   9.1027699  66.6414413  34.6215630
   8.7517490  67.0765305  36.0281410  76.3535538  47.0226555  17.2565250
  76.0775757  47.2625198  18.1411343  76.8582382  46.2177086  17.3730736
  51.8578072   7.1703801   7.6095018  51.0148201   7.1763854   8.0628967
  51.6689072   6.7763824   6.7578478  69.4416199  60.9364929  42.9538002
  70.1127777  61.2324448  42.3388290  69.6888199  61.3350983  43.7882080
  85.9076233  31.4992981  30.0549221  86.5727768  31.7601013  30.6919308
  85.0748749  31.6947765  30.4845276  83.7851639  65.8168411  79.6115723
  84.3357086  66.3673401  79.0547256  84.2081909  65.8453827  80.4697495
  81.9909286  20.5232563  33.7222748  82.5324860  20.6335506  32.9407501
  81.1741486  20.1453037  33.3963013  75.7474518   5.6105676  33.3844032
  75.2014313   4.8384380  33.2363930  75.1306915   6.2927670  33.6498032
  37.7294006  67.6933289  50.6013336  37.1685371  67.4769363  51.3462105
  37.1625938  67.5904617  49.8368835  21.4348660  35.4775543  78.2105637
  21.1251774  36.3804855  78.2815781  21.3967533  35.1401939  79.1055298
  50.6421661   8.6369267  18.8033867  50.1927567   8.6791763  17.9593010
  51.2733650   7.9243302  18.7032642  53.4722748  64.1032257  31.8848591
  52.5650024  64.1005325  32.1899452  53.5049057  63.4112206  31.2243328
  60.3656998   6.3199687  45.8293610  59.9366722   7.1435442  45.5972176
  61.2802620   6.5600133  45.9783287  67.7059631   1.2839794  19.3674412
  68.5963135   1.6298361  19.3050346  67.3995438   1.5654801  20.2294712
  74.1163406   6.5867414   7.6200714  74.1719818   7.4794993   7.2793088
  74.7627106   6.0959458   7.1125751  82.0138474  29.5089226  13.0691214
  81.4440536  29.9054642  13.7281532  81.5282898  28.7432690  12.7621346
  77.7639618  59.4438171   8.4299507  77.5997849  58.7177200   7.8282371
  78.0859985  60.1504822   7.8703518  79.8488464  46.6744804  74.0992432
  80.2401810  46.9138107  73.2591171  80.0474167  45.7434769  74.1994019
  63.7096405  35.1428299  40.3194084  63.2928276  34.3768730  40.7141304
  64.6045761  35.1300201  40.6587486  50.6812248  51.5324173   7.9236016
  51.0471497  52.3866386   8.1530294  50.4736023  51.6032143   6.9918761
  14.3797379  20.8819637  65.1575012  15.0561056  20.2927132  64.8235245
  13.5931606  20.6472378  64.6651306  75.3701859  43.7563210  66.9295731
  75.9309006  44.3386269  66.4169769  75.6970291  43.8366814  67.8256454
  34.1206131  12.1583176  13.9234142  35.0751762  12.2175245  13.8842354
  33.8259697  13.0678129  13.9707088  13.3551960  40.6247101  22.2489815
  12.7467060  41.1996613  22.7130985  12.8200207  40.2015038  21.5776291
  22.9267311  10.5369253  65.1521912  22.3841953  10.6434603  64.3708191
  22.3661671  10.8222246  65.8737183  23.9047508  20.3521652  69.4433746
  23.6812534  20.8516960  68.6580429  24.8079739  20.0701447  69.2988739
  72.0306244  58.5914764  14.1236725  71.5978699  57.7747231  13.8749380
  71.6533737  59.2497826  13.5401077  81.6450348  16.0609150  71.9673920
  82.0638885  16.2546635  71.1287842  80.9797516  16.7420387  72.0658493
  49.9898338  41.2859917  88.6437759  49.9039574  41.7026787  89.5012283
  49.1791992  41.5096550  88.1865234  54.6568832   3.2304842  10.1860847
  53.8969650   3.1550198  10.7631979  54.3330765   3.7131910   9.4255743
   2.2095892  48.7941551  11.7138920   2.8612726  48.0941162  11.7524405
   1.4108770  48.3972473  12.0613890   4.4729395  24.8540039   7.6884341
   5.1958375  25.2420902   8.1814241   4.4043684  25.3924904   6.9000416
  78.8203125  29.8512688  41.1416779  78.1974335  29.8945580  41.8671989
  78.3336411  30.1848850  40.3879623  30.3209610  21.2442017   8.8521595
  30.6693935  22.0074291   8.3913870  29.5346127  21.0062637   8.3609629
  61.8962784  47.9873848  52.3531685  61.8557396  47.9517174  53.3088455
  61.5978661  48.8699684  52.1335564  79.4670563  24.9297028   1.4889040
  79.5603027  25.6866856   2.0672748  78.8506317  25.2173195   0.8154548
  61.9372711  15.2879620  75.0336761  61.8379707  14.3391075  75.1114349
  61.4251595  15.5196753  74.2588959  14.9054575  14.6080875  66.1612549
  15.6430159  14.2083216  66.6221542  14.1363325  14.3457031  66.6670532
  24.8528690  70.9001312  69.3880310  24.7345028  71.7716751  69.7656937
  25.1253643  71.0652161  68.4854050  53.8072472  67.4164124  41.7247505
  53.4848099  66.6095505  41.3232079  53.4036827  67.4299164  42.5926132
  23.6223717  57.8305588   9.6880512  23.1035385  57.8263206  10.4924297
  23.1123390  58.3621025   9.0768585   8.3104820   5.7288804  63.6657181
   8.6652756   6.5566893  63.3415527   8.0563507   5.2515588  62.8759003
  65.0487518   9.1290197  53.0416031  65.8669357   9.0003014  53.5214272
  65.2909393   9.6828251  52.2993927  22.8694935   7.5625048  49.7842216
  23.8202934   7.5989809  49.8885345  22.6506023   6.6384892  49.9046936
  82.1279755  20.5086403  21.1379070  81.5285950  19.8812141  21.5420322
  82.2360535  20.1929340  20.2407551  33.4942894  46.1705551  24.1198387
  33.5040512  46.6379852  24.9550915  32.5781364  46.1931076  23.8434467
  72.3769836  32.6703186  77.1834946  73.1799393  32.3380775  76.7821045
  72.3979416  33.6126251  77.0166092  78.4043961  34.9048615  59.3770332
  77.6453857  34.7934418  58.8045616  78.5513840  34.0363693  59.7516670
  19.8100109  46.5705643  24.7488747  19.2540245  46.8433075  24.0189972
  19.4930382  45.6969070  24.9779644  58.7203979  57.6030540   9.8736973
  58.3532448  56.7491875   9.6449146  59.0138588  57.9689369   9.0392857
  15.2452097   4.9075098  65.8094635  14.3766127   4.9465513  66.2097778
  15.8432989   5.1710591  66.5087967  59.6881256  51.9553566  49.0141525
  60.3848724  52.6021385  49.1257248  59.2704659  51.9025192  49.8738022
  70.7531738  50.2178459  83.2544556  70.5431213  49.4556732  82.7148209
  70.2467270  50.9320831  82.8676529   6.8009529  36.6213074   2.4537709
   5.9505191  36.6054573   2.8927960   7.2000027  35.7796326   2.6741796
  68.8712082  65.1329269  10.7964249  69.2263947  65.9749146  10.5115700
  68.5693283  64.7151184   9.9898682   0.1779890  58.5806389  25.5717144
   0.5474180  58.1022263  24.8295040   0.4186434  58.0584526  26.3369808
  53.1727943  12.8396435  72.3612976  54.0539551  12.9388580  72.7217789
  52.9579086  11.9178991  72.5042801  20.5226803  58.2390442  28.5217476
  20.4672012  59.1920662  28.4517632  20.2541962  57.9195938  27.6602955
  19.2103653  61.3507652  22.6030979  18.9329929  61.5866394  23.4883442
  20.1311054  61.6094513  22.5636864  55.1010742  14.9350910  84.7739029
  54.8174896  14.0217752  84.8147125  56.0511093  14.8960505  84.8841095
   7.4331131  71.2836227  49.2348785   6.8519859  70.6014023  49.5711823
   7.9380732  71.5655365  49.9976158  32.2349281  48.4350243  78.9391251
  31.7047291  48.1584778  78.1917038  31.8990307  47.9218483  79.6740112
  45.4328575  40.0822868  66.8731079  45.2253532  39.2710915  67.3369370
  44.7054214  40.2018890  66.2625656  44.7393265  62.5704346  87.6117630
  45.6333046  62.5020752  87.2765656  44.7553864  63.3392487  88.1817627
  13.4907684  58.5508919  79.1226425  13.3480244  59.3859329  79.5682449
  12.6863050  58.0559616  79.2779236  11.7682829  34.7299347  34.2097588
  11.3063478  34.8347664  35.0415382  12.4668226  35.3836784  34.2396774
  66.6809540  50.4571152  88.0457001  66.2517242  49.7695961  88.5549240
  66.1407394  51.2341576  88.1892395  22.3449974   0.0101683  28.5782356
  22.8783970   0.7826962  28.7650948  22.5986385  -0.2473416  27.6919022
  78.8376389   8.7072687  38.0429306  79.4244919   7.9534192  38.1025124
  78.2787018   8.5167322  37.2895927  28.5672398  60.0637550  27.9639797
  28.5132847  60.0480461  27.0084305  29.4537010  59.7597046  28.1588497
  24.9417667  22.4190998  17.0535965  24.6290569  21.9490128  17.8265533
  25.3164520  21.7383957  16.4945946  11.4922829  17.0444927  77.6427231
  12.0868025  17.2176609  78.3726501  12.0685062  16.8138695  76.9140167
  22.2899017  19.5534706  16.8341789  21.5755482  18.9517231  17.0435314
  23.0112953  19.2742119  17.3979492  59.3277626  61.8507500  65.9359131
  59.7589989  61.6638412  66.7697754  59.8747940  62.5223961  65.5286255
  40.0405502  66.7510147  60.6902580  39.1551781  66.7321625  60.3269501
  39.9338722  67.1329346  61.5614548  18.1713734  27.7700520  60.8681221
  17.4534969  28.4027271  60.8434410  18.9368916  28.2649002  60.5759964
  16.3486500  25.9442654  31.1536694  16.6406498  26.7113113  31.6462193
  17.0550156  25.7771626  30.5296841  28.6487808  67.2864532  45.6740646
  28.8040848  66.3839493  45.3955002  27.7093792  67.3232727  45.8540573
  77.5140305  20.1462193  39.2854233  76.9139328  20.3158474  38.5592384
  76.9888687  20.2994308  40.0708923  67.4388428  55.2618294  17.5367661
  67.9555740  55.6573067  16.8347549  67.2136688  55.9943733  18.1102715
  50.7900085  62.5049248  66.2068024  51.4550667  62.9399681  66.7403488
  51.2888756  62.0337830  65.5394287  66.9327850  59.9459534  70.3641586
  66.1243820  60.0965424  69.8742218  67.3330307  59.1876984  69.9386139
  45.7553711  10.8912287   0.6444426  46.0259323  10.2402878  -0.0030966
  45.0317039  10.4759579   1.1135751  58.0215759  44.9256516  13.8506927
  58.6906662  45.5964661  13.9869442  57.9734955  44.4620323  14.6867390
  16.0445709  54.2924232  13.6002569  15.7306042  54.8816338  12.9143362
  16.0737629  53.4319458  13.1819773  10.6487055  10.7148066  81.6909256
  10.0116653  10.7457285  82.4046860  10.3733082  11.4103804  81.0937958
  85.2621613  25.1429405  78.1371460  85.3000870  24.4209881  77.5097809
  84.3321686  25.2297878  78.3464203  84.6551437   2.3544872  88.7771225
  85.5539932   2.4602332  88.4654770  84.2312851   3.1881301  88.5731354
  67.9222183   3.2802670  11.3561754  67.4463425   2.8118353  12.0419941
  67.2569656   3.4822454  10.6982422   6.9626431  34.4265785  30.0073452
   7.3316507  34.1625252  30.8501625   7.7174149  34.4776917  29.4208832
  61.2027969  68.5456543  88.7106400  60.9315453  68.0464172  89.4809799
  60.3866730  68.8930206  88.3507767  66.2112656  14.6284037  71.1260071
  65.4134827  15.0887241  70.8654709  66.0669098  14.3998938  72.0442581
  80.8816605  30.0611973  76.1719055  81.5248489  30.7680588  76.1181870
  81.3952255  29.2611141  76.0607681  74.6240463  26.8029327  53.8319435
  74.9502716  27.6494751  54.1371918  73.6909332  26.8148766  54.0449867
  62.4741364  44.6197739  71.6183090  62.6117210  43.9164848  70.9837341
  62.9966316  45.3490677  71.2846146  59.2824478  67.6292801  59.5042877
  59.7928886  67.5567780  58.6977997  59.5881729  66.9027710  60.0473747
  84.4057617   4.2529759  78.5575638  83.5302582   3.9276376  78.7670212
  84.2518311   4.9973660  77.9758224  53.1799355  59.0491219  34.1869774
  52.8766212  59.7448845  34.7702026  52.3789902  58.6089172  33.9024849
  38.1682129  20.4022675  81.7696075  39.0319748  20.7307148  82.0191422
  37.7728882  20.1178265  82.5936432  70.1724548  41.0900726  14.5682497
  70.4312592  40.8603439  15.4607038  69.7420731  41.9406357  14.6551170
  39.3119354  70.3280258  44.9795914  39.3942719  69.3806534  44.8703041
  38.6663284  70.5896454  44.3230972  16.9072952  54.5328712  80.3554611
  16.2942009  55.0701752  79.8538208  17.6549892  55.1087074  80.5154495
  15.7541695   9.5958900  75.6708984  16.3237572   9.9406815  74.9832077
  16.2026615   8.8093214  75.9813766  67.2433472   4.9562821  19.3964214
  66.6369934   5.2832365  20.0610046  66.7641907   4.2511458  18.9611893
  54.3333321  60.5723267  66.4648285  55.2847519  60.5441704  66.5660400
  54.0062256  60.7947731  67.3364716  80.8133774  21.2677212  18.2334194
  80.6909943  21.6275558  19.1119270  79.9439392  21.3075390  17.8350220
  46.8831825  53.7715988  18.8738632  46.9314117  54.3965645  19.5972710
  46.4663391  52.9978981  19.2531509  46.7315598  54.9959373  33.1459846
  46.3086052  54.1372681  33.1511650  46.2636604  55.4974327  33.8136673
  78.6784821  42.3473625  69.4071960  78.7685547  41.9095802  68.5607529
  78.7669525  41.6445389  70.0509644  48.0288544  50.6207390  32.2515755
  48.7592316  50.5418243  31.6379318  47.3471031  50.0568352  31.8862572
  46.0237465   2.1839025  62.1045303  45.7845612   3.0306916  61.7277412
  46.7945366   1.9097588  61.6075821  61.1412659  42.2303314  18.9548492
  60.5416565  42.9567871  18.7846680  60.9292336  41.9481697  19.8445988
  84.5854568  46.8706169  68.9551239  84.8204041  47.7236671  69.3202820
  84.8210678  46.9332008  68.0294876   6.4916735  35.5119286  52.7117004
   7.0241947  35.0096016  53.3284035   6.2086015  34.8694534  52.0610619
  47.8235435  64.3645020  37.4953079  48.0431442  63.5827789  38.0021782
  47.0726433  64.1016998  36.9630280  56.2032166  53.4880905  56.2488365
  55.9526711  53.4623299  55.3253670  57.0039139  52.9655571  56.2944336
  76.5701294  37.2586021  71.7692566  77.2867661  36.6240692  71.7638321
  76.0842056  37.0779877  70.9645920  85.0911026  12.5522871  64.1184158
  84.2992172  12.5968962  64.6542892  84.7906647  12.7460604  63.2304840
  32.2061272   5.1710520  56.6109734  31.4609852   5.7311578  56.3935394
  32.6364975   5.6173778  57.3402214  31.8944473  18.4386177  82.7743759
  32.8296471  18.3675709  82.9656601  31.7480488  19.3748684  82.6393356
  83.5175171  17.9467831  23.9779911  83.0442657  18.7254314  24.2711945
  83.2658234  17.2648582  24.6007748  49.5265045  17.0398312  88.3392029
  50.0414276  16.6677685  89.0552063  48.6663780  17.2070694  88.7244873
  15.0044909  48.7525978  26.8349571  15.5612049  47.9850006  26.9657192
  14.4984303  48.8221436  27.6444607  46.4781456  14.4920940  86.0784760
  46.8289337  13.6889133  86.4632874  45.9251251  14.1906652  85.3576813
   5.3168340  14.9257994  87.1106110   5.6274743  14.1124220  87.5082932
   4.4183106  15.0192366  87.4270859  55.3040504  60.0599632  57.5182266
  55.7897072  60.1537666  58.3377190  55.0457726  59.1385117  57.4970055
   2.8322988  35.7165985  22.9734993   2.2922006  36.0864944  22.2751427
   3.2021310  36.4786034  23.4193726  24.9415054  48.6328316   8.9902353
  24.5568638  48.1174927   9.6992531  24.2223415  48.7644539   8.3724070
  67.7570953   4.2400308  44.7376900  67.1639557   4.4991174  45.4428787
  68.4349442   3.7228479  45.1727448  12.3771544  62.2213058  63.8454742
  12.5857506  63.1239090  63.6045799  13.1989803  61.8683891  64.1864700
   0.2313775  65.1038284  18.4388065  -0.0768098  65.1482773  17.5336666
   0.1492815  64.1797867  18.6746750  38.5996590  38.6411476  24.3590164
  38.6769638  37.8276901  24.8575535  38.9969597  38.4412766  23.5114117
  59.8178291  65.7423325  26.1741905  58.9135475  66.0521622  26.1240749
  59.7899132  65.0229416  26.8050041   2.7616355  39.4012604  86.6553116
   2.9551473  39.9895859  85.9254761   3.5414670  39.4418068  87.2088852
   9.4684172  10.1348972  78.3472443   8.7033195  10.0146065  78.9097290
   9.7201195  11.0491714  78.4775467  64.0474472  15.9551697  67.3062668
  63.5062981  16.4284401  67.9382477  64.9248734  16.3199139  67.4216690
  22.6000252  26.2214127  57.5807610  23.2531281  26.9127159  57.6893425
  21.7955170  26.6860332  57.3502731   1.2285089   4.1890240  81.7261353
   1.2027283   4.4892449  82.6346741   0.5868647   4.7372017  81.2744446
  65.0558167  31.8010578  54.5138893  64.3328629  31.4926987  55.0602226
  64.6296768  32.2495193  53.7834663  63.2866745  48.7605934   2.7431505
  62.3345146  48.6643410   2.7621098  63.5524902  48.3507690   1.9199750
  50.5111122  67.3884277  33.6756516  50.5640755  66.4412003  33.5484276
  51.2938805  67.6062622  34.1816711  22.0854931  20.1731682  85.8310471
  22.2587814  20.5156860  84.9541855  22.8846531  20.3603153  86.3235397
  65.7379684   6.9959435  61.2013435  65.5081253   7.6687541  60.5604591
  65.1953964   6.2438922  60.9641342  52.4166985  35.3987350  65.8471146
  52.1575012  36.2459145  66.2095108  51.8581047  34.7647972  66.2969208
  38.2005577  22.8299847  86.4666443  37.3545570  22.9041958  86.9082413
  38.2634659  23.6232681  85.9346848   4.6457572  18.0032425   8.7103882
   3.7198832  18.2461109   8.7083797   4.9886279  18.3596020   7.8908272
   6.8818564  20.7727509  25.8943634   6.8965383  19.8636379  25.5951481
   6.0738072  20.8446674  26.4024143  62.4360161  21.9241600  50.1310806
  63.2427254  21.4104366  50.1703224  62.2368546  21.9863262  49.1968956
  32.4942589  60.9934654  31.0263214  32.4341698  61.7696381  30.4693851
  32.1435928  60.2843018  30.4874783  21.3539562  58.4901314  42.4178963
  20.6472321  58.7773247  42.9960785  21.8272953  57.8319969  42.9268570
  73.6493912  70.9674606  85.1559677  73.8385696  71.7816467  85.6223831
  74.4067078  70.4091110  85.3319321  61.8303757  27.8611813  85.2864151
  62.7543144  27.9766560  85.5083160  61.7374916  26.9216042  85.1289444
  78.5708694  17.1446247   1.4857689  78.2642975  17.0822201   2.3903968
  79.1808167  17.8823051   1.4899342  41.9674873  57.0983162  67.4996414
  42.8098259  56.7633820  67.8070755  41.9568291  56.8970795  66.5638885
   4.6330123  31.4544544  54.5173264   3.7189262  31.7365437  54.4841042
   4.5918231  30.5004463  54.4509544  80.0461426  35.9373627  51.6763344
  79.5248871  35.2572708  51.2497292  79.5817719  36.7517166  51.4829140
  84.4384918  32.2227707  83.8583450  84.5894470  33.0262718  83.3605194
  85.0171890  31.5772877  83.4525223  12.2595921   7.6721468  49.7631683
  11.8555040   6.9395180  49.2981987  11.8853416   8.4518318  49.3529739
  69.1484146  61.1221237  67.2793198  68.3797989  61.6329575  67.5332870
  68.7914886  60.3752518  66.7986679  11.5166311  17.1566849  74.8212738
  10.9831018  17.8308258  74.4004288  11.4397354  16.3961220  74.2452011
  31.5513115  20.4756508   5.0921493  31.7031612  20.7590275   4.1905556
  32.3968391  20.5921288   5.5254493  62.2931213  40.0384407   6.7161603
  62.0930595  40.7940254   7.2686958  61.7429199  40.1556664   5.9417129
   5.5689330  49.7233658  53.1663170   6.0657330  49.0594597  53.6444893
   5.8664517  50.5557709  53.5334892  38.5559731  15.7862778  88.2003555
  37.6325417  15.8518181  88.4436874  38.6152878  14.9706049  87.7029648
  83.6887589  64.0984802  13.6251841  83.1957779  63.6328697  14.3007660
  83.9375076  63.4187241  12.9988565  57.4787865  62.7835960  52.1487274
  57.9033279  62.3058395  51.4361649  56.5966606  62.4145622  52.1923294
  40.0807457  68.6505051  34.2023315  40.3768654  67.7638397  33.9964905
  40.8088722  69.2133408  33.9391441  47.4717979  46.7695274   2.8933685
  47.3540878  45.8273621   2.7721064  46.6584473  47.1562157   2.5690787
  53.3007431   3.5335910  76.0555038  53.6098022   3.0323503  76.8101349
  52.5005646   3.0853093  75.7816544  15.8102083  17.1693783  17.1316795
  15.4835291  16.5085964  17.7423191  16.6524582  16.8251991  16.8343811
  34.7012482   1.2892697  69.2302322  34.8142471   1.7196809  70.0777054
  33.8507156   0.8547758  69.2937851  86.5596161  30.5882435  79.6413879
  87.3729019  30.0838757  79.6619644  85.9289322  30.0084114  79.2144775
  55.8409462  50.9731789  36.6517982  56.1183052  50.2903557  37.2625847
  56.6342506  51.4822998  36.4853745  39.1717262  51.0571480   6.8481984
  39.0955696  50.8037949   5.9282823  40.0547447  51.4185905   6.9247732
  40.3234863  69.6093063  72.3326263  40.9669304  70.3113785  72.4291382
  39.5652275  69.9087448  72.8342361  11.0869741  15.9070549  55.3651543
  10.2281685  15.4843941  55.3716850  10.8999348  16.8319988  55.5255547
  35.8783569  61.8286018  76.8161621  35.3694916  61.8166542  77.6268082
  35.2226562  61.9034195  76.1228485   4.8056612  64.8479233  72.6076889
   5.5641389  65.0271454  72.0519714   5.1375327  64.9350128  73.5012817
   0.9654613  54.9478874  63.8103447   1.2421646  55.6253510  63.1933250
   1.2014174  55.2961884  64.6701355  21.4183750  64.9008408  54.9500389
  20.5349636  64.5720367  54.7835846  21.8987808  64.7159042  54.1430435
  82.5316620  27.6767807  75.9217682  82.2794495  26.8356075  75.5409088
  83.4005966  27.5212212  76.2918777   6.2897797  46.3587799  49.0427818
   7.0156984  46.7228661  48.5361099   5.5363350  46.8985786  48.8036804
   1.8847816  40.5191040  64.5930023   1.4241416  40.8001060  63.8023872
   2.1455128  39.6164131  64.4102402  81.5715103  41.8311806  65.3241119
  81.1775513  41.0490990  64.9376144  81.7357025  41.5909615  66.2360153
  48.5895348  68.1532745  21.3850956  48.9647598  67.7665710  22.1762333
  47.6533279  68.2211990  21.5725403  49.5975533   3.7387106  75.3655319
  50.1711922   4.4075961  75.7393799  50.0519638   2.9129536  75.5324707
  77.7680130  37.1920967  18.6551628  78.2769318  37.7469368  19.2462559
  77.6128769  37.7404900  17.8861179   0.7693712  71.3392334  54.4356728
   0.9599547  71.8441315  55.2262344  -0.1775961  71.4204102  54.3221207
  45.7924690  65.3920517  84.9188919  45.5198479  65.7815170  85.7496948
  45.0536194  64.8421249  84.6582870  22.5201740  64.6807861  27.1488438
  21.7064037  64.9104309  26.7002048  22.3271942  64.8121490  28.0771389
  84.8998260  17.8525696  81.0107574  84.8623352  18.1977234  80.1187439
  84.6754074  18.5992031  81.5661011  23.4963131  10.4270792  58.9768562
  22.7476864  10.8063326  59.4372444  24.0139008  11.1825209  58.6982117
  21.3921432  15.7906065  11.0248671  20.4363556  15.7405968  11.0389881
  21.6210384  16.2313366  11.8431568  11.3163967  69.9075470  24.8916931
  11.8532763  70.4286041  24.2946243  11.1222277  70.4999390  25.6180534
  58.4511604  43.7133522  61.9569511  57.7384415  44.3377953  62.0923653
  59.2172432  44.1365242  62.3446045  39.9419518  56.0215454  11.1819019
  40.0766563  56.9331703  11.4407940  40.7844620  55.5985146  11.3475857
  69.2217789  14.2575817  60.1484985  69.4572372  13.3403921  60.2883377
  68.7533188  14.5086546  60.9445724  38.2077713  49.1466255  82.1896515
  38.3262978  48.9703522  81.2563171  39.0849991  49.3627548  82.5058746
  72.8534927  42.3119164  26.5435162  72.1843796  41.9297981  25.9756203
  73.3350677  42.9131126  25.9752903  46.5106277  30.6225033  13.4376688
  45.9223175  31.3771019  13.4642782  47.3463554  30.9588356  13.7612028
  79.3574600  65.6948624  77.5555496  79.7958832  66.3858719  78.0520706
  79.7272186  65.7611008  76.6751404  36.9998894  66.1802216  66.8234711
  37.6225395  66.8765030  67.0325928  36.2130699  66.6417084  66.5333405
  13.3718138   9.1246557  64.3523712  13.9311333   9.8896847  64.4869919
  12.5214672   9.3842754  64.7069702  18.9116764  49.5816803   9.9028578
  18.7389717  50.3882980  10.3884192  18.6721001  49.7897797   8.9997911
  68.4900131  41.9035301  51.8594093  68.6442947  41.2281609  52.5199432
  68.7670898  42.7175522  52.2799187  74.4039459   6.1652732  85.3175201
  75.0951309   6.5949650  84.8136826  74.8449860   5.4389434  85.7581558
  82.3043671   6.1222973  17.2250080  82.9945145   5.5159073  17.4937496
  82.7666016   6.9342732  17.0170097  61.3001328  24.4260960  43.7074738
  62.1822968  24.4521465  43.3368835  61.2010384  23.5293274  44.0271912
  81.3182831  32.5457573  86.8175507  81.4690018  31.6414509  87.0927734
  80.6805420  32.8842506  87.4459991  82.2274857  60.1403198  32.3774643
  82.8629150  60.3662415  31.6981850  82.7324905  59.6457062  33.0228767
  76.0328064  41.0356407  66.4383087  76.5798340  41.1533508  65.6616898
  75.9833374  41.9072800  66.8307800  58.4369736  34.1778488  48.9579277
  57.7394943  34.7560425  49.2668724  57.9768372  33.4324570  48.5720520
  33.9149094  31.7994080  32.0877762  32.9920654  32.0370598  31.9976864
  34.3918839  32.5727692  31.7867088  11.9329023  54.0767670  14.5998821
  11.1271191  54.5785751  14.7229071  11.6953764  53.3916855  13.9750013
  12.0128613  26.2013550  25.5900173  11.3787537  25.6173286  25.1740227
  11.6972122  26.2965374  26.4886494  22.6723385  16.6333599  68.4933929
  22.6857929  17.0919933  69.3334579  23.5397797  16.2346096  68.4242859
  12.1679363  37.4259033  65.2645416  11.7345600  37.1664276  64.4514618
  13.0591536  37.0871620  65.1795807  83.5235519  60.5973167   2.6830459
  84.2757645  60.4575005   2.1078393  82.8424377  60.0248528   2.3300564
  19.9655037   0.7835233  63.9768944  20.3164806   0.1815268  63.3206596
  20.5098038   0.6381317  64.7507324  38.4799843  58.4651184   3.7702196
  38.6997414  58.1304321   4.6396575  38.9819069  57.9157143   3.1681736
  12.9558115  28.0006542   6.4728107  12.1240520  27.7760239   6.0557394
  13.2990284  28.7241211   5.9483771   1.7836748  60.9591675  79.3829269
   2.5460682  61.3809624  78.9866028   1.8402896  61.1855621  80.3112488
  11.3780508  31.2798710  27.6878338  11.4931183  31.9248962  28.3856411
  11.1835098  31.8015041  26.9091911  43.3411636  30.9142723  74.1970444
  44.1613350  30.4969501  74.4604721  43.3091621  31.7231674  74.7078247
  77.6232834  36.2101860  29.8784618  78.2190857  35.5185547  29.5905380
  78.0619736  37.0234909  29.6288223  81.4169998  64.2638702  72.8049164
  81.0547562  64.8959885  73.4257584  81.5230713  64.7594910  71.9929199
  45.0121384  38.3634033  53.3577347  44.2544212  37.8580437  53.6521988
  45.7041435  38.1427650  53.9811783  63.3856583  37.5609741  41.3394241
  63.5729256  36.9460945  40.6301384  62.4670944  37.4027901  41.5572586
   7.6814084  12.0373116   9.9352598   8.1670065  11.7934628  10.7232723
   7.8311210  12.9782419   9.8432360  73.2950897  49.7686691  88.8146210
  73.9784241  50.2058525  89.3227158  72.4751434  50.0883598  89.1910782
  61.9072418  39.1237907  49.0836182  61.2655373  38.5571976  49.5118904
  61.4305687  39.9348755  48.9071159  43.6291542  43.1578598  20.6616879
  44.1300240  43.7888718  20.1447830  43.9291725  42.3031044  20.3524799
  48.7620010  60.4751816   2.7171040  48.2786674  60.0643349   2.0002897
  48.5471382  61.4054375   2.6486354  79.1039352  55.4026489   8.4977589
  78.5452652  54.6319313   8.5983229  78.7311783  55.8730164   7.7520785
  14.7611084  66.4373474   3.1594090  15.1835127  66.0390778   3.9204538
  14.5842361  67.3388672   3.4281170  29.7915001  28.3294868   1.7408084
  29.8448048  27.3820019   1.8659574  30.6344948  28.5679417   1.3551546
  70.3460083  53.2752876  54.5542221  70.3134232  54.2201462  54.7039299
  70.7059326  53.1848602  53.6718941   3.6447506  56.9413147  15.1826305
   3.8143468  56.9933624  14.2420139   2.8485217  57.4567642  15.3113260
   5.4596958   0.1323405  10.7628098   5.9008188   0.2494930  11.6041880
   6.1050487  -0.3132937  10.2140274   3.0268691  55.5223503  74.2080002
   3.0932233  55.6143837  75.1584549   3.9090967  55.7092438  73.8871002
  24.5006084   7.9055018  69.5626678  25.2514515   7.5355411  69.0983505
  23.8016644   7.2635670  69.4376526  68.7367020  57.4889984  20.5048428
  68.6926117  57.1290779  19.6189861  67.8413696  57.7696648  20.6941719
  26.0642033  31.5329247  88.8375931  25.1560879  31.4593105  89.1310883
  26.2700214  32.4634781  88.9266815  84.4343872  15.0894022  55.2063065
  84.2052231  15.4514513  56.0622482  85.2303543  15.5572157  54.9536934
  21.5795708   7.7877946  64.3572845  22.3350563   8.1145077  64.8458862
  21.8437119   7.8482332  63.4392395  29.0683498  66.5902100  11.5139771
  29.3273964  65.6861801  11.3354902  28.2980404  66.7317276  10.9636803
  52.8295212  18.8290024  19.8065166  52.2890396  19.6154041  19.8819065
  53.5810623  18.9995689  20.3742542  22.3340321  50.0592957  24.5273876
  21.9800549  49.9634628  25.4115543  23.0993900  49.4846420  24.5122166
  41.4661407  45.0041847   2.5805299  40.6914368  45.3851318   2.9939902
  41.1446533  44.6471291   1.7526472  42.5742264  26.6932335  80.7456589
  42.4302216  27.5975075  81.0245514  43.4244308  26.4600983  81.1185303
   8.9610920  47.7213211   3.5018384   9.3438349  48.3486404   4.1152010
   8.5762806  48.2637520   2.8134179  22.7657948  49.8939400  37.2718506
  22.4529762  50.5541000  37.8903694  23.0523701  49.1658630  37.8232193
  85.3947678   4.2691903  45.9285660  84.7987976   4.7031827  46.5390549
  86.2380066   4.2617764  46.3814850  45.5330772  43.1451416   6.8535528
  45.8970299  43.5757294   7.6270947  44.7962723  42.6340141   7.1883569
   8.2710352  67.5220718   7.4359117   7.7140121  67.4603729   6.6599283
   8.8892117  68.2238083   7.2318153  52.9932060   8.3592873  88.2006989
  53.4020081   9.2223110  88.1350937  53.5563583   7.8726411  88.8025894
   4.0159802  47.6049919  48.4839096   3.2910979  47.9438324  49.0092354
   3.9283788  48.0488052  47.6403542  37.9668579  62.6106911  86.9901047
  38.2385063  62.9209442  86.1262894  38.6693077  62.8906670  87.5769730
  23.2565441   1.0529033  37.8683357  23.4934368   1.7078843  38.5249252
  23.4945984   0.2162754  38.2678528  15.3123121  24.9483204  26.9466534
  15.4306278  25.7997437  27.3677349  14.4857788  24.6192188  27.2998753
  48.5529137  51.1218109  80.9221344  48.6522789  51.2682228  81.8628387
  48.8851128  51.9236717  80.5185318  37.3666687  46.4143867   6.6622863
  37.0072937  47.2085800   7.0576887  36.7866669  45.7142296   6.9616346
  59.6138153  15.7846479  42.6352882  58.9857101  15.4725189  43.2866669
  59.4126320  15.2797165  41.8473778  67.3769226  19.5155296  30.5544186
  67.9074860  18.8516750  30.1139374  66.9029617  19.0327702  31.2315731
  55.5342369  66.2951126  60.7139397  54.6864738  65.8963165  60.9101219
  56.0167427  65.6138916  60.2455864  45.7534256  57.2514534  62.6246338
  44.8455811  57.0357208  62.4113045  45.6911392  58.0323257  63.1747131
  45.0462723  55.1466942  84.6217117  45.4934273  55.2529564  85.4613495
  44.5332298  54.3450165  84.7233505   8.0795088   8.4158821  80.2096558
   7.5318627   8.8011770  80.8936615   8.8519106   8.0938263  80.6743164
  47.1460876   2.6273003  11.1343489  46.9408646   3.5580497  11.0459156
  46.8451309   2.2366736  10.3139420  76.7238998  20.0484676  10.7666187
  77.5127335  20.1481876  11.2995682  76.6331100  20.8869572  10.3139343
  36.2012939  34.7898483  14.4631472  36.9580612  34.5394554  13.9332066
  36.5544167  34.9058037  15.3452415  69.0226822  70.6671677  34.7419472
  68.7596512  71.3948517  34.1784554  69.0741425  71.0491791  35.6181068
  58.6634369  54.3631134   1.1351883  59.4366608  54.6508408   1.6205493
  59.0114326  53.8071136   0.4380549  57.1581612  49.1198158   6.9418774
  56.6309891  48.3951530   7.2783074  56.8603706  49.2338104   6.0393481
  84.6261139  34.8163452  30.9181404  85.1213226  35.2779579  31.5948353
  84.6475220  35.4039574  30.1628361  82.6461563  45.0027428  53.1984520
  83.0540390  44.2407188  52.7871361  83.3571854  45.6377869  53.2844162
  76.5585251  52.5630646   3.0737679  75.9484329  52.7216377   3.7940960
  76.7695847  53.4358215   2.7421298  86.3080521  10.9177341  19.0704803
  87.2432785  11.0297842  19.2408695  86.2508469  10.7887983  18.1237297
   9.9754400   9.5604601  28.8506966   9.2348967   9.0711060  28.4924240
  10.5455933   8.8902597  29.2275105  76.8174133  24.0733662  81.1747513
  76.9635544  24.1935349  80.2364349  77.6514435  23.7407475  81.5063858
  26.2446938  68.2621231  85.9641647  26.6576443  69.0667572  85.6507034
  26.8202133  67.9546738  86.6645126  79.4345169  56.6220055  66.7040558
  79.1027679  56.8242912  67.5788422  78.6645126  56.3263741  66.2183304
  16.4548016  48.2066231  17.2229061  15.8078356  48.3112221  16.5252495
  16.7563515  47.3022995  17.1362953  64.4485092  26.9300423  46.7415504
  64.0111847  27.7704105  46.8785362  64.9547958  26.7902565  47.5417786
   7.2313004   4.9063916  86.2394867   7.4933763   5.1540937  85.3528061
   8.0450010   4.6307335  86.6615448  60.7618675  14.6141567  16.2259121
  60.1572990  14.8599625  16.9261341  61.5787086  15.0616722  16.4466610
  50.5650787  57.0888901  69.4097443  49.8025589  56.5102882  69.4137039
  50.5726318  57.4691620  68.5313568  53.3393707  69.7183533  68.8699875
  52.5014610  69.7423477  68.4078522  53.9069557  69.1892776  68.3094940
  62.4644012  18.9833145  33.9454956  62.6001472  18.0664024  33.7065849
  61.7751198  19.2854233  33.3540115  63.9260139  18.3888969  87.6008606
  64.5361481  18.2288284  88.3208237  63.1390648  17.8994980  87.8405151
  78.0077286  64.1719513  24.9717464  77.9355087  64.4466553  24.0576591
  78.5177689  64.8652420  25.3906059  81.5836258  50.4284744  57.2641907
  81.7896500  51.2423592  56.8044281  81.3825760  50.7030716  58.1588440
  27.9972763  48.8805885  85.7103424  28.4035339  49.0560455  86.5591049
  27.2931423  49.5255852  85.6439285  36.3485641  17.2479668   0.3411444
  35.9675789  16.3925667   0.5395688  35.8034668  17.8704128   0.8224559
  37.7458916   1.7169141  49.0243263  37.0353622   2.0849304  48.4990234
  38.2170715   1.1423569  48.4209175  13.0510321  13.9065819  22.4210529
  12.7190447  13.1515989  22.9068699  12.4272690  14.0234203  21.7044640
  61.3502007  42.7784958  66.0773010  60.4453888  42.6042519  65.8181000
  61.5422401  43.6417770  65.7111053  18.9667091   4.6316714  13.8222895
  19.7680397   4.5604854  13.3036060  18.3230686   4.1114607  13.3413115
  56.4597321  64.3173752  44.6432800  56.9344139  65.0068130  44.1789703
  55.6324692  64.7259903  44.8980408  77.9802094  71.5755997  24.7075272
  77.1779938  71.8025436  25.1778221  78.3650589  70.8644104  25.2197037
  14.4604111  48.7065582  50.5693283  15.3048534  48.8224373  51.0048981
  14.6347456  48.0726280  49.8736496  50.2061348   2.9567330  42.0045471
  50.4743118   2.2392771  41.4304657  51.0265007   3.2981036  42.3604965
  51.2740288  62.8740196  39.5241547  50.9795914  61.9640846  39.5635872
  50.6093674  63.3182297  38.9977226  56.7696686  65.7213516  66.4541931
  56.2248840  66.0104675  65.7221756  56.9035912  64.7864456  66.2984619
  76.3545990   1.9107072  48.0590858  75.5795898   1.3521440  47.9990196
  76.6301575   1.8405240  48.9730759  27.1388187  26.2782249   2.7735033
  27.0293884  25.9111958   1.8962654  27.4819012  27.1591434   2.6234801
  60.1815987  40.1888123  82.0725021  60.5953598  40.7540894  81.4202042
  60.8695259  40.0237465  82.7172852   5.2569251  34.4266052  12.3587961
   4.8278999  33.5725517  12.3062963   5.6415515  34.4479675  13.2350597
  72.5120544  23.1281471  81.5404892  71.6059723  23.4156170  81.4282074
  73.0330811  23.9193459  81.4034805  54.5773354  25.6500511  23.2970314
  55.0020294  26.4013157  23.7111187  55.2980194  25.1450233  22.9204807
   8.8882380  65.9410629  53.7385712   8.3487720  65.7951202  54.5156860
   9.7073183  65.4825974  53.9260521  58.7913399   3.9305439  23.4935131
  58.9103851   4.6231241  22.8435955  59.6157951   3.9139023  23.9795456
  25.0590343  13.7084332  12.6726742  24.4685326  13.5334549  11.9399242
  25.9158726  13.8343277  12.2649870  30.0147839   6.1271791  67.9150467
  30.9049397   5.8488479  67.6996613  30.0968018   6.5527577  68.7685013
  29.8022518   0.7802892  55.7974663  30.2550468   0.0461888  56.2125626
  30.1306858   1.5540652  56.2553215   6.1022701   2.5391858  46.1254120
   6.3670616   3.2910402  46.6553497   5.5081515   2.0452366  46.6904526
  74.1934814  31.3153992   3.9945340  73.2870865  31.0683460   4.1779637
  74.1609497  31.7185993   3.1270072  71.1329346  13.0489826  75.2354126
  70.1759491  13.0300083  75.2282104  71.3557281  13.9626036  75.0568314
  79.1820602  54.8445663  44.9199867  79.8535156  55.5217705  45.0022697
  79.1542587  54.4288788  45.7817688  29.2002831  50.9612617  61.5670815
  28.5282001  51.5385361  61.9294167  29.3685150  50.3241882  62.2613945
  70.9335480   7.3741503  44.0172348  70.4588547   7.3816648  43.1860657
  71.4350052   6.5590129  43.9993019  19.0311604  19.5145741   2.6858208
  18.9359818  20.4486542   2.8720045  18.2178307  19.1228294   3.0040419
  16.3442802  45.7980804  44.9244308  15.6458826  45.2374916  45.2623901
  15.8873920  46.5545387  44.5566673  66.9508209  54.6727715   5.0373230
  67.5901413  53.9603958   5.0416636  67.2676926  55.2748756   4.3640537
  79.4501724  25.4092159  25.9646988  79.4436569  25.8961887  26.7887421
  80.3749390  25.3607388  25.7224464   4.3160357  45.1758385   4.3292370
   4.9704490  45.8280373   4.5794668   4.7232084  44.6912689   3.6111608
  25.3814526  65.5298157  17.5382118  24.9890137  64.9979019  18.2305222
  24.7312832  66.2095337  17.3607426  56.9784241  38.0548820  22.5390930
  57.7435265  38.0727959  23.1140099  56.3190880  37.5674362  23.0329571
  82.0277710  47.2300148   9.3351383  82.8758316  46.7871056   9.3056946
  81.5683365  46.9198189   8.5547972  13.2568302  43.5338440  85.0812988
  13.1869764  43.7715759  86.0058670  12.3502140  43.4396095  84.7890625
   5.6845484  21.2835331  15.7284031   6.6345611  21.3465538  15.6297302
   5.5167422  21.5772762  16.6238289  74.5735931  42.0012321  80.8825531
  74.8276749  41.8822479  81.7977142  73.6677246  42.3077698  80.9233932
  41.8319664  51.0379715  65.1221161  41.6084976  50.5276718  64.3437271
  40.9873543  51.3127937  65.4789581  13.3731232  56.0827637   0.0524149
  14.1745939  55.5642738  -0.0186200  13.5823660  56.7602882   0.6953841
  44.3279610  38.0074539  73.2010422  44.3418427  37.8968124  72.2503586
  44.8894730  38.7657318  73.3621445  78.4576950  51.7443466  85.8064346
  78.0159836  52.5756340  85.9798965  78.8318024  51.8498726  84.9317093
  54.3669853  44.5164909  81.5950928  54.1218071  45.2395592  81.0177765
  53.5774574  44.3402405  82.1067657  76.8381500  24.7388096  36.9741249
  76.3206482  23.9356384  37.0318489  76.5629959  25.1423874  36.1509361
  13.5565939  36.9068718  18.3702812  12.9691954  37.4009819  17.7983971
  14.1726036  36.4833069  17.7724876  73.2812729  62.2681389  42.0155067
  73.5115356  61.4493217  41.5764771  72.4827347  62.5595284  41.5754280
  73.5231934  56.4536438  17.2190189  74.1956100  56.5520439  16.5449181
  72.7215576  56.2634964  16.7317314  22.5108299  55.9911919  50.0879059
  21.8109970  55.4078445  50.3814621  22.1842155  56.8709526  50.2765160
   1.5885260  49.2939682  45.7230911   0.8744624  49.8870010  45.9568825
   1.1765614  48.4314651  45.6720276  25.4251976  59.6630554  55.2409744
  25.4562359  59.4321632  56.1693916  24.4935951  59.7786674  55.0539360
  11.6691008  33.3669815  29.3858948  12.1141376  33.8155632  30.1048870
  10.9113121  33.9186592  29.1918888  47.9732361  40.0013657  23.7400093
  48.3773804  40.7362480  23.2786598  47.0986938  39.9301910  23.3574638
  32.8674545   8.2151527  64.2960129  32.8638954   9.0741091  63.8736229
  31.9435120   8.0233707  64.4565659  12.0120678  16.5162868  39.4255066
  11.2603083  17.0253620  39.1223030  11.6615572  15.6385431  39.5769691
   9.7967052  31.7571182  65.2204666   9.4481468  32.0522156  66.0616913
   9.6014013  32.4730415  64.6158676  21.2556953  10.0921593  28.3761063
  21.0794754  10.9090471  27.9093380  21.4128513   9.4499197  27.6839619
  40.1370392   3.0286202  49.2123833  39.2222214   2.8446023  48.9991226
  40.6032944   2.9166236  48.3839531  54.6906433  50.4145432  10.1797295
  54.8629799  50.8934021   9.3690338  53.8727913  49.9463081  10.0120916
  23.9279289  42.9368706  77.4296341  24.2227421  43.2616882  76.5788574
  24.0602341  41.9899864  77.3834381  73.4460297   7.1625023  23.1930065
  72.5374069   7.2754827  23.4720783  73.7654495   6.4234405  23.7106857
  25.0432472  25.1424961  17.0639381  25.4901142  25.5097561  16.3012714
  25.0870781  24.1951637  16.9340382  50.7006683  58.3202057  54.1684380
  50.4018784  58.9578857  54.8167572  51.5776863  58.6176834  53.9264069
  72.4070435  17.0174618  50.2681541  73.1180115  16.5417767  50.6976738
  71.6194916  16.5188332  50.4857750  17.7482529  65.0426712  64.9662704
  18.0046597  65.9276047  64.7067108  17.2065887  64.7282333  64.2424240
   9.6080160   2.2466578  58.5409546  10.2804499   2.3377290  59.2160645
   9.8624296   2.8731468  57.8634491   9.0928516  26.8125420  29.5641670
   9.9342079  26.4047279  29.7691975   9.1734047  27.7071743  29.8948879
  38.9095840  15.2168016  27.9486713  38.0820694  15.6783905  28.0842590
  39.1162224  14.8394108  28.8037205  27.9583111  23.2186794  53.8703537
  27.3598957  23.8109608  54.3256912  27.3966808  22.5164967  53.5421143
  47.1553612  57.6880608   1.6359999  46.4635353  58.1401672   2.1189146
  47.2631645  56.8552475   2.0953784  14.9748173  63.1254921  29.9895458
  14.7672482  63.7775764  29.3202705  15.9239016  63.1869850  30.0976601
  76.0553055  39.2589645  29.7954788  76.8239365  38.8645668  29.3832989
  76.4059830  39.7409477  30.5444450   6.2588711  14.0074167  50.5642776
   6.6848679  13.2338057  50.9334450   5.4384794  13.6772213  50.1979942
  52.4642525   6.2393432  86.2053833  52.5658188   6.9398680  86.8497238
  53.3363991   6.1357012  85.8247833  55.4105682  49.4439049  74.8864365
  56.1624451  49.8572273  74.4620819  55.0066185  50.1466942  75.3955002
  39.6654434   8.2511873  31.8951015  39.7719803   9.0344887  32.4348412
  38.7717247   8.3124542  31.5578365  57.3463058  70.4218140  33.8647728
  56.4771538  70.6638794  34.1844826  57.9026718  71.1651764  34.0973701
  18.6118622   0.4300532  20.3297386  18.8655396   1.2446752  20.7636395
  19.0552502   0.4620749  19.4820271  56.3467255  40.9393349  85.3838196
  55.4700203  40.7071915  85.0776672  56.9054489  40.8320465  84.6140442
  52.9747887  14.7312260  21.7720890  53.3963203  15.5887165  21.7150402
  53.2511597  14.3844404  22.6203766  22.4788094  38.9123955  67.2243500
  21.9119797  39.3043327  67.8886719  22.2119064  37.9936752  67.1935425
  71.7577972  25.4123669  31.6706219  70.8005981  25.4124756  31.6726952
  71.9963379  26.1998692  31.1815701   4.0287185  60.6300354  73.2370834
   3.2725768  61.1853065  73.0469284   3.6986060  59.9800339  73.8573685
  58.8222580   8.8005104  25.5732746  58.7002678   9.7447796  25.4747601
  59.1074753   8.6891842  26.4801865  66.7124481  27.3803577   4.8385787
  66.4360123  27.9895535   4.1539669  66.1272507  27.5642624   5.5733972
  39.3449516  24.7089710  14.1002445  38.6653099  24.6766186  13.4269886
  39.9896507  25.3293972  13.7601433  32.2976189  70.0481796  63.9383087
  32.7472076  70.5540695  63.2614174  32.8229370  70.1833954  64.7269745
   6.9381161   3.6896036   0.7412472   7.2167850   3.1674707   1.4935455
   5.9849281   3.7310643   0.8183593  71.4847336  58.6127052  83.8028488
  70.5538330  58.5434265  83.5910645  71.9334030  58.3499146  82.9991913
  39.6796837  12.1729059   9.9323521  38.8633194  11.8167801  10.2829981
  39.5561867  12.1652088   8.9831839  61.6029091  53.0635490  57.1238174
  60.9625206  53.7478333  57.3184624  61.6128311  52.5147400  57.9080009
  65.4368439  56.9258537   0.7075428  64.5126266  57.0390663   0.9294409
  65.8889160  57.6019249   1.2123125  59.6628113   6.7474008  66.6365051
  60.1084366   6.5271707  67.4545212  60.2825203   7.3078775  66.1695404
  53.1314201  18.0038242  88.5075455  53.3279037  17.5423775  87.6922607
  52.2719574  18.3979683  88.3585358   6.3089628  15.8888903  36.2734795
   6.3644533  16.7876339  36.5981560   5.3854423  15.6561871  36.3693466
  43.5704193   6.9772611  81.3988342  43.9871254   7.4670563  82.1078415
  44.1795311   6.2632303  81.2107544  40.6324005  58.8129997  78.3262405
  39.7612152  59.1817284  78.4722290  40.8754730  58.4315414  79.1698227
  65.0822067  36.5320053  13.7143965  64.4074783  36.2972565  14.3514729
  64.9404907  35.9310150  12.9829855  62.2649498  44.4937210  44.0458603
  61.7021561  44.1313057  43.3616447  63.1261406  44.1126938  43.8743935
  48.6321754  71.6352539  29.5197639  48.7062225  70.8387070  30.0453625
  47.9659233  72.1566162  29.9675636  39.4536209   9.7588224  43.9205666
  39.5280724   8.8094864  43.8233566  39.2103310  10.0705013  43.0488434
   7.3154464  54.7798843  20.1372967   7.0710011  54.1726952  20.8357239
   6.9865975  54.3697357  19.3373795   7.9113736  52.5690536  11.9969044
   8.7713556  52.4330177  12.3945951   8.0034122  53.3815651  11.4993238
  50.9547615  12.1151237  13.7612152  51.4570770  11.5246983  13.1996908
  50.5713844  12.7513847  13.1575384  61.7370338  17.5056305  15.6586123
  62.0141487  18.3920021  15.4266977  62.4748192  17.1449852  16.1503811
  50.8538055  35.0685692  58.1393890  50.3950920  34.9930649  58.9761124
  51.6829796  35.4937401  58.3583298  77.0704422  48.0803986  55.5304298
  76.2697449  47.8558197  56.0044212  77.7784424  47.7827148  56.1017075
  42.1047325  35.0387001  76.9770889  42.4271049  35.6745110  76.3383026
  42.2941093  35.4360619  77.8270721   8.4558239  26.4037743  69.1743774
   9.1673088  25.7698517  69.2647324   8.7046280  26.9370689  68.4194412
  65.9394226  44.9096031  32.7198906  65.3611908  45.6687469  32.7945824
  66.4562073  45.0787392  31.9321346  42.9492836   4.3099666  79.5236130
  42.0539780   4.2660241  79.8593597  43.4962807   4.3678927  80.3069763
  44.9896965  67.0874023  87.5388184  44.3338623  67.7538071  87.7438126
  44.9369240  66.4676361  88.2663651   7.3853745  15.0927467  82.6105957
   6.9430699  14.6938276  83.3599014   7.2159371  16.0302181  82.7037048
  71.3459702  18.6411552  70.4654999  72.0158234  18.0200253  70.1796265
  70.9816360  18.2515469  71.2602921  27.9551277  34.2531433  74.7422256
  28.2386227  34.5056419  73.8635254  27.2019463  33.6808891  74.5956955
  33.8470688   0.9012272  53.6391144  34.3064461   0.1989439  53.1786766
  32.9193192   0.6926071  53.5296173  69.8042603  31.8631535  66.4587631
  70.7585144  31.8951702  66.3909378  69.5874023  30.9371281  66.3506927
  31.2058773  34.5360451  18.2483463  32.0908279  34.5510826  18.6128540
  31.0716076  33.6262474  17.9828911  73.2081451  70.8031921  24.6894684
  72.9348373  70.9721146  25.5911350  73.5743103  69.9190826  24.7118244
  68.7414246  45.0987930  17.8096523  69.5944443  45.4205894  18.1012592
  68.4770203  45.7101669  17.1222382  20.5260277  37.3979340   3.3671281
  21.2475891  37.1277390   3.9350853  20.6532822  36.8951530   2.5626106
   4.5857310  33.1337814  68.4148636   5.4718356  33.4742584  68.5378494
   4.7139730  32.2256241  68.1409378  81.5685577  23.2566051  41.8366089
  82.4132919  23.4892807  41.4512329  80.9335098  23.4230900  41.1400261
   2.0367651  37.4181557   2.7652030   2.0622780  37.7290611   1.8602613
   2.3619227  38.1559067   3.2811768  59.7834244  57.6095200  15.6259356
  59.9399757  56.7539787  15.2262201  58.8997345  57.5464592  15.9883614
  23.4515629  51.4644585   1.5227984  24.0515747  51.7382584   0.8290749
  22.7891922  50.9396629   1.0732569  18.3431606  70.3780518  44.2974586
  19.0591297  70.8156967  43.8369293  18.5775414  69.4501953  44.2779121
  82.4623871  32.7006149  16.8332729  83.3369904  32.8894348  16.4931927
  81.8767548  32.8699417  16.0953121  74.8426361  65.7184906  57.2020607
  74.0065613  65.2526016  57.1895676  74.8379211  66.1968155  58.0311661
   4.7640681  21.2560596  10.3949165   4.9759579  22.0868874  10.8204269
   4.3937297  21.5078373   9.5489330  74.3076553   4.7138133  24.3117962
  74.0583801   4.0871415  23.6325512  75.1449661   4.3883634  24.6422958
  33.0952606  50.0155525  58.5181770  32.9268761  49.1172295  58.8025894
  33.7383728  50.3484077  59.1441498  10.3313293  14.5329351  36.2735176
  10.2387342  15.4491749  36.0124397  10.3407326  14.5563211  37.2303848
  72.0962753  59.1614799  51.4909439  71.1419144  59.1770821  51.4189529
  72.2991867  58.2764282  51.7938232  25.6138134  65.4490738  82.4068985
  26.0904903  64.9253235  81.7629242  24.6942291  65.3557434  82.1581192
  63.8009262  24.2829571  45.9652290  64.5215302  24.8114433  46.3082542
  63.0234528  24.8266048  46.0925598  71.0384293  28.0934162  35.3433418
  71.2376938  28.9194736  34.9027138  70.4606857  28.3404255  36.0654449
  19.4571857  56.2442856  16.0473595  19.4601040  55.3033867  15.8714790
  18.5353088  56.4582710  16.1908264   9.1442776  50.1989937   1.8867767
   8.5194464  50.3188896   2.6019287   9.7819004  50.9030037   2.0052652
  65.2790985  37.0008354  36.6107941  64.9119720  37.5443039  37.3079987
  66.0299759  36.5667419  37.0157280  69.9583206   3.3058856  75.8800659
  70.3821030   2.5057516  76.1905899  69.0264282   3.1631334  76.0457077
  40.3930130  59.1651268  60.8528061  41.2688484  59.5134926  61.0194969
  40.3804779  58.9886665  59.9120979  82.8952255  28.0910912  45.8984337
  82.8925400  27.2783833  46.4041328  83.4665527  28.6788712  46.3927269
   5.4877214  17.5302734  47.7306595   5.1662726  17.0121193  46.9928131
   4.7317309  18.0483418  48.0069160  43.9835205   5.2418656  29.0369358
  43.5879364   5.0857625  29.8944759  44.6668358   4.5755887  28.9635162
  56.0458984  65.5692749  76.7978058  56.5646935  65.9495621  76.0889587
  56.1198692  64.6237869  76.6681213  23.2121201  18.2470226  70.7811737
  23.4705925  19.1090012  70.4549561  24.0342255  17.8352375  71.0472641
  73.5966721  35.5281143  27.3717651  74.2775421  35.0366936  26.9122486
  73.4929886  36.3300133  26.8594799  24.5029144  61.0380135   2.4410107
  23.8858948  61.6216240   1.9995188  24.8358974  61.5531273   3.1758645
  58.9885216  24.3957977  55.4716530  59.8540039  24.3127251  55.0713158
  58.6359406  23.5059128  55.4667435   6.2789807  31.1960793  51.1046562
   5.3458390  31.0976200  50.9154854   6.4389782  32.1374130  51.0373993
  63.8820686  46.2929573  42.4980545  63.2069092  46.1206551  41.8417702
  63.9940262  45.4574738  42.9515572   8.1197729  34.3217506   3.3761718
   9.0394087  34.3274078   3.6416349   7.6792254  33.8036537   4.0497622
  26.0313396   0.0947555  84.6927490  26.8973656  -0.1461720  85.0216675
  25.8593864   0.9540203  85.0778809  69.4164429  31.0352364  28.1376266
  70.2957993  31.0621777  27.7604733  69.5363083  30.6288357  28.9959393
  48.1862984   9.4080563  59.1893234  48.0794945   8.8187542  58.4426346
  48.9802628   9.9045448  58.9909592  67.8245926  15.9629650  17.9709415
  66.9924164  16.1587181  18.4015274  68.2741394  15.3726892  18.5756817
   3.2373941  46.8464165  77.4120865   4.1623154  46.6812439  77.5950317
   2.8538215  45.9752083  77.3115921  23.7003880  22.6597862   8.2700863
  22.8309746  22.4142838   7.9537315  23.9517727  23.4055271   7.7251940
  64.8907928  28.2820206  49.4571648  64.4789276  29.0116634  49.9200058
  65.5914993  28.6873741  48.9463577  73.5874023  21.7575302  53.2808609
  74.4211121  21.2873936  53.2922974  73.8249512  22.6613998  53.0739288
  16.7882004  25.1143723  84.1738815  17.6866112  25.3555984  84.3994904
  16.2726974  25.8952827  84.3755493   6.6134901   3.5731516  30.3272285
   6.9000239   4.1907611  31.0000496   6.5637174   4.0964761  29.5272999
  67.1524353  56.0077400  25.8518028  67.5397873  55.5476036  25.1071777
  67.8347778  56.6140327  26.1399899  84.1740952  14.8501778  39.3404541
  83.9603958  14.9893236  40.2630577  83.3996277  15.1536579  38.8668060
   1.2537968  61.0521584  11.4901829   1.5482192  60.8150520  10.6107922
   0.8181725  60.2650833  11.8172550  42.3585472   0.1946999   9.6480284
  42.9350929   0.9507889   9.7582703  42.1994133   0.1502962   8.7051945
  61.5248146  45.6080017   3.3525198  61.4193344  45.2626266   4.2389855
  62.4637032  45.5399017   3.1790829  83.7575760  13.1780367  14.0179977
  84.0266953  13.4202433  14.9040794  84.4867249  13.4536314  13.4624681
  46.7778397   7.1091700  84.5311813  47.3631477   6.8109102  83.8349838
  47.3645477   7.3903203  85.2332916  63.8897667  64.7895966  41.8116226
  63.0055428  64.9098663  42.1579094  64.2013931  65.6776199  41.6368752
  81.6243286  29.3387165   6.9052815  81.6683578  29.5754948   7.8316884
  81.0049362  28.6096249   6.8735905  82.0654449  11.9972162   2.3065748
  82.8449936  11.7453384   1.8115113  81.8731613  12.8879881   2.0136845
   8.3520231  33.1808548  85.3681641   8.6151600  34.0639191  85.6273575
   7.8993554  33.3011475  84.5333862  59.9007759  49.6077538  80.5613327
  59.8086891  49.0839195  79.7655029  59.0512466  49.5340843  80.9962006
  61.7446518  19.5427017  30.9293137  61.4437714  19.6836376  30.0316277
  61.4761925  18.6470242  31.1340656   2.7699707  24.1847286  27.8058777
   2.7215066  24.5624371  28.6840687   2.1469092  24.6967163  27.2902279
  59.3487358  65.6488342   3.5844989  60.0447121  65.0359879   3.3472962
  58.8938370  65.2247009   4.3121061  61.5373573  11.4666300  11.3829689
  60.6171722  11.5393448  11.6363564  61.7219276  12.2808666  10.9147959
  46.5996780  47.6818810  33.5794983  45.8215714  48.0864143  33.1959229
  47.1184998  48.4188271  33.9019356  12.5990467   8.5377493  73.3532562
  11.8315878   8.1369905  73.7614594  13.1673203   7.7991042  73.1348495
  66.3888245  30.0783691  51.6491280  65.8825531  30.7713051  51.2251396
  65.7376862  29.5632420  52.1254616  25.1547432  14.5509491  61.0805550
  25.5468845  14.4350929  60.2150879  25.3764076  13.7486868  61.5532837
   4.9601111  58.8338509   2.8838711   5.4669623  58.4821663   3.6157537
   5.2326946  58.3103447   2.1302969  16.9390850  69.5809021   6.5778680
  17.6768475  69.8309784   6.0216317  17.1352825  68.6834488   6.8467755
   4.8482561   6.5640044  41.6557693   5.4222951   5.9433970  42.1047211
   5.0321116   6.4307942  40.7258835  12.8152390  21.4058418   6.2491355
  12.9842606  21.3417301   7.1891103  12.4422970  22.2795696   6.1318874
   6.4590797  62.9091301  36.6294899   6.9108124  63.2664299  37.3940201
   7.1243954  62.3879662  36.1800690  54.1728935   2.8476043  65.4580536
  54.8752708   2.4508498  64.9428024  54.6094894   3.5211837  65.9794922
  66.5587082   7.0063758  37.8218040  66.4527206   6.8573933  38.7613792
  66.9555130   6.1991067  37.4945564  44.9816246   4.8018064   8.1153908
  45.7103996   4.3825135   8.5728941  44.8342056   4.2523799   7.3455663
  70.6268921  51.5273552  21.3831387  71.4847336  51.7620850  21.7370358
  70.3232346  52.3219986  20.9443169  68.9465027  50.5915375  14.8178082
  68.6782532  51.3356171  14.2787142  69.9024506  50.6382866  14.8319426
  27.6029034   3.6078174  72.3112488  28.5492382   3.4725266  72.2624664
  27.2471352   2.7418957  72.5108490  82.1579361  13.1463556  52.5946655
  82.9220200  13.6137247  52.9322701  81.6779404  13.8040676  52.0914268
  16.7648468  44.5386620  68.8123779  17.1503086  45.0898972  68.1313553
  17.2521992  43.7165260  68.7594070  57.6113548  59.6236610  36.6833420
  57.0754356  59.2631454  37.3897743  57.7322617  60.5432701  36.9198380
  57.5012131   1.6524751  26.7833519  56.5648804   1.5967407  26.5925331
  57.7202797   2.5733149  26.6408939  85.5210342  26.2688217  42.6323929
  84.6542892  26.5541325  42.9214935  86.0391312  27.0729980  42.5990295
  19.2132931  49.0480576  50.4763641  20.0447445  48.6804657  50.1767082
  18.6323814  48.2916298  50.5575294  57.4974060  33.1461105  68.0625000
  58.0108299  33.9105148  67.8011322  58.1099396  32.4132538  67.9995804
  86.1687927  58.5168457   3.4145081  85.9663086  57.5894585   3.2912657
  85.5329666  58.8165398   4.0642333  77.4237442  34.0424881  39.4408493
  76.6848755  34.6209564  39.6297569  77.8973999  33.9802780  40.2703133
  18.6993790  48.2929192  82.5502090  18.7447166  47.3417053  82.6469879
  17.7738209  48.4730682  82.3855286  79.9800644  26.6972141  77.3186188
  79.4614410  27.2102890  76.6989212  79.6971817  25.7937546  77.1772995
  26.6814995  43.0693817   1.2574675  27.2123623  43.8098679   0.9640476
  25.9678841  43.0193596   0.6214774   6.9428339  58.9794159  38.6048470
   6.6410546  58.7394142  37.7287445   7.8978305  58.9604912  38.5427589
  31.9309158  20.2445889   2.2157116  32.7420464  20.6759243   1.9469235
  32.0123749  19.3514462   1.8812087   7.8002090  37.7803459   5.2924304
   7.5246010  37.0038986   5.7796640   7.3537998  37.7048531   4.4490733
  83.5669861  15.5694056  81.9861679  83.9742813  16.3705578  81.6567764
  83.8343811  15.5247393  82.9041748  24.7061939  65.2373276  34.9768257
  23.9507980  65.6290436  35.4151993  24.5498981  65.3930206  34.0453949
  22.7654438   1.8146437   1.7725884  22.7202225   2.5527859   2.3803160
  21.8511391   1.5876113   1.6030664   9.7729416  26.1875229  21.3944588
   9.0547981  25.8440495  20.8629265   9.6780462  25.7467442  22.2388172
  40.2120323   7.1617184  85.6005478  40.4112930   7.0148129  86.5251770
  39.2558594   7.1522880  85.5571594  30.3758869  53.6025658  30.9120274
  30.8213634  54.3130341  30.4504929  29.5132465  53.5531998  30.5001431
  68.0302200   2.7448151  84.3796082  68.6224823   2.0091114  84.2240295
  68.0758209   3.2630527  83.5761261  27.0000992  12.2422619   5.7285590
  26.9144173  11.3064442   5.5465250  26.1437893  12.4991169   6.0705948
  26.6847115  13.6265259  79.2854767  25.8901882  14.0451279  78.9542084
  27.1041660  13.2592459  78.5074081  38.1667786  58.0770531  24.4489346
  38.3261185  57.9842949  23.5096588  38.1583328  59.0225029  24.5982151
  71.8678513  65.7761002  81.8661728  72.4036636  66.5334625  82.1018448
  71.0260010  66.1499710  81.6059113  40.4219933   6.9657655  54.3948593
  40.3852692   6.5677509  55.2646103  40.8545418   7.8080821  54.5349922
  64.0893555  11.1017036  78.8942642  64.1669006  11.8667517  78.3242416
  64.2249603  11.4460211  79.7770386  11.8045435   9.8067083  20.8282890
  12.7172499   9.6612749  20.5791931  11.5867643  10.6597605  20.4526482
   9.8878317  28.7552547  76.5061111   9.8604364  28.1353722  77.2349625
   9.9640989  28.2051029  75.7265320  24.6881981  46.4235878  78.2524490
  23.9235249  45.9457245  77.9312744  24.4984970  47.3405037  78.0536728
   4.0015440   5.4860339   5.9571071   4.2636437   6.3838120   5.7533178
   3.0886660   5.5603161   6.2352581  22.1675186  51.9766121  66.8831787
  21.8875313  52.0144424  67.7977295  21.5708694  52.5687485  66.4253387
  41.5285950  12.9507027  25.5426121  40.8497086  13.6196270  25.4538155
  41.2882881  12.2793245  24.9040699   0.9760574  16.3347321  83.6567917
   1.0592591  16.5921288  84.5749741   1.8711021  16.1361599  83.3816605
  37.7637825  64.7509766   9.3584166  37.0229034  65.3109055   9.1264391
  38.5196724  65.1721649   8.9491959  14.7924700  66.9099655  29.4750366
  14.4744387  66.7064896  30.3546295  15.7450142  66.8455505  29.5438995
  70.2773132  59.8691025  27.9989471  70.9310532  59.3284836  28.4423199
  70.7797089  60.3805542  27.3647194  57.0494194  39.8334961  87.6136932
  57.6704712  40.2819061  88.1876678  56.9191895  40.4379234  86.8829803
  76.6899490  21.2843781  51.8225479  77.1328125  20.5172729  52.1853943
  76.2774963  20.9654255  51.0198135   8.9295197  19.4829979  79.5369339
   9.1804914  19.4657707  78.6133881   8.7314243  18.5706997  79.7483597
  27.2145882  65.0779953   6.2142606  26.4476624  65.2771301   5.6772308
  27.9445210  65.4890900   5.7511897  37.2280083  57.7161636  65.9981308
  37.4408150  57.0257988  65.3701630  37.5764313  58.5152512  65.6027908
  14.3817730  47.7603188  74.8740921  14.0109491  47.1765938  75.5358963
  14.7931547  48.4627190  75.3777084   9.6336956  19.5424423  74.2186203
  10.0600367  19.3996220  73.3735962   9.0005159  20.2407970  74.0524368
  82.6851120   1.1540666   7.8070936  81.8827286   0.6634129   7.6291347
  82.5886383   1.4508897   8.7119808  67.0911636  67.3628082  88.7514267
  67.7866745  67.8391571  88.2980042  66.7558136  67.9853058  89.3966217
  18.4821663  50.3013458   7.4338369  18.4050655  49.7887115   6.6291661
  19.1002083  50.9988060   7.2151980  22.0646572  66.5682831  13.4308310
  21.2490807  67.0418854  13.2672176  21.8091373  65.8395844  13.9964685
  71.1201782   6.7326369  33.8921051  70.5632706   7.4092536  34.2771721
  71.1340408   6.0333271  34.5455627  57.8011475   2.9949837  44.8826981
  57.1017418   3.5069973  45.2887802  57.6689644   3.1127307  43.9420090
  41.8743896  29.3781147  88.6454926  42.1222343  29.5394135  87.7351151
  41.2573128  28.6477909  88.5999298  64.9517746  17.8791561  14.8414927
  65.8015900  18.2057648  14.5459175  65.0782013  17.6896076  15.7711802
  67.4817963  32.0233307   6.1159549  68.1437683  31.6037922   6.6655169
  67.9225311  32.7926407   5.7551980   5.8201427  16.5854168  57.3630676
   4.9412832  16.9541054  57.4519806   6.0761585  16.3582840  58.2569923
   1.5997829  70.3267822  40.7127762   1.3376507  69.9157944  39.8889999
   0.9041391  70.0950089  41.3280716  55.5744400  69.4177094  43.7659531
  55.0672913  70.1841888  43.4984665  55.2527428  69.2120667  44.6437073
   9.3220816  69.3446884  58.4391441   8.4940548  69.7955551  58.6044426
   9.9213428  70.0380630  58.1628265  81.0489197   1.8896292  12.9319201
  80.6469421   1.2592785  12.3341703  80.4954681   2.6678996  12.8669262
  40.8708992  33.6230507  25.7314796  41.5643349  33.8975754  25.1314659
  41.3097763  33.5266113  26.5766544  81.9621124  67.4225769  22.6127148
  82.6287155  66.8497009  22.9917679  81.3145218  66.8234787  22.2413177
  19.6503468  33.1804619  54.5822601  19.4459801  33.3843384  53.6696281
  20.4186497  33.7156754  54.7809868   0.5558109  60.5906334  40.5622482
   0.1691647  61.2191010  39.9525223   0.2815758  59.7355537  40.2307968
  63.5074310  40.5233574  79.4883957  63.5986443  39.5706139  79.5022583
  63.6655617  40.7658577  78.5760269  22.5141373  59.0980034  71.5905762
  22.3442535  58.7978935  70.6976547  21.8504963  59.7696228  71.7478638
  84.9708710  69.8339996  80.4116974  84.2666855  70.1233749  79.8315125
  85.2539978  68.9962234  80.0453568  18.3509350  17.6419983  52.6395760
  18.7902699  18.3199272  53.1530228  18.9554844  16.9000397  52.6554184
  35.0303612  41.7325630  21.3143959  34.7229080  42.3020248  20.6091175
  35.8982849  41.4462051  21.0298920  66.3568039  24.1566887   5.4579682
  65.9325638  24.5448532   4.6927361  66.3949203  24.8680668   6.0972815
  10.6248903  45.2749176  86.4524918  11.1860867  45.9988670  86.1746674
  11.1816368  44.7459030  87.0238113  49.6617050   5.3328962  39.1082115
  49.0918083   5.6132698  38.3920822  49.8849831   6.1424241  39.5676041
  76.9096603  27.5048046  13.2928133  77.5756989  28.0344830  12.8545561
  76.1891632  27.4579983  12.6643896  78.8645630  27.2658501   3.7928710
  79.7227783  27.5264721   3.4585559  78.7839355  27.7244549   4.6291804
  47.8049049  13.1841602  17.1917171  47.5312920  13.0242615  18.0949326
  46.9854507  13.2878284  16.7080021  17.4333439  23.1784611  78.6433640
  17.1866245  23.6238651  79.4539032  17.5186920  23.8819637  77.9999084
  80.2205429   8.6580753  54.1547203  79.5701981   8.3007069  54.7593422
  80.6781998   7.8896723  53.8136292  69.9594193  10.2730007  19.7249489
  69.1461182   9.8594751  20.0143623  70.1540604  10.9194775  20.4034882
  52.6771965  40.7827225  49.8052902  52.8394051  39.8744812  49.5503006
  51.7418213  40.8116150  50.0064468   0.2770789  12.6561117   7.6906376
   1.1879663  12.4680948   7.9168348  -0.2266808  12.3343229   8.4382401
  14.5964155  54.6642227   8.8532572  15.1128864  55.3556786   9.2672319
  14.9300976  54.6198921   7.9571967   7.7700467  70.6720505   1.2261411
   8.0816460  70.5368500   0.3312339   6.9028873  70.2670441   1.2415740
  75.1291428  43.9471893   8.8663588  76.0480804  43.7011681   8.7602472
  75.1290665  44.5625648   9.5995340  13.3608465  54.7284012  52.7443848
  13.4646378  53.9314270  52.2244835  12.5852785  55.1537132  52.3785477
  79.7897186  55.3547478  37.1223564  79.8060760  55.1055984  38.0464172
  78.9471359  55.0324860  36.8022881  63.0507050  60.3092422  77.3834457
  63.1914253  59.4083481  77.6746826  62.5695953  60.7206764  78.1014175
  23.2884998  59.7870674  51.4871178  22.4118156  59.4122581  51.5718231
  23.8798904  59.0545387  51.6599998  31.2686882  37.8080559  86.0670776
  30.9092484  37.8268318  86.9540253  31.9445381  38.4858894  86.0681381
  66.9077530  18.8670139  13.0199480  67.3079758  19.6878471  13.3068008
  67.6272736  18.3751907  12.6241789  77.8756714  64.9463806  16.8322868
  78.5115662  64.3409348  16.4510918  78.1666870  65.8117447  16.5447350
  76.4921036  55.9612923  83.3683624  76.6654816  56.7679634  82.8831253
  76.1311493  56.2573357  84.2040100  78.5262070  53.7514534  65.5665359
  78.2976456  53.1518440  64.8562775  77.9077377  53.5408936  66.2661057
  17.5604019  14.2383852  53.4570503  18.2936840  14.8007107  53.2074127
  17.2891045  13.8214130  52.6392708  17.0437965   2.6929054  76.7458496
  17.8805103   2.8119001  77.1952744  17.2237740   2.9333575  75.8369980
  71.5195618  63.1455345  80.6107635  71.7304001  63.7236519  81.3439560
  71.9171219  63.5689392  79.8499069  55.1332626  69.7541275   9.8246145
  55.2356834  70.6968079   9.9553871  54.3098869  69.6670227   9.3443041
  81.1938629   8.1270895  20.5562134  81.4142456   8.2976112  19.6404705
  80.3824768   8.6135674  20.7018871  28.4536686  64.6979446  17.3891640
  27.5546017  65.0120926  17.4852104  28.7898235  65.1642227  16.6237774
  47.0097504  57.5334587  67.0801086  47.5777321  58.3039284  67.0826874
  46.9281273  57.2929802  68.0030060  29.3325748  44.6441307  78.7871323
  29.6137409  45.5521622  78.8996429  29.7276573  44.3719482  77.9588470
  80.1498489  61.0186157  24.3380680  80.7748108  60.3028450  24.4535084
  80.4648438  61.7081909  24.9224434   6.7597876  39.5894699  70.4281540
   5.9229321  39.2660408  70.7617645   7.2105508  39.9293365  71.2011566
  58.1456909  51.2738190  38.2345123  58.6746292  51.2051735  39.0293350
  58.5582733  50.6677246  37.6191597  66.0707092  20.2395287  86.7731018
  65.3850632  19.7962513  87.2727203  65.6053696  20.6643391  86.0525284
  82.1276627  10.8627167  21.9277191  82.0377579  11.2705364  21.0664215
  81.5998993  10.0661182  21.8718033  16.1429005  60.3978462  51.4391327
  15.8591642  60.7390709  52.2872429  15.9314289  59.4649277  51.4734116
  37.2838783  37.5494041   5.0449491  37.5869560  37.3905258   5.9388909
  36.6087036  38.2216568   5.1368775  81.4311142  29.8718224  10.0250607
  81.5251389  30.5450516  10.6989708  82.2185211  29.3345051  10.1117878
  81.2569275  17.6994629  39.8731270  81.3433075  17.7642174  38.9220352
  81.5196228  16.8018608  40.0769234  60.4546890  41.8637199  21.5437813
  60.7373352  41.8428345  22.4580612  60.2303734  40.9553986  21.3416252
  32.5991325   4.6427279  69.6594162  33.4364014   4.4904356  70.0976105
  32.8312569   5.1020532  68.8523407  40.6030464  33.1699104  16.8926315
  40.2676315  34.0498772  17.0640450  41.0691833  32.9309883  17.6937962
  26.1608219   6.1742196  76.1642914  25.4994659   6.2507873  76.8520203
  26.9527931   6.5477328  76.5509415  62.1075783  27.5820217  88.1730118
  61.8015022  28.1805153  87.4915771  62.8552742  27.1326809  87.7789688
  22.9468231  31.3131657  54.0763130  22.7977695  30.5707798  54.6618729
  22.6770611  32.0776138  54.5853081  62.9841156  59.9597549   5.9058495
  63.5176430  59.4446640   6.5110435  62.7664108  60.7535019   6.3945251
  21.5845261  57.2329407  11.6690702  21.2063942  57.4518089  12.5207415
  22.1058197  56.4471169  11.8332767  47.6489334  30.5009613  53.3499413
  48.4362793  30.9536896  53.0476913  47.9295578  29.5956001  53.4833641
  29.1887283  -0.0084758  72.8091354  29.2530880   0.6938739  73.4562759
  29.9060574   0.1618484  72.1986694  67.9024429  17.6787529  59.9874458
  68.0011749  18.1228886  59.1452866  68.6303101  17.0578384  60.0175552
   5.6673112   8.4328594  78.2423019   4.8185258   8.7968502  77.9906998
   5.8254414   7.7334485  77.6082306  30.5298347  57.1807213  51.6770134
  31.0526295  56.7111816  51.0270538  30.5857391  58.0986786  51.4115677
  61.6785660  20.4703064  73.4589844  62.2302132  19.9665222  72.8605499
  61.5797005  21.3221779  73.0338135  36.4115639   3.9753175   1.2981644
  36.6279640   4.7380953   1.8344221  35.5044479   3.7718410   1.5261284
  76.4921036  61.8621788  56.0107841  76.7905579  62.7472763  56.2199860
  75.6653595  61.9917679  55.5460968  15.4877453  26.6239090  74.5366287
  15.0625582  27.3509693  74.0818405  16.3466187  26.9660149  74.7846832
   1.0896498  31.3540478  38.2283440   0.8221663  32.2659836  38.3426094
   0.2762893  30.8884773  38.0336113  69.9362869  27.6471272  85.2500153
  70.5927658  28.1334457  85.7487793  70.2894592  27.6106205  84.3610992
  57.4546013  29.8586426  29.8759060  58.4077415  29.7844429  29.9233856
  57.1998062  30.2189159  30.7253265   8.2835169  31.7717628  39.0488701
   7.9534998  32.0934105  39.8878365   7.5477967  31.8773632  38.4457130
  61.6251030   5.6805177  80.6832199  61.4336357   6.4573889  80.1578217
  62.5575371   5.5183702  80.5400162   0.8496828  36.7611542  11.4211311
   0.8530959  37.3342552  12.1877975   1.4956636  36.0848007  11.6248093
  31.1801453  60.3561020  20.7017651  31.6103497  59.9598732  21.4594994
  31.4230289  59.7929649  19.9668369  70.7583237  66.0069580  34.5239983
  70.8864136  66.1152267  33.5816078  70.3134155  65.1638107  34.6099358
  65.8171310  57.6137619  84.9983673  65.6428604  56.7095604  84.7370682
  65.9152374  58.0871506  84.1722260  62.9560127  24.9802704  25.2792397
  63.7551537  25.4463062  25.0334454  63.1309929  24.0674934  25.0502129
  19.0577450  30.9161949   8.0684977  18.6968346  30.9258976   8.9549980
  19.3663292  30.0185108   7.9453392  56.0871925  65.5635223  51.4843864
  56.3044472  65.8880539  50.6104813  56.8157158  64.9864883  51.7135506
  82.8251724  71.4164734  78.0286179  83.1380692  72.0890350  77.4236450
  83.0448227  70.5887527  77.6009827  17.3163223  10.3054457  18.0201073
  17.3174000  10.7672310  18.8585491  18.2393761  10.1196451  17.8478184
  83.9094620  47.6926270  52.2021065  84.6217422  47.3897438  51.6389503
  84.3382568  48.2491455  52.8522301  87.0501862  63.4246902  32.7702026
  86.3111115  63.8508797  33.2042046  86.8430939  62.4908600  32.8063049
  77.8087692  46.0382957  19.5587406  78.0155716  45.7414932  20.4449501
  78.4339294  45.5769730  18.9996490  54.0170708  60.7895050  80.1886444
  53.1986465  61.2858887  80.1846924  53.7494392  59.8850746  80.0255127
  61.6765671  23.9311600  35.8263550  62.1852684  23.2189503  35.4387856
  60.8652115  23.9497356  35.3188248  69.0451431  52.0149155  25.7528992
  68.4986877  52.1252556  24.9748001  69.8975449  51.7455559  25.4107037
  71.7759018  30.0839863  20.0205917  71.2381210  29.2925472  19.9951572
  71.9642563  30.2751999  19.1017933  14.4728804  23.5565281  86.7599335
  15.3730507  23.3642635  87.0225372  14.5006971  24.4636726  86.4557190
   0.6848716  21.2389221  46.1237259   0.2119443  21.2817287  46.9548340
   0.2518041  20.5372448  45.6375885  81.1763535  39.4867363  75.8317642
  80.8925171  38.6390610  76.1739807  81.8229599  39.7966766  76.4658585
  44.8669243  22.7830753  23.9483700  45.4318047  23.0107021  23.2099075
  44.7066040  21.8448582  23.8469925  67.2284088   1.4893227  13.0174208
  66.6484833   0.8328545  13.4033766  68.0762787   1.3343121  13.4337463
  58.2408524  38.6689644  13.2782888  59.1461754  38.3671036  13.2040892
  58.1666832  39.3661880  12.6266661  45.9461098  40.2904015  14.1709843
  45.7111969  41.1873245  14.4088440  46.7790642  40.1348801  14.6162176
  66.0302124  44.0264168  60.8975906  66.4222565  44.3895645  60.1034508
  65.0952148  43.9722328  60.6999207   7.9760933  24.2758083  25.7787132
   7.4179416  23.8858051  26.4514656   7.6189499  25.1546707  25.6511173
  80.9343872  31.0344391  18.3753471  80.1828384  31.1906128  17.8034992
  81.6125717  31.6242332  18.0460339  61.4351921  58.1647415  67.5373688
  61.9223785  58.7729988  68.0931625  60.5898514  58.0648804  67.9751587
  79.5958481   5.5027957  26.4791565  78.9321136   5.4945693  25.7895088
  80.1016388   4.7031446  26.3343410  75.6694336  24.6894150  84.1345139
  75.8161926  24.7775764  83.1927490  76.2917862  25.2984810  84.5319519
  49.3411331  11.5926371  72.4476471  49.2208328  10.7958050  72.9641953
  48.4691124  11.9851942  72.4062881  11.3295765   5.6997614  48.1824188
  10.4184732   5.4158168  48.2565651  11.8349543   4.8868656  48.1874466
  59.8943939  32.0552826  23.6718922  59.2780762  32.6221657  23.2081795
  60.6309128  31.9578915  23.0683327  71.6755600  48.9567299  35.5400467
  71.6827393  48.4868164  36.3739319  71.7307510  49.8803749  35.7851372
  54.4980087   6.4455347   0.3822037  55.4477272   6.5613842   0.4112309
  54.3746758   5.5008440   0.2895725   9.7973366  66.3614807  12.8887672
   9.0620327  65.8159714  13.1680241  10.1246643  65.9350891  12.0967579
  50.6604576  33.1677589  55.9834518  49.7773590  33.2607231  55.6260643
  50.7436485  33.8891869  56.6070366   5.3210621  27.3040733  58.3611183
   6.1405191  27.6314430  58.7319946   4.6677461  27.9582520  58.6090279
  14.7981167  51.7111702  54.0507431  14.4514008  51.5988197  54.9358406
  14.1600008  51.2747078  53.4863472  80.2217026  68.4762802  78.9973297
  79.9575806  69.3930206  79.0752258  80.6658325  68.2839813  79.8231583
  23.8404198  71.1529999  10.5662022  23.1415329  70.9602509   9.9411917
  23.3934746  71.2295303  11.4091825  77.7989044  44.1399727  53.4098396
  78.5175171  44.6986809  53.1137543  77.4792786  43.7180786  52.6122932
  76.3494568  60.6321678  66.8941193  76.9834366  60.2367630  66.2958298
  75.7890930  61.1659012  66.3307800  81.5629654  24.3285866  28.2206554
  81.5328522  23.4617100  28.6254368  82.3253098  24.2966938  27.6426868
  45.9979706  16.5721645  29.5045414  45.7349586  16.2859459  30.3792629
  46.9500427  16.6564617  29.5562992   8.5866861  47.3762169  11.5513229
   8.0139446  48.1223869  11.3740387   8.6712132  46.9332466  10.7070103
  76.2953720  22.3097668  24.0516167  75.3490829  22.1904926  24.1324139
  76.3948975  22.9937305  23.3894081  77.7464752  25.2529354  52.3490753
  78.4390793  24.6767464  52.6724052  77.3526688  25.6212597  53.1399536
  77.5301208  21.0196209  82.0912628  77.6263962  20.1611538  81.6789551
  78.2956238  21.5135765  81.7975845  74.7195282  46.9060783  81.0113678
  74.0592422  47.4742470  81.4081421  74.2508926  46.4427414  80.3171616
  77.3903732  41.6825981   7.3437371  76.9494705  41.9999199   6.5556083
  77.8047562  42.4609299   7.7161870   5.1234407  49.8729401  78.5944061
   4.2960291  49.9330444  79.0719070   5.6660438  50.5679016  78.9670258
  40.7092133  48.9407959  62.8869896  41.1208916  48.4121513  63.5705757
  41.1074066  48.6321449  62.0731087  73.0110703  58.9218903  22.6509800
  73.8648453  59.0332603  22.2327671  72.3789902  59.0597992  21.9455147
  65.1037674  26.1775188  40.1798401  65.6015549  25.7233677  40.8596802
  65.6520081  26.1127071  39.3978806  73.1273270  42.6268272   5.7113047
  73.5776978  43.4701767   5.7578120  72.5943985  42.5957680   6.5058174
  65.2722244  23.1329079   9.3012915  65.4376984  22.1927738   9.2305803
  64.5798340  23.3029366   8.6626091  84.3549957  35.1916504  55.6230927
  84.6630554  36.0195160  55.9918404  83.5647507  34.9862633  56.1226540
  23.1957169  32.2956009  10.4356709  22.8367424  31.4092579  10.3936176
  23.7688465  32.3583908   9.6715946  86.1251907  63.5790520  77.2182388
  86.1834106  62.7320633  77.6603394  85.2146530  63.6359520  76.9285736
  65.3575516   2.4950407  49.3788376  64.6796036   1.8871030  49.0838242
  64.8749619   3.2676051  49.6729202   5.0956941   0.0677478  17.0309315
   5.8794351   0.4994805  16.6909466   4.3725619   0.4716325  16.5511513
  29.0752697  52.0951385  50.3896980  29.9433689  52.0586243  49.9880714
  29.0837421  51.3951225  51.0424881  79.3164444  65.8561172  50.3783150
  79.5965424  66.3354340  49.5985451  80.0643234  65.9088898  50.9734001
  50.6460381  55.9060097  55.5137291  50.7763290  55.2418633  54.8368492
  50.5338249  56.7235413  55.0286751  71.2088623  24.4693699  20.4175129
  71.9684372  24.9913445  20.6759949  71.1626434  24.5683117  19.4665623
   7.4913521  70.5700150  70.0471878   8.0038815  70.1332703  70.7274780
   7.4305787  69.9254456  69.3421555  53.7298813  58.5299492  77.0869064
  54.5891800  58.9254074  76.9404526  53.1065903  59.2085762  76.8276825
  59.8474312   0.9723519  16.7266388  60.7842064   1.1616285  16.6731720
  59.5290451   1.5360491  17.4316959  12.8458643  64.1072922   7.7897763
  12.2308559  63.4094276   8.0155687  12.3501844  64.9154129   7.9219747
  14.2158747  46.3109398  33.8274651  14.2027283  47.0483742  34.4375916
  15.0486870  45.8718796  34.0003281  80.4148026  60.9613724  42.9340744
  80.3306122  60.8595505  41.9860382  80.5646896  61.8980713  43.0619888
  57.2159042  35.2442894  11.9734821  57.0819778  36.0630760  11.4961081
  57.9918251  34.8556900  11.5695353   7.8818579   7.7240806  29.3001347
   7.0176568   7.3716068  29.0876465   8.3294916   7.0066366  29.7486095
  29.7574520  43.9230576  85.4124832  30.5516510  43.6561089  84.9496460
  29.2934284  44.4820137  84.7891922  77.8687897   9.7642908  63.1524544
  78.0925598   9.9865303  64.0562057  77.0887222   9.2145977  63.2271004
  41.6455345   2.7133493  85.5518341  40.7779045   2.6331308  85.9480896
  41.6014099   3.5211174  85.0401764  49.1892548  25.8765144   0.3590070
  49.3130302  25.3025532   1.1149701  49.6909752  25.4606857  -0.3421288
  42.9037476  35.3136559  79.7162476  42.3818207  35.8539848  80.3094330
  42.3964233  34.5080185  79.6172333   9.0431032  25.2992477   5.9086061
   9.3131504  26.0328312   6.4610224   8.9634047  25.6759777   5.0322752
  34.0510216  64.6016006  24.6129742  34.4289284  63.8077354  24.9913883
  34.1417580  65.2613297  25.3005447  16.0437641  41.1337318  70.9451141
  15.3619528  40.4640846  70.8908920  16.5363636  40.9105949  71.7349167
  38.8173103  50.7530479  50.0508537  38.2296524  50.3822136  49.3925438
  39.6957626  50.5819244  49.7113304  14.2683897  28.9267254  31.7735291
  13.8234177  28.1572189  31.4184380  13.8257771  29.6698189  31.3634834
  62.7259598  70.9614716  79.4626541  62.4613190  71.8674316  79.6221237
  63.5623207  71.0336761  79.0027390  65.8929291  69.9880524  63.0720444
  65.2986069  70.5507050  63.5684662  65.8898010  69.1574936  63.5478516
  13.4243164  62.5409126  32.4704742  14.0360641  62.9360504  31.8492947
  13.5869217  61.6001663  32.4012642  67.3256073  41.5839577  87.0129318
  67.0560074  41.4754944  87.9249573  68.2652054  41.7604103  87.0602951
  58.0156631   3.3146796   6.1162105  58.6990395   3.7294178   5.5896950
  58.4611778   2.5947373   6.5627866  12.8579197  64.1118927  88.0737915
  12.6548986  63.3035278  87.6030807  13.8072939  64.0873795  88.1934586
  18.3074780  70.5707397  22.5769558  17.8720245  71.3134689  22.9952450
  18.7027321  70.9388580  21.7867031  11.9265556  60.3530846  44.4161606
  12.7036095  59.8403854  44.1935425  12.0087833  60.5169449  45.3556404
   1.0131328  55.1508331  22.8769112   1.5093927  55.9083939  22.5669746
   0.6116567  54.7881470  22.0872860  21.9526596  28.7451820  88.9856033
  21.9431438  28.6441326  88.0337982  22.2238197  27.8882275  89.3147430
  71.6491013  16.7602634  27.7658634  70.7444687  17.0683079  27.8204899
  72.0174484  16.9445114  28.6299248  38.8076668  56.0392036   8.5853872
  39.2836266  55.8307838   9.3892851  37.8860359  55.9207344   8.8151550
  30.0070362  31.1324577  72.9694061  30.0065689  31.7416992  72.2311325
  30.0240231  31.6946926  73.7438965  25.1811829  12.2618246  57.9143448
  25.7150745  11.5223589  57.6238556  25.8144341  12.8999643  58.2429810
  63.4522209  39.9080200  82.9129181  62.7971306  39.4648514  83.4520721
  63.9554596  40.4357834  83.5329590  81.7333527  70.4432907  32.7400017
  82.3241959  70.9164810  33.3258553  80.8638687  70.7836990  32.9506187
   9.1410313  36.8738365  53.8832092   8.6395626  37.0197639  54.6853752
   9.6626329  36.0922508  54.0656662  73.2730103  36.0562477   5.9185505
  73.5857620  36.9493828   5.7745705  74.0692673  35.5260315   5.9514136
  32.3195000  56.2555923  32.4608612  32.2743797  55.3085709  32.5925636
  31.4255829  56.5081444  32.2298584  35.0868073  62.9222260  47.4362030
  35.6366348  62.1838036  47.6982231  35.4810295  63.6797028  47.8686981
  30.3005199  45.8134499  29.0539436  30.5008945  46.0752335  29.9525814
  29.4898739  46.2773361  28.8444405   4.8405023  45.0986176  11.7938938
   5.7219763  44.8200417  12.0421495   4.9657865  45.9565010  11.3882227
  82.8965302   8.7274475  16.2737045  82.2291718   9.1012983  16.8491249
  82.8429871   9.2501268  15.4735985  59.4526215  32.2598457  80.3913116
  59.4029236  32.3247185  81.3450165  58.8166847  31.5815277  80.1639252
  74.8861847  39.4341393  37.4547119  74.4137726  40.2344894  37.2255783
  75.2925720  39.1528816  36.6349716  46.6406555  30.7690048  80.3470306
  47.0134468  31.2401352  79.6018524  46.8251152  31.3290577  81.1010513
  66.8452225  51.0102119  47.0155373  66.5827560  50.5459747  47.8104134
  67.2890701  51.7966423  47.3329735  13.2716284  52.8174438  58.2252350
  13.0649967  53.5508766  57.6459122  12.4270172  52.3994789  58.3930779
  70.9654922  37.6800003  72.1240082  71.4117889  37.9022293  72.9411163
  70.1371307  37.2892456  72.4021530  32.5916939  60.3410645  26.2150230
  32.5058861  60.9525223  26.9464512  32.8928833  59.5266228  26.6177692
  61.3331413  60.5147934  63.9690170  61.2778015  60.3800468  63.0229645
  60.6304169  59.9739876  64.3294830  82.4542084  61.7649498  72.0775833
  82.3210297  61.2582588  71.2764893  81.8231583  62.4819641  72.0151672
  55.3139000  42.8176918  73.3293152  54.8569908  42.5715446  72.5250244
  56.0077286  43.4097672  73.0390015  14.8768120  14.3974924  80.3322296
  15.6156073  14.8885288  80.6918106  15.2497606  13.5518446  80.0831909
  16.5157337  19.6278439  18.1236267  17.4069195  19.6793938  17.7781391
  16.1420975  18.8510094  17.7075043  63.7644882  36.1639214  61.0377350
  63.2188530  36.1694984  61.8241768  64.6370163  36.4036980  61.3498802
  37.5098190  40.1695671  14.4279299  38.3249626  39.9825783  13.9623013
  36.8348808  39.7203255  13.9191370  37.5163956  64.2117157  70.9956207
  37.0182610  63.6864433  71.6218643  37.6765518  63.6199036  70.2605438
  81.4656906  22.9427452  79.2206116  81.8035431  23.7173767  78.7711334
  81.1880035  22.3585110  78.5150681  85.5128479  27.5145931  81.0327835
  85.1304779  26.8742867  81.6328125  86.2928543  27.8327675  81.4872894
  85.7075195  55.3799057  -0.1097108  85.1108170  54.6452370   0.0332597
  86.5357971  55.0942497   0.2757694  77.5617599  49.4910355  88.9543533
  78.3894272  49.5604248  88.4785614  77.7956085  49.0700684  89.7816010
  72.2455215  42.4402657  88.2150497  72.4648132  42.9592133  88.9888992
  72.2355576  41.5357819  88.5281677  24.1407700  31.8162804  76.7579498
  24.7184544  31.7018871  76.0033493  23.3392315  31.3509598  76.5186920
   5.2177057  20.1952286  85.2053604   5.0411944  19.7261753  86.0208817
   4.3565731  20.4858875  84.9050293  23.7610226   5.5329127  65.4969330
  24.4959030   5.9629283  65.9342728  24.0883007   5.3322363  64.6200943
  85.8327789  37.1036110  87.5172577  85.6174011  36.8944664  86.6083527
  86.1232376  38.0152969  87.4908829   4.7297087  69.9156036  22.5706158
   4.2171392  69.8953018  23.3787575   4.1266966  69.6020966  21.8965855
  43.5625954   9.6121292   1.6751635  42.6288109   9.6674814   1.8781738
  43.7941399   8.7017555   1.8591179  69.9286270  49.6100578   8.2451630
  70.0743408  50.1380577   9.0301571  69.4938431  48.8197212   8.5654116
   4.6344304  28.7176800  54.0913429   4.3195162  28.1339417  54.7814941
   4.7706609  28.1447601  53.3367348  74.2559738  68.3135529  22.1248512
  73.7124405  67.6109695  21.7682209  74.4301071  68.0469513  23.0275307
  31.1406708  55.1078644  38.4944115  30.6378288  55.5317535  39.1898956
  30.7336159  55.4139099  37.6839333  59.0424194  43.8397484  73.0870438
  58.2179298  44.0143890  72.6332321  59.5817299  44.6102295  72.9089203
  84.8548889  43.4010239  32.8567696  85.1517181  44.2990036  33.0042801
  83.9071732  43.4377518  32.9860344   6.2087445  51.9199409  54.5394707
   6.4025884  52.5614662  53.8560257   6.2848883  52.4110756  55.3575287
  22.6772766  68.2693329  44.6988564  23.5355167  67.8752899  44.5427017
  22.7788296  68.7458191  45.5228004  11.0999184   5.3810058  52.0113754
  11.3254194   5.6541829  52.9006195  11.9166956   5.0333948  51.6532211
  27.1298161   0.9139332  26.6811638  27.2384586   1.8544908  26.5405235
  27.2299538   0.5284644  25.8107529   4.7170095  44.6775627  52.7570839
   5.5166326  45.0990601  53.0720062   4.8792739  44.5208435  51.8268471
  18.7512836  68.5802383  88.8761978  18.2918434  68.5539169  88.0368805
  18.2019501  69.1322556  89.4327469  25.0797596  34.1739235  86.3702316
  24.1339912  34.3210106  86.3591995  25.3760796  34.5816116  87.1839981
  83.9476776  31.2014179  55.2364044  83.7164917  31.9612370  54.7021179
  84.6739197  30.7907276  54.7672119  85.7020264  11.1236420  60.3191261
  84.8413849  11.3026085  59.9403076  85.9281311  10.2506495  59.9982071
  61.9773674  60.9386673  85.6491394  62.7781181  61.4166565  85.8649063
  62.1916199  60.0219574  85.8222656  65.3102112  12.5840406  -0.0569400
  65.3837357  12.6021557   0.8972600  65.6776733  11.7370176  -0.3094393
  12.5933046   7.3176732   4.8832569  12.7931490   8.0796804   4.3395290
  11.6456671   7.3573751   5.0122452  52.3334999  60.8070450  14.6466599
  51.6952591  60.7032471  13.9408922  53.1709328  60.5681801  14.2493210
  25.6648712  34.0596962  21.1460190  26.0675259  34.1575279  20.2831573
  25.3140278  34.9274521  21.3463802  66.7115784   0.0200658  50.4722443
  66.1659164   0.7840435  50.2856369  66.9153137   0.0932413  51.4046440
  48.2906570  50.4032097   2.5671475  47.5053596  49.9445801   2.2684920
  48.1087494  51.3269768   2.3945241  47.5256310  14.4770746  25.3393497
  47.0688171  14.0814791  26.0816822  47.7292099  13.7403231  24.7631702
  71.0121078  34.1910172  21.6216660  71.8389053  33.7087517  21.6298656
  71.1158447  34.8558121  22.3024864  51.2559090  59.7035904  26.7766933
  51.4485779  59.5044708  25.8604717  51.3762856  60.6506271  26.8464146
  70.3817444  19.2991028  80.0641403  69.4782715  19.4081936  80.3609009
  70.6656723  20.1830120  79.8310699  35.0375481   8.6920691  58.4000320
  35.3891029   9.1028414  57.6101532  34.5583420   9.3932056  58.8416214
  76.8675919  54.0467453  40.0484505  77.6421051  54.5858154  39.8879509
  77.2140350  53.2321205  40.4125938  57.1136284  41.0287285   8.9821129
  57.1389656  40.0962791   8.7673264  56.1914635  41.2697945   8.8941813
  18.1819992  54.0553169  62.0581245  17.8194695  53.2345924  62.3916168
  18.5661926  54.4772263  62.8266411  82.8773422   0.9913836  10.6277561
  82.6071777   1.5877156  11.3260622  83.8171616   0.8722474  10.7647867
  16.0486374  56.1892319  28.3086872  15.3313780  55.6737480  28.6775341
  15.7903252  57.0990219  28.4562931  61.1108971   5.2322474  18.2491283
  61.0005150   5.7919273  17.4804897  61.4514580   4.4090204  17.8990612
  45.8289299  45.1118736  69.2277451  45.6751328  44.7765007  70.1109772
  46.7793770  45.0760193  69.1200638  34.3677940  59.7715225  82.4241943
  34.3183708  60.7224312  82.3264160  34.4119911  59.6299629  83.3698425
  16.4346752   2.3006814  19.7516937  16.3005257   1.3778661  19.9676743
  15.7222137   2.5114427  19.1481972  63.3643150  57.1550369  50.9051514
  63.5180206  56.8626785  51.8035583  62.4482956  57.4326515  50.8970222
  29.8429661  22.5198250  20.9100590  30.6744308  22.0790749  21.0850945
  29.2088757  21.8083496  20.8208199  15.2338524  48.7687263  42.6838837
  14.7645340  49.5999451  42.6128769  15.2583647  48.4302940  41.7888451
  65.0059738  18.2479782  80.1599655  65.0408936  18.8458805  80.9066467
  64.1590652  17.8097801  80.2434311  52.4906425  48.2761917  29.9359131
  52.9789505  47.6323624  30.4490108  52.9362297  49.1060410  30.1063137
  69.7429962  38.0100822  48.1726685  69.6076279  37.2809677  48.7778969
  69.8124237  37.5971375  47.3119202  36.2136192  63.8438492   1.4766716
  35.6224670  63.0975838   1.5759516  35.6934357  64.5017471   1.0153584
  78.6786804  52.4700661  35.8826408  78.4503403  51.7532654  36.4744911
  78.0040970  53.1315727  36.0361710  28.5791512  70.9291382   2.4187140
  28.3358936  71.8187943   2.6747582  28.6375847  70.4495926   3.2450666
  60.8113136   4.9742713  10.2993946  60.3116150   4.6979041   9.5311813
  61.0747375   4.1561837  10.7207880   8.0979500  63.6422768  32.8490372
   8.7820110  63.2304459  32.3211250   8.3899240  64.5476379  32.9553680
  56.1742706  14.2908201  19.7098618  55.7923698  14.1701593  18.8404808
  56.1782379  13.4138870  20.0935345  20.3443413  61.2902031  13.0369883
  19.7448692  61.2022057  12.2959595  19.8436127  61.7737350  13.6940269
  24.7426414  28.4058456  21.9347992  25.4300423  28.8347588  21.4251461
  24.9343071  28.6424580  22.8422737  36.0237694   2.6158831  54.2425461
  35.1909065   2.2429793  53.9535561  36.2717133   3.2195654  53.5423164
  75.5184326  56.3396034  60.9359970  75.1814651  57.1828575  60.6333275
  76.1796036  56.0989914  60.2870026  72.5809708   2.6921754  40.2545586
  72.1453476   2.3550518  41.0373802  73.3172836   3.2027299  40.5913086
  47.8755341  58.9605560  30.8265591  47.2002029  58.4963036  31.3211575
  47.5804558  59.8710594  30.8147640   2.5233514  37.1836586  38.7220612
   2.3414187  38.1185341  38.8176956   1.7337952  36.8263474  38.3156586
  60.7329102  15.6660175  53.7359428  59.7907410  15.5117273  53.8048019
  61.1072617  14.7982254  53.5841866  71.4745255  61.9590988  63.3381882
  71.0503464  62.5281944  63.9804001  71.4406738  62.4544907  62.5198555
  56.7972603  23.0186977  70.2670746  55.9895668  22.5090466  70.3312607
  56.6351967  23.6354733  69.5532455  36.2318954  18.6928425   6.1802964
  35.6953621  18.0028915   5.7900014  36.7584267  19.0265770   5.4539218
   6.3885388  19.5440540  21.9789200   6.4648261  20.3886929  22.4227619
   6.6073174  18.8993130  22.6517334  54.0487938  57.7988510  67.6952591
  54.3824196  58.0992393  66.8498611  53.1190453  57.6321602  67.5402985
  15.6032715  59.8261070  14.9101543  15.1842804  59.2945976  14.2332678
  16.3989239  59.3438263  15.1350460  69.7531281  65.9188232  47.5872002
  69.3110428  65.1838074  47.1622963  69.9549484  65.6006699  48.4671326
  14.9680347  28.2668304   1.3836952  15.5243731  28.9666309   1.0416434
  14.1570339  28.3378868   0.8802472  61.8638992   4.1599879  57.2134399
  61.0283394   4.4258127  56.8295021  62.5225830   4.4711285  56.5925102
  46.4655762  23.5554409  87.9184723  45.6209030  23.2472725  88.2467880
  46.6700630  24.3169994  88.4610977  53.2038498  48.7536621  73.4712067
  53.9217110  49.0097275  74.0502930  53.2069130  49.4148941  72.7791138
   5.1756587  70.1612244  88.0710449   5.3763075  70.4691162  87.1872025
   4.3659883  70.6151428  88.3047485  30.2146053  55.3552170  59.0453224
  30.6146088  55.7488861  58.2699165  29.9271507  54.4900970  58.7534866
   4.6928787   3.9468043  74.4600296   5.0187674   3.1373293  74.0666122
   4.3975635   3.6870079  75.3326874  66.5185013   3.3562675  64.5993729
  65.6787109   3.2554955  64.1512299  67.1625290   3.4057105  63.8929634
  -0.1224551  41.0299606  82.9357224   0.5439350  40.3438644  82.8979721
  -0.4045636  41.0397835  83.8503494  75.5453720  65.1199036  41.4255104
  76.3703842  65.6051865  41.4160576  74.8693314  65.7972031  41.4471359
  51.4979591  46.4009361  40.1899757  51.6840401  46.0141411  39.3344078
  50.5915871  46.1533241  40.3727493   7.5061436  30.8862915  56.2586975
   6.5640917  30.9748764  56.4033432   7.6145015  30.9935951  55.3137245
  24.9534473  46.6595421  57.7853432  24.6498661  47.4950256  58.1403618
  25.8612385  46.8235359  57.5298996  54.0285530  50.3219757  79.9427872
  54.8802071  50.7520561  80.0199280  53.4999733  50.7105980  80.6397858
  48.5160522  64.5838394  21.0226326  49.3165932  64.4937592  21.5395966
  47.8079414  64.4441681  21.6513615  66.3270645  20.7322044   8.4928055
  65.9510345  19.8886127   8.2414360  67.0839615  20.5055752   9.0331564
   9.9904804  47.8370857  63.2170258  10.6573572  47.9029350  63.9005280
   9.1643572  47.7629204  63.6947823  49.8013153  23.1047306  19.6827202
  49.5250359  23.7993050  19.0848351  50.5981331  23.4431515  20.0911140
  15.8291149   1.7637391  82.5781708  16.1990776   1.5877731  81.7130737
  16.3630428   2.4778738  82.9262619  68.7357101  70.6745529  62.5903015
  67.7875748  70.7845764  62.6621284  68.9422302  69.9697647  63.2041931
   0.0461858  56.7146072  12.2349024   0.0198665  56.0555725  12.9285994
   0.9769319  56.9086876  12.1241093  60.1959343  21.1865120  41.7703476
  60.2664452  20.2390633  41.8869629  60.4921684  21.5530815  42.6034737
  61.2899857   6.0729423  85.5070038  61.5607567   5.3235555  84.9765930
  61.0341797   6.7384706  84.8683624  43.4167404  25.2082138  86.0279160
  42.5346260  25.0744972  85.6811752  43.3471603  24.9787750  86.9545975
  28.7035179   4.1253519  82.5533524  28.6250000   3.8289132  83.4600983
  29.3887520   4.7932353  82.5781937  69.4359818  57.1533394   3.4853835
  69.0479813  56.3970604   3.0452464  68.7564926  57.4538727   4.0888791
  14.4220419  37.8533936  25.4607677  14.2193975  37.4197235  24.6318550
  15.3723764  37.9668350  25.4456692   4.1249862  48.7660446  15.2648764
   3.6522663  49.3027420  14.6286945   4.6110573  48.1361694  14.7326908
  70.6044006  66.2947998  37.1703300  70.9363022  66.0784073  36.2989845
  69.6527863  66.2358398  37.0856056  28.0398426  11.6793985  65.0523682
  28.1465473  10.9881058  64.3989487  27.0959911  11.8355436  65.0839005
  22.3979950  33.5567856  68.7829514  22.7759247  32.9550362  69.4242783
  21.9259281  34.2021294  69.3091812  12.8977051  66.4159241  44.9434052
  12.2483950  65.7928009  44.6173058  13.7071905  65.9086761  45.0039215
  19.4619236  62.6975250  87.5471268  19.5510464  62.1565475  88.3317490
  18.5851517  63.0755157  87.6151352  33.6040802  57.9033775  28.4927063
  34.0681305  57.5330009  27.7419033  34.0921631  57.5901909  29.2542305
   3.7760203  21.9234333  34.1441154   3.4826937  21.5358925  34.9687386
   4.6637211  21.5863075  34.0234261  14.6512203  26.8874626  28.9866753
  14.6698732  27.8127460  29.2310829  15.1652508  26.4500465  29.6654015
  14.7754192  11.1358366  65.0746078  15.6093807  11.6053381  65.0921783
  14.4895458  11.1211367  65.9879990  20.4345131  69.7130737   7.0213203
  20.7164783  69.2304535   7.7983723  19.8987560  70.4280777   7.3647704
   6.5227199   8.2828522   4.7814002   7.2266145   8.9312773   4.7989950
   5.8333168   8.6628885   5.3259439  70.7889709   7.3182979   9.2306757
  71.6601105   7.1841111   9.6039715  70.1872177   7.0334482   9.9184103
  69.5876007  27.8320007  39.5672836  69.1602707  26.9900856  39.4098091
  70.5170822  27.6176395  39.6469154  42.7886810   1.0359125   4.3503575
  41.9941597   0.9768782   3.8198085  42.9670067   1.9743978   4.4110036
  21.7428837  59.0778542  87.8093414  21.4921513  58.4521370  87.1297531
  21.4799004  58.6593437  88.6290512  56.9875641  68.7489166  28.1346054
  56.6106911  69.4838638  28.6184006  57.6425819  68.3820038  28.7283726
  25.5037594  64.7051697   9.3232803  25.1294079  63.9120522   8.9398003
  25.3919926  64.5906830  10.2670135  80.8461456  35.1458359  39.4269142
  80.5586929  35.6272736  40.2026901  81.4602203  34.4934158  39.7638092
  37.7053146   9.3881817  59.4771461  37.0370827   9.0012331  60.0428085
  37.2717438   9.4909906  58.6299896  55.5811882   9.1549520  79.1798782
  55.4275360   8.7106695  78.3460693  54.7396355   9.1101751  79.6337738
  82.2245255  37.3316574   3.7358627  82.7918243  37.4318733   4.5002985
  81.8549118  38.2034607   3.5959613  19.4977093  15.8427382  70.4251251
  20.2109756  15.4616032  70.9372025  19.8539028  15.9219093  69.5402069
  66.3212662  47.2828598  26.4148693  65.8675232  47.4484787  27.2412605
  67.0774689  47.8693504  26.4351082  28.6781864  18.3479919  70.4592743
  29.4770851  18.4771271  70.9704666  28.3972244  17.4586372  70.6745529
  53.4572945  50.2035751   7.2637510  53.7731895  49.3021164   7.2019720
  52.5064659  50.1303520   7.1813054  83.1001129  31.5746269  76.2329178
  84.0192871  31.3314915  76.1223450  82.9219894  32.1738205  75.5080185
  84.7872314  63.1504364  79.5476990  84.3421249  63.9790039  79.3699951
  84.2298660  62.7122421  80.1907883  13.1052313   9.4734993  55.5865669
  13.2647295   9.7563257  56.4870110  13.5297871  10.1406412  55.0472069
  70.6998901  48.1254921  81.6008911  71.0843277  47.3532295  81.1861038
  69.7643204  47.9295349  81.6513214  32.1003380  47.6632843  34.4739037
  31.3282585  48.1857071  34.2566414  32.8033600  48.0447617  33.9481049
  86.9366913  51.0991020  66.6565399  86.5945740  51.8662148  66.1974869
  86.2431335  50.8585167  67.2708130  14.2274590  47.4478951   2.1572669
  13.4705658  46.8915253   1.9734327  14.8748789  47.1968956   1.4984194
  60.7366486  10.4547586   5.4016829  60.9751587  10.7303038   6.2867937
  59.8025970  10.6523457   5.3328471  21.5480537   2.7769220  58.9502220
  21.7774124   1.8581340  59.0897064  21.8508186   3.2221708  59.7416229
   5.8763037  65.0601196   3.6346328   5.2417984  65.2172165   4.3338857
   6.7289538  65.1538544   4.0594068  60.7268066   1.8480839  68.8774643
  61.1027336   0.9700410  68.8146133  60.2058716   1.8286860  69.6802597
  48.7644577  43.2740059  85.2355957  47.9736519  43.1690750  84.7065887
  48.4563255  43.2202835  86.1402512  61.5000610  34.5641556   2.8165896
  60.7722054  33.9443893   2.8650503  61.1251335  35.3421021   2.4037225
  86.0855865  49.9275398  63.0528755  85.2956009  50.4319344  63.2471428
  86.5376282  50.4393578  62.3821030  71.2402802  67.1021347  19.5558529
  71.7500000  67.9123306  19.5574322  71.1580048  66.8691254  20.4806061
  52.2506332  54.4110336  69.5868301  52.0717278  55.3048706  69.2947998
  52.9755745  54.5017014  70.2052765  33.8015900  32.8082809  15.8507996
  33.7694283  33.1954727  14.9759960  33.2504044  32.0282364  15.7878847
  26.2386246   4.7375593  56.1307144  25.3588238   4.3611937  56.1076393
  26.1556396   5.5060768  56.6952705   2.0316477  18.6586895   8.8911409
   2.0374405  18.9700356   9.7962713   1.4384249  17.9075298   8.9000311
  51.5044823  60.9181061  63.5633049  51.4855728  61.5704613  62.8630867
  52.4157104  60.6267128  63.5946350  64.0005188  28.2407799  72.2424698
  63.2659454  28.4154663  72.8307953  64.3999863  29.0983753  72.0969162
   2.4121051  33.1576462   8.3224945   1.5927668  33.1895790   8.8163528
   2.9546726  32.5293541   8.7990437  46.5836868  57.2907906  69.7308960
  47.0262260  57.8496437  70.3697128  45.9396439  56.8033791  70.2445831
  22.2035637   2.7185037  83.3611069  22.1772366   2.1476336  84.1289902
  22.1011677   2.1245627  82.6174774  77.5831299  55.3198853  70.9680710
  76.7935181  55.3572235  70.4283142  77.2924652  54.9263878  71.7908173
  19.4074879   5.6515927  19.1799297  18.8541622   5.2904844  19.8725071
  18.9528160   5.4264402  18.3682575  66.2712936  29.4479198  89.1708832
  65.4990921  29.2728214  89.7087250  65.9705048  30.0808048  88.5188065
  66.7788620  49.9388466  28.1779575  67.5062637  49.4092026  28.5044403
  67.0048294  50.8351936  28.4264126  71.3272095   6.8338819  48.1393776
  71.5304947   6.6378527  47.2247887  71.3978577   7.7864423  48.2015839
  53.6536751  48.7688637  49.6459961  54.1582947  48.5738068  48.8563499
  52.9678078  48.1013832  49.6629105  69.9084473  60.0599518  71.1217651
  69.0504532  59.7711754  70.8108215  70.4928513  59.9196777  70.3767624
  18.5522537  27.5757637  83.8545151  18.4067078  27.7383213  82.9225159
  18.3730259  28.4166927  84.2751617  48.5232697   5.1425467  46.8437233
  49.3070335   5.5541458  46.4796753  47.8573074   5.2535267  46.1651878
  59.3707275  13.9425802  88.6227875  59.7918701  13.8745117  87.7659073
  60.0086670  13.5729685  89.2332382  27.0521450   7.1321974  41.4390526
  26.8520393   7.5623355  40.6076851  26.9344292   6.1992078  41.2604332
  68.0035477  11.2305021  85.8447876  68.7065430  10.6172113  85.6305313
  68.1319962  11.4273987  86.7726669  66.1257019  42.6623230  36.9948502
  65.3094330  42.5997467  37.4908524  66.0208511  42.0335884  36.2807541
   6.6351595  27.1911812  82.6455994   7.3378191  26.9449711  82.0440369
   7.0182304  27.0873718  83.5166397  50.3916702   0.4896767  12.9586048
  49.8904610   1.2897568  13.1163816  49.7275352  -0.1867514  12.8259268
  33.3732300  25.5228367   8.4784527  33.2110329  24.8917961   7.7772317
  34.2749138  25.3520432   8.7505322  81.3773804  33.6493225  54.3243828
  81.7468338  33.8453217  55.1853828  81.4198532  34.4800644  53.8507767
  79.5987701  34.0306740  33.7187958  79.1755447  34.6635971  34.2989006
  78.9514236  33.3337517  33.6116905  22.7937145  46.3985176  44.0221558
  21.8782024  46.5023308  43.7627487  22.8078594  45.5884132  44.5318222
   7.7250099  21.8186607  77.7827988   6.8554583  21.4316921  77.8846207
   8.3261604  21.1424999  78.0952988  21.4186459  46.3524246  69.3927612
  21.0221100  45.6456413  68.8834000  21.2285233  46.1271629  70.3034439
  63.4390488  38.7811279  74.0431747  63.4257088  39.6339798  74.4775696
  63.6473808  38.9804688  73.1304398   4.1533251  68.6805496  76.7067642
   4.0487914  68.4337387  75.7878571   4.7191749  69.4522705  76.6846085
  -0.0174982  38.0167770  67.4273834   0.8901621  37.7781105  67.2391739
  -0.1399288  38.8582878  66.9879532  12.1987219  70.9586334  18.8595467
  11.7024708  70.2035065  19.1753807  12.0855131  71.6215363  19.5407047
  10.0662727  47.6067924  73.7851486   9.5122976  48.1156464  74.3771057
  10.2784424  46.8140488  74.2778625  43.0939636  53.8791046  13.9897852
  42.4334755  54.2739410  14.5590754  43.7097168  54.5892906  13.8089066
  50.0227928  14.6998539  28.0372734  49.6294975  14.4067116  27.2153130
  50.9633827  14.5755844  27.9104538  25.1756115   8.9720411  60.8132019
  26.1074257   9.1526070  60.6893120  24.7426815   9.4521885  60.1073227
  59.8333168  39.3741875  20.3901577  60.1404114  38.4708748  20.4672871
  59.7203751  39.5092545  19.4492893  70.6967163   2.8211675  14.0291471
  70.1724472   2.0567768  14.2680683  71.4174881   2.4644809  13.5100260
  69.1021576  54.1722374  44.1717987  69.5065536  53.7706795  43.4027443
  69.6556396  53.8992386  44.9034882  66.8852997  11.7998285  77.7737732
  66.7934113  11.4568396  78.6626740  66.0865631  12.3070660  77.6290054
  65.9212723  16.7829075  47.1162910  66.0774612  17.6747799  47.4267731
  65.2621841  16.4326458  47.7155838  19.6267262  12.7258425  87.4298325
  20.2826977  12.6045694  86.7433701  19.1816921  11.8803816  87.4878998
  31.5916252  67.9544296  23.9568710  30.7395096  67.6149216  23.6832581
  31.4896736  68.9058533  23.9317093  73.1734085  34.5983887   9.7819500
  72.8006744  35.2919960  10.3261995  73.6719742  35.0631256   9.1098795
   8.6155548  30.3629456  14.4019184   7.9177566  29.7090740  14.4438677
   8.9448586  30.4196873  15.2988968  81.8904800  22.1502304   5.4133449
  81.3636169  22.4669018   4.6796088  81.9216461  21.2010422   5.2937603
  33.3361816  28.5138073  78.7739258  33.0675888  29.2189827  78.1850128
  33.4360695  28.9383335  79.6259995  82.3598785  20.8163757  13.4205475
  81.9814072  21.0622978  12.5764427  82.0363541  19.9295216  13.5788317
  81.1212921  65.2952042  40.3944702  81.9181747  65.1505737  39.8842735
  81.4080582  65.8173676  41.1436996  84.9334259  19.8425217  79.1135254
  85.8015213  20.2271271  78.9922180  84.5248947  19.8960247  78.2495346
  84.1991959  11.4195814  34.1164818  84.8302841  11.8013906  33.5064087
  84.6810226  10.7150869  34.5497932  29.5831699  27.8844051  85.3915176
  29.0376663  27.9827938  84.6111526  30.2703876  27.2725239  85.1277695
  45.6971931  52.5959015  81.9864883  46.4308701  52.4027786  82.5701447
  45.3591881  51.7366257  81.7342453  70.5518875  20.3157825  51.2577515
  70.8121033  20.0951290  50.3634186  71.0227661  21.1264095  51.4511070
  61.4656143  48.3289604  83.0529404  61.8020592  48.2907677  83.9482498
  60.9266090  47.5427513  82.9658890   6.5989223  58.6863289  62.1533127
   6.3185349  57.8055153  61.9047432   7.5538764  58.6321983  62.1902542
  34.9821320   1.3507487  78.6266479  35.4625473   1.2206464  79.4442749
  35.5846024   1.8451506  78.0709229  57.7599106  44.3198128  75.4863358
  58.1782150  44.1343117  74.6455917  57.0788651  44.9596710  75.2789917
  63.0207405   9.6316500  19.9181690  63.1279259  10.4864426  20.3353901
  62.1571388   9.6722546  19.5073452  41.0558090  26.3419323  12.8608904
  41.6424332  27.0876446  12.7343235  40.9228363  25.9897289  11.9808321
  43.8410149  16.3311195  65.8470535  43.8098221  16.4665718  66.7941055
  43.7721786  15.3826036  65.7383728  75.2677841  15.7359772  15.4562140
  75.0336075  16.1732807  16.2748470  76.1932297  15.9449377  15.3292656
  51.2885666  11.9423018  25.8166790  51.4846764  12.8404846  26.0832100
  50.6523895  12.0363455  25.1076870  15.1650934  69.7475433  10.7877893
  14.8832712  70.1223068   9.9533091  15.6945372  70.4347458  11.1923466
  28.2167606  71.6635132  50.5960197  28.3312130  70.7312469  50.7804718
  28.4124737  71.7488403  49.6629372  56.8439636  22.6071320  63.3283501
  57.5426102  23.2516727  63.4410095  56.0643501  23.0345001  63.6830215
  35.7534142  70.3719254  78.8472672  35.0575790  70.4761810  79.4962463
  35.7094917  71.1688766  78.3188934  68.3624115  14.2030830  20.0704288
  69.1471252  13.7518187  20.3815880  67.7669678  13.4988699  19.8139839
  31.1321774   5.6215682  14.6516180  32.0455780   5.4143076  14.8490324
  31.1612587   6.0332556  13.7879629  75.5349045  51.9718628  82.3748093
  74.9618759  51.6302528  83.0612335  74.9678955  52.0530968  81.6079102
  71.1418533  55.5196228  16.5778713  70.5653305  55.7104950  15.8379917
  71.0031204  54.5894051  16.7558613  32.5205879   6.7368579   3.0403366
  31.5680714   6.6507020   3.0013812  32.8288651   6.3628778   2.2149045
  33.7533226  53.0416794  21.6621075  33.6924629  52.3268166  22.2957478
  33.0819740  53.6651611  21.9392166  31.8815174  16.8487701  78.3284378
  32.1776962  16.8695564  79.2384262  32.0790443  15.9601526  78.0325089
  27.1240578   7.8137412  62.9679298  26.4775696   7.7900929  63.6734276
  26.7789116   7.2139688  62.3065872  32.0378761   9.2556343   1.6269683
  31.5604343   8.6108150   2.1489727  32.3830261   8.7564106   0.8867795
  69.0469589  24.9535694  40.9052010  68.7923813  24.5797329  41.7488060
  69.9550400  24.6759968  40.7844658  41.3804131  67.0351105  72.0227966
  41.1711464  67.9665833  72.0920410  41.7429886  66.8068085  72.8787460
  66.4303284  65.4296646  22.9681263  67.0394135  64.6965714  23.0565681
  66.8955765  66.0630188  22.4216423  40.3215828  12.3794842  79.5790405
  39.5393944  12.0302114  79.1519394  40.2879944  12.0247288  80.4674454
  16.6003914  45.8482933  15.3206015  15.8876057  46.4434128  15.0882177
  16.1601982  45.0585403  15.6348457  54.2260857  59.1115723  21.7762661
  55.0202065  59.3982849  22.2272644  54.0573463  58.2351646  22.1221962
  67.1449814  36.8571167  50.2694092  66.2790985  36.9234467  50.6719933
  67.3734665  37.7586098  50.0428276  53.9647636   3.1937315  68.6158142
  53.3026123   3.5943241  69.1791229  54.3896446   3.9336948  68.1820374
  14.1229210   7.5919709  58.1957054  13.7703781   7.8830876  59.0366554
  14.6523428   8.3285303  57.8900490  11.3596334  43.0237083  39.4247971
  11.0576458  42.3501511  38.8154106  10.5952749  43.5835686  39.5609856
  15.5026608   9.4978266  13.9288807  14.8837175   9.4573994  14.6579256
  15.9196043   8.6362457  13.9206123  54.2518425  50.8550301  26.6238441
  54.1879921  50.8752441  27.5786972  54.1949959  51.7735367  26.3604984
  58.1961861   9.9744596  79.0017929  57.9707527  10.5552797  78.2751160
  57.3519630   9.6852379  79.3480072  11.2824087  38.1800842  77.6408234
  12.0216103  37.7633896  78.0837402  10.8795834  37.4758072  77.1329269
   6.8103032  22.8432159   1.5821609   6.1427469  22.9580040   2.2584927
   7.6243620  22.7135086   2.0686946  37.9725533   7.5099535  53.5026131
  38.7905121   7.3747768  53.9810448  37.4199867   6.7717962  53.7595673
  71.9534454   4.2506046  60.3467751  71.3695221   4.5106010  59.6342697
  72.6413498   4.9162064  60.3476639  27.1396885  31.9009266   8.9041786
  26.2825260  31.4793243   8.8428984  26.9436264  32.8367310   8.9495659
  13.0135202  33.9142761  50.1459541  12.9725809  34.4038773  50.9674416
  13.8581066  34.1552200  49.7653618  59.2148972  62.0873909  71.1345749
  58.5934296  61.5696373  71.6463699  60.0426216  62.0047989  71.6081696
  36.8014984  57.0750351  68.5883865  37.7357941  57.1307793  68.7889328
  36.7467880  57.2554550  67.6499405  39.8501282  65.6930771  32.8343620
  40.5360451  65.8932266  32.1974258  40.3112411  65.2673187  33.5570869
  82.8454132  46.3776360  77.4935684  81.9530563  46.6827393  77.6574020
  83.3529358  47.1791153  77.3659744  70.1924286   1.6802992  10.5117865
  69.2408218   1.7635598  10.5729647  70.3708038   1.6562023   9.5716610
  34.4278831  22.8860664  27.1820869  35.3245964  23.0297909  26.8796310
  34.2860069  23.5647793  27.8419743  19.8240185  38.2072029  27.1979580
  19.9708481  38.6244049  28.0468502  20.1524868  38.8405342  26.5598125
  85.3008041  -0.0149341  74.0246353  85.0503769   0.0105276  74.9481430
  84.6529388   0.5361173  73.5855026  82.9913559   3.5849328  74.0549164
  83.7256241   4.1737947  73.8807907  82.2178955   4.1471567  74.0113068
  13.2907562   1.1663564  57.6455841  14.2096224   0.9511338  57.8055725
  13.3196878   1.9751276  57.1344223   5.3167224  37.0841713  61.1163979
   5.7994437  37.9016876  60.9943962   4.4105563  37.3069916  60.9032173
  79.9314804  15.7659798  47.5067253  80.5586777  15.1325998  47.1578903
  80.0380249  15.7104349  48.4563560  57.2054977  68.6387177  81.6525269
  57.9988937  69.0832214  81.9511414  57.4121056  67.7067490  81.7231140
  71.1093140  25.0449924  59.6245613  70.4711075  25.6864243  59.3123283
  71.9086533  25.5520458  59.7666168  62.0853653  11.5874577  58.9561310
  62.3596115  12.4839792  58.7630806  61.5855675  11.6597223  59.7692833
  22.5676727  49.1349297  88.4771500  23.3339386  48.6704407  88.1405258
  21.9359303  49.1071014  87.7585678  60.8083611  59.9994926  72.6267929
  61.0826645  60.6739006  73.2482147  60.5460014  59.2604942  73.1756821
  61.0936279  45.5972366  78.9659729  61.6542244  45.4975624  79.7354050
  61.6163139  45.2515678  78.2424088  17.8901978  14.4199076  65.5325699
  18.8347683  14.4998703  65.6653290  17.5046616  14.7839251  66.3294907
  54.9308968  11.8842430  46.6450462  54.5277901  11.7409592  45.7887688
  54.9420738  12.8357925  46.7482986  66.1461029   5.5182185  26.0598888
  65.8323135   6.2969341  25.6001415  65.4737701   4.8566709  25.8969212
  12.5929422  18.9574966  67.7119141  13.4008789  19.4491653  67.5644913
  12.1495571  18.9654617  66.8636322  71.2883835  14.4716635  58.0966568
  71.2878647  13.5427408  57.8657150  70.5375977  14.5734539  58.6816292
  33.2800255   1.2105755  56.2963676  33.6144905   1.1407235  55.4022255
  33.0271683   0.3169081  56.5279999  32.6164093  52.7312012  52.0974922
  32.3358383  52.6023750  51.1914482  31.8764820  52.4268188  52.6229362
   2.6770782  19.1126995  23.7685204   2.2235830  19.6585560  24.4108715
   3.5099814  19.5601978  23.6193600  13.9617786   5.9747028  19.6998711
  13.4739876   6.7949839  19.7735634  14.5868864   6.0018649  20.4242573
  58.6581764   7.2389731  28.7707691  58.6936989   6.6965089  29.5586166
  58.9422531   8.1049910  29.0632534  58.7234116  16.6324100  79.7411880
  59.5906105  16.2405205  79.6381531  58.7254753  17.3793678  79.1426239
  20.5244751  61.0158081  56.6188774  21.3367634  60.5774841  56.8724365
  20.5850353  61.1006584  55.6673737  20.9033012  63.1970711  36.5965195
  20.4185314  62.3811607  36.7211075  21.7350712  63.0527611  37.0477028
  59.1490936  25.0027122  77.9116287  58.7146873  24.5999870  78.6635132
  59.1343231  24.3254108  77.2354050  16.3352413   9.8915377   9.9814034
  16.8231010  10.4301138  10.6044292  16.2485905  10.4434624   9.2041636
   7.2246342  61.2666779  77.9669266   8.1084356  60.9938622  78.2132950
   7.0513406  62.0358162  78.5097122  44.2508354  60.1183434  28.0767117
  44.0398445  59.4742203  27.4008274  43.6764526  59.8941536  28.8088703
  62.2019577  41.4289017  23.7511253  62.8708572  41.7075882  24.3765373
  62.3512154  40.4895554  23.6434879  65.6910553  11.9956293  70.5589523
  65.9140625  12.9263334  70.5420074  66.5144043  11.5558710  70.7709274
  14.2597322  67.6088257  62.2215233  14.9933109  68.2136841  62.1108665
  13.9220495  67.4772644  61.3355827   1.7852435  64.3103485  51.4052162
   2.0437157  65.0376434  51.9713097   2.3809721  64.3650208  50.6579895
  13.4017200  52.7514687  72.4180908  12.5556192  52.3039398  72.4101181
  13.2254515  53.6040878  72.0203476  57.0751648  34.1929703  25.4385452
  57.8285065  34.7528000  25.2506466  57.3500481  33.3197365  25.1590214
   8.9100380  39.4439468  77.4559937   8.1640415  38.9464912  77.7910385
   9.6652088  39.0874138  77.9237900  86.3085861  21.9078960  63.5999641
  86.9149170  21.4561348  64.1869049  86.5299149  21.5799999  62.7283401
  58.9592247  46.8320084  70.2150803  58.1419601  47.1152344  70.6250763
  58.7625961  45.9635429  69.8638916  59.9961319  64.5318069  59.5901375
  60.8119850  64.0323868  59.5555916  59.8160172  64.7597198  58.6780815
  63.8535690  51.5280952  61.8550301  64.3387756  51.8677635  61.1030807
  63.0973587  52.1095123  61.9345970  45.4078865  62.8460312   4.5464287
  45.8013268  63.7042847   4.7040372  44.4725342  63.0253105   4.4504862
  29.4563751  53.3634567  26.6733456  29.3163643  52.4906006  26.3062649
  28.5748386  53.6990814  26.8360786  23.9841881  70.7947540  39.5878639
  23.9334869  70.1218872  40.2667732  24.7358513  71.3317719  39.8385506
  10.1075926  29.9047241  34.7873001   9.5293713  30.0871601  34.0466156
  10.7095566  29.2353477  34.4620209  66.5330429  14.2410593  80.2350769
  66.4489288  14.7078314  81.0665054  66.0879135  13.4066257  80.3827515
  31.5453968  64.2917252  86.6398163  31.7953529  64.5397339  85.7497330
  31.2530518  65.1091385  87.0430450   3.5281909  29.0403366  15.8907738
   3.4412410  28.0895290  15.9588604   4.4505901  29.1818504  15.6777372
  54.8789368  69.0106506  39.7731667  55.4676514  69.6157684  40.2242432
  54.4480782  68.5260773  40.4772873  83.3578949  63.6446724  17.5223274
  83.3098526  64.4284821  18.0696545  83.1929092  62.9204597  18.1260910
  62.4560432  28.8767452  47.0188599  61.7533646  28.3724995  46.6087227
  62.4209137  28.6288986  47.9427490  72.5618057  71.4672241  79.3442917
  73.1426315  71.3437424  80.0950394  73.1161270  71.2987289  78.5823441
  53.8709946  63.5611000   9.5345001  53.5244827  63.5486832  10.4266930
  54.1821480  64.4578323   9.4108658   3.6043589   1.4854348  66.7584686
   4.1271625   1.0263005  67.4158173   4.2171860   2.0960424  66.3487930
  53.4876595  28.8311691  22.4368095  53.0947571  28.2042789  23.0441551
  53.7267342  28.3066769  21.6726227  84.8596039  55.6411438  73.2961807
  85.3918076  56.4229965  73.1488647  85.4602814  54.9109459  73.1470718
  44.8057251  54.2292519   9.8467169  45.4147339  54.9662933   9.8926458
  44.4851532  54.2392807   8.9448500  21.5833416  13.6712732  80.3453217
  22.1841660  13.3481274  79.6738968  21.4656982  14.5977755  80.1355972
  62.2084503  37.1371002  63.4291191  61.3863907  37.5622368  63.1847610
  62.7085114  37.8209076  63.8747406   4.5325723  54.0359955  43.5208740
   5.1564660  53.3101158  43.5300407   4.3512092  54.2076225  44.4449348
  32.0489502   9.0592337  67.9447479  31.5712090   9.5889730  68.5830002
  31.4056873   8.8690615  67.2619019  21.6594887  42.8314171  58.0206261
  20.7936878  42.7562294  57.6194191  21.7997055  43.7737885  58.1128616
  43.3727951  65.9464188   9.1136246  42.8968658  66.6460953   9.5610342
  44.2879524  66.2259674   9.1375265  50.5021477   7.6400442  40.2053528
  51.1351662   7.9861379  39.5762749  50.9192238   7.7644024  41.0578880
  60.1712341  18.4424953  43.0464630  60.1200523  18.3983154  44.0012741
  60.1134758  17.5306625  42.7610626  17.1100197  15.3639450   6.8150434
  17.3520107  14.8145008   6.0695353  17.7208080  16.1000290   6.7783294
  35.0722542  51.1684036  80.4865570  35.2320480  51.4973602  81.3711395
  34.1361923  50.9690018  80.4706268  20.4195461  46.5237694   3.3294356
  19.5349236  46.5262375   2.9638286  20.4678364  45.7119026   3.8341830
  24.2608490  64.5206451  37.9188843  23.9595089  65.2363739  37.3592873
  23.8453350  63.7396240  37.5533829  39.4035645  21.2991467  77.1243896
  38.9314537  21.1454563  76.3060226  39.3073463  22.2380772  77.2837067
  59.6666603  30.9650993  54.6613159  59.1068840  30.1956482  54.5572624
  59.5428238  31.2298870  55.5727882  40.2473183  67.3890305  29.3010654
  39.5323334  67.7774200  29.8052292  40.4747429  68.0569992  28.6542816
  38.5085106   9.6420250  74.5286713  38.4415054  10.5057030  74.1214828
  37.7310181   9.1732607  74.2253647  72.7420959  55.6182213  87.5361710
  73.0666656  56.4652710  87.2305756  73.4573746  55.0083199  87.3555603
  70.5982590  22.5425949   6.7828217  69.7239304  22.5498962   6.3932986
  70.6695175  21.6817799   7.1953135   4.5875506  14.4028845  23.9879780
   3.9072871  14.8756952  24.4674797   4.1101756  13.7488041  23.4775620
  86.3241806  14.2776585   3.5449812  86.0889435  15.1884050   3.3676813
  86.7754822  13.9881353   2.7520556  25.3768616  50.4454842  40.4629898
  24.5199776  50.8471222  40.6067657  25.3354626  49.6159935  40.9388695
  34.6551857  21.6043568  22.8304958  35.1055031  21.1727352  23.5565472
  34.7279358  20.9870071  22.1026096  40.5670242  17.0699844   0.5483748
  39.7795715  16.5463696   0.4001121  40.8236427  17.3689117  -0.3239894
  35.4525795  51.6343956   8.7539034  34.6309547  51.4102478   9.1908474
  35.8293037  52.3291092   9.2939825  74.5937271  37.9881134   9.2524672
  73.8202438  38.1177254   8.7036839  75.0771942  38.8113365   9.1832323
  47.1463356   4.9755807  59.0601883  47.8468323   4.3879118  59.3433456
  46.9228058   4.6748481  58.1793747  15.8908682  10.4281206  82.2172623
  16.6469116   9.8775024  82.0136719  15.8040323  11.0056629  81.4588852
  53.1743546  26.6404305  13.8994493  52.4674492  26.7741089  13.2680635
  53.5416145  25.7866268  13.6705999  70.5417099  52.1474075  34.4636154
  70.9589386  52.7830353  35.0451088  69.6401367  52.4572220  34.3775826
  18.7097816  65.5932693  88.9911804  18.3974609  65.2603531  88.1498337
  18.6682854  66.5454330  88.9023056  75.2304611  22.6877422  36.9109344
  74.3969574  23.0821400  36.6541252  75.0847931  22.3814201  37.8060188
  70.3481522  14.3051510  48.2345772  71.2063217  14.1393137  47.8443489
  70.5282211  14.4254122  49.1669655  41.9625435  12.9255142  14.2046633
  41.4209671  12.4395151  13.5827847  41.3557663  13.5341606  14.6260881
  57.0721626  56.7888412  54.2682228  57.1849098  56.8745232  53.3215523
  56.6666565  57.6132812  54.5367241  49.4218597   1.1903868  32.9612236
  49.2414360   1.7874800  33.6872787  49.3890343   0.3183165  33.3544769
   7.4595270  38.3321075  38.0350990   7.2731891  38.9209900  38.7663460
   6.8235326  38.5764351  37.3627548   5.5672679  50.7537956  39.8305664
   6.4847498  51.0196495  39.7690964   5.3246927  50.9383812  40.7379341
  47.7240448   7.7935629  45.4015274  47.0339088   7.9271855  46.0512123
  47.4272308   7.0423841  44.8878517   3.7083120  12.9039383  43.4639397
   2.7769341  12.7405014  43.3154297   3.8995185  13.6866350  42.9471626
  75.9441528  24.3114204   2.0126808  75.7285919  24.6318283   1.1368364
  75.4410782  24.8720169   2.6033392  44.7638969   3.3300197  35.9580383
  43.8255806   3.2191911  36.1113663  45.1817245   2.7975414  36.6348839
  67.0025253  29.7916698  48.1814690  67.2509308  30.5364265  48.7290649
  67.3883896  29.9835644  47.3267670   9.5370884   5.1796694  58.1547737
  10.1434841   4.5977263  57.6966705   9.9104767   5.2727761  59.0312119
  43.5565147  50.2793579  73.3292618  43.1439705  49.4588203  73.0595245
  44.4723129  50.1843719  73.0674896  85.8505936  41.7651443  76.7533035
  86.1571579  41.9336090  77.6443024  86.1151733  40.8625603  76.5756226
  27.6115360  56.6532516  83.2293243  28.1800385  57.3901024  83.4531250
  27.2318687  56.3812714  84.0648575  68.5039062  41.4071465  43.1316681
  68.9803696  41.7562141  43.8849106  67.5935516  41.3621597  43.4239922
  23.0886421  27.2483845  81.3439407  23.3180752  26.3982391  81.7192383
  22.8955688  27.0604801  80.4254379  73.4809036  17.2355556  25.8111897
  74.1579819  16.5736275  25.9513378  72.7921448  17.0097580  26.4363823
  81.1123352  12.7485380  62.5085182  80.6243134  12.5232687  63.3005562
  81.1985550  11.9202309  62.0366020  54.9616318  65.2788849  68.6057663
  55.4744110  65.5204620  67.8344574  54.7104568  66.1151505  68.9979477
  57.5634995  42.7759399  21.1442184  58.4399109  42.4189453  21.2880630
  57.0584488  42.0394249  20.7996883  63.7038040   9.7792854  39.7975693
  63.6959648  10.2622652  40.6239471  64.0760651  10.3934298  39.1647339
  47.0523567  65.9920578  28.1819000  46.4513397  65.4105453  27.7162266
  46.6653404  66.0895920  29.0519199  33.7809258  28.4612732   8.2205496
  33.4380951  27.5682068   8.1869059  34.6395874  28.4041519   7.8014259
  22.0227928  45.2884979   8.3171272  21.2034950  45.7770958   8.2380199
  22.6092472  45.6998711   7.6822453  45.1789093  22.0549870   7.2199831
  44.8507576  21.2536221   7.6278563  45.4459038  21.7845898   6.3414440
  40.3332443  53.5636711  44.6794357  39.9415092  54.4129410  44.8832016
  40.4506531  53.5757866  43.7295418  23.0007362  42.4503746  30.0089855
  23.3063507  43.3551064  30.0745201  22.8174324  42.3263512  29.0777225
  11.2184954  31.0259476  22.5112286  11.0181246  30.0904655  22.4802589
  10.3642492  31.4554729  22.4664669  30.6325493  64.4761047  66.8933487
  31.1848621  65.0280304  67.4470291  30.1959190  63.8836670  67.5054016
   8.9590769  40.2445374  72.2800598   8.5729151  40.4518890  73.1310120
   9.8885450  40.1101761  72.4651794  36.0818481  64.6622925  87.4604721
  36.2557602  64.8236084  86.5331268  36.5688019  63.8627129  87.6599274
  84.4264832   2.2872245   3.4074156  84.1433563   3.1984677   3.3318849
  83.8242493   1.9012341   4.0434613  11.9127245  56.9872551  30.5848713
  11.0116644  57.2644043  30.7507401  12.3158083  56.9513931  31.4523220
  29.1924152  63.1821785  29.8574238  29.9667892  63.5818863  30.2534180
  29.1763153  62.2918739  30.2086124  77.2254944  20.7906075  57.7794228
  76.8523026  21.1085835  56.9573212  76.9295425  21.4207401  58.4363670
  53.8317833   8.7688570  58.4845924  53.0986404   8.4818048  59.0289574
  54.3792648   7.9894304  58.3897781  30.5004215  22.5942993   3.0643029
  31.4026375  22.8603230   2.8869085  30.3530064  21.8464031   2.4853799
  14.1280651  40.0986824  56.4211960  13.5483389  39.8361588  55.7061920
  14.9279032  40.3928146  55.9853325  22.2700748  61.2729378  53.8965874
  22.5876026  61.4860649  53.0191002  22.8114967  61.8021164  54.4823074
  85.3415298  22.7071266  50.7894936  86.0248718  22.8148823  50.1279335
  84.5270004  22.6677456  50.2882767  70.6979904   7.5847778  27.5347500
  70.0574570   7.9035616  26.8988838  70.3685150   6.7249169  27.7961178
  68.0258865  34.9672661  80.0246887  68.0081329  34.2395744  80.6462860
  67.1446915  35.3388290  80.0656738  61.8467903   1.1993923  14.0209322
  62.7786789   1.1635022  14.2366371  61.7732391   0.7195036  13.1959906
  74.7892838  29.4616261  72.1957169  75.1012421  30.1939392  71.6640854
  74.2805328  28.9244156  71.5884247  86.7797852   9.7794390  52.8418999
  86.8073349  10.4206324  52.1317253  86.2178802  10.1804457  53.5049858
  58.4321251  56.3352852  66.4391556  58.6040611  56.2443848  67.3763962
  57.4774399  56.3464737  66.3707657  57.2040176   7.4894719   9.6072845
  57.3682785   6.5481820   9.5505056  56.7168922   7.6961403   8.8096447
  34.9937134   6.3430195  30.4367142  34.3712158   6.2215266  31.1536331
  35.1913147   5.4553270  30.1380711  67.9666443  47.9240875  81.5401230
  67.4550095  47.1555252  81.7926407  67.3440170  48.4848404  81.0773926
  44.2893448   7.9183993  83.8644257  43.6555748   7.3900757  84.3496475
  45.1422997   7.5860462  84.1441422  22.4857063  60.1540375   8.6674910
  22.5749626  60.8478966   9.3208113  21.5458031  60.1099586   8.4917965
  19.2665138   5.9094148  69.4932022  18.7577076   6.0537496  70.2910233
  19.9027576   6.6244726  69.4822388   6.7617431  45.8685341  54.1316528
   6.5972099  46.5937576  54.7343216   7.5123453  45.4094620  54.5085907
  10.3889914  68.9814072  11.0147228  11.0586567  68.7035599  10.3897572
  10.0932684  68.1691284  11.4258041  42.0535088  62.1410980   1.4423366
  42.7999916  62.5836716   1.8462275  41.2968445  62.4380379   1.9478194
   5.4317856  16.3669262  45.2338753   5.9809389  15.6182671  45.4666214
   6.0410681  17.0042267  44.8612442  80.6664124  29.3568249  20.5637474
  79.7399216  29.5833282  20.6445923  80.8557053  29.4520893  19.6302986
  31.7718315  69.2684555  45.6434822  31.8040867  69.7301941  46.4813309
  32.6605492  68.9353333  45.5192223  45.0012550  69.8974533  24.8957615
  44.1298485  70.2806778  24.7956429  45.2724533  69.6827087  24.0032558
  45.8126717  50.1757240  71.7260284  45.1378517  49.8788185  71.1155396
  46.3884392  49.4186172  71.8333359  56.9834404   8.6298876  44.2611465
  56.5178909   8.8100052  45.0778770  57.8941917   8.8562059  44.4496727
  17.9490471  66.4116745  84.3250732  18.6042137  67.1056900  84.2520828
  18.1855068  65.7860947  83.6402588  39.4897728  56.9279709   5.7210550
  39.1277962  56.6566315   6.5646081  39.9814491  56.1658173   5.4151006
  79.6807938  18.0478954  71.8583984  79.0342331  17.9343452  71.1617661
  79.1595840  18.1465588  72.6551666  83.0542679  35.6702385  42.7565002
  82.8651810  36.2364693  43.5047417  82.2663193  35.1363182  42.6550217
  11.0346060  47.3440094  29.1618481  11.3889809  47.7582283  28.3750362
  11.4850378  47.7796326  29.8854332  10.9419107   9.7267656  64.9430008
  10.2512093  10.0524836  65.5201263  10.4917736   9.5192966  64.1241226
  46.3756790   4.6931381  78.1884689  46.6814346   4.2822199  77.3798370
  47.1361961   5.1737838  78.5153046  57.0798912  33.3597641  84.2978210
  56.1842194  33.0763855  84.4813843  57.3602104  33.8018875  85.0991898
  40.3738823  41.4873009  82.4633636  40.6723671  40.6012344  82.2583771
  40.2956543  41.9167595  81.6114960  46.7899284  61.5578423  31.2466145
  46.0818596  61.2531319  31.8140850  47.1854782  62.2853088  31.7267857
  73.8106613  12.6290474  54.1785164  74.7535248  12.4640446  54.1816597
  73.7011719  13.4033499  54.7305107  86.3107834  55.3943329   3.3843589
  87.2235947  55.4939003   3.6547236  86.3585052  55.1905251   2.4503269
  37.9439888  60.4489975  58.2775764  37.6676178  59.9669762  57.4981499
  38.1498871  59.7691383  58.9191589  80.7650833  15.4913092  32.2162437
  80.5536346  14.5802498  32.4199409  80.0070648  15.8092146  31.7257595
  35.8832283   1.4800318   5.5333219  35.8857155   1.4516007   6.4900961
  35.7476234   0.5706731   5.2670341  25.7236252  64.1360474  27.5881519
  25.7385082  63.9984055  28.5352879  24.8355522  64.4424057  27.4045734
  81.8658600  48.8951187   5.2505207  82.3797302  49.6413040   5.5593548
  82.5191116  48.2445068   4.9932108  82.4701920  10.0696611  73.9210358
  81.6249313  10.4503365  73.6825867  83.1165771  10.6719227  73.5526657
  55.3147850  60.2395363  11.6705570  55.8446350  60.9961739  11.9215384
  54.7958717  60.0413361  12.4500942  72.7648773  27.3956680  29.8775749
  73.6504135  27.1441612  30.1398697  72.8543472  27.6705780  28.9650764
  74.1434631   6.5012794  60.5278549  73.5015717   6.9456067  61.0817337
  74.3811493   7.1520281  59.8673515  24.3209057  48.3138237   4.1887765
  24.7978802  49.1114349   3.9595633  24.9486217  47.6073456   4.0368128
  26.4577007   3.3375022  47.5124512  26.9066601   4.1121836  47.8508835
  26.9562817   3.0932579  46.7327118  78.2348175  10.4104166  77.4848938
  78.6665726   9.6753149  77.0496368  78.9534302  10.9379377  77.8335266
  79.8094406  39.4487724  23.2093430  80.2531433  39.3489761  24.0516033
  79.8667603  40.3848724  23.0178661  51.5348549  50.5707817  32.2274551
  52.3013229  51.0299873  31.8841057  50.8658485  50.6832657  31.5521717
  82.0312805  57.0448456  51.6890793  82.6135712  57.5611305  52.2464104
  82.3264847  57.2301941  50.7975998   1.4919859  36.5586052  20.2995319
   0.5487626  36.7160797  20.3415184   1.8648448  37.4033203  20.0472183
  37.8953400  19.1230946   2.2500117  37.8596001  18.3698559   1.6604456
  37.8812485  19.8832798   1.6685052   7.3463545  19.1845398  67.9475937
   7.7243404  18.4646492  68.4526825   7.2860465  19.9085789  68.5707855
  64.6267624  65.7843094  24.9781437  64.8597260  65.1752701  25.6788807
  65.1807938  65.5254135  24.2417660   5.4498801  22.4973469  67.4991150
   5.9981174  23.2713299  67.6280289   5.1163020  22.5861263  66.6063232
  60.6560326  39.0901146  38.0917664  60.2517586  39.4572296  37.3056221
  61.5949020  39.1009941  37.9056587  24.6194000  54.8047066  83.6773987
  25.2607651  54.2398300  83.2463608  24.1348419  55.2094116  82.9579239
  32.6223869   2.1578102   6.6900082  31.8966351   2.3995407   7.2654080
  32.4192543   1.2651931   6.4103584  70.3060837  37.2637672  77.2697296
  70.9153671  36.7731667  76.7180786  70.2536163  38.1270638  76.8596191
  56.2861862  55.5464058  74.7191086  56.6579514  55.4758873  73.8398743
  55.4843369  55.0249252  74.6826401  28.7179966  38.0096397   5.8047447
  28.2802372  37.3654480   6.3611779  29.4183083  38.3633041   6.3531203
  57.6071434  46.4030685   8.8894033  57.4222221  46.6954079   9.7819118
  58.0138321  45.5434380   8.9983644  85.9520950   9.8399534  81.9428482
  86.2478180  10.6422777  82.3730316  86.5776367   9.1725121  82.2247314
  41.2640076  40.5980644  73.7207260  41.2550011  40.0657120  72.9252701
  40.3806534  40.5090752  74.0784988  82.9570770  69.4585571  84.2960587
  82.3112335  69.2398453  84.9678345  83.0590057  68.6523056  83.7902908
  81.7757492   9.6593218  80.1328659  82.1814423   9.7880697  80.9902267
  81.5370560  10.5407925  79.8460388  85.8881378  37.0172272  59.1969757
  84.9614105  36.8935738  59.4022064  86.3171616  36.2362442  59.5465927
  65.2921753  53.9707031  16.7404385  65.9941025  54.4947548  17.1263142
  65.0790863  53.3235703  17.4127827  63.0152588  18.8017635  57.3545303
  63.4528160  19.5987358  57.6538811  62.2069855  19.1113853  56.9457932
  79.9913406  70.8387833  66.3714371  80.7460861  71.0743179  65.8318787
  79.6935577  70.0020218  66.0145340  24.8261127  39.6768112  11.9003172
  24.6190720  38.9720535  12.5140638  24.6328087  40.4799805  12.3838329
  43.4650650  14.1686869   6.8315911  43.1295509  13.7059641   6.0637689
  44.4168396  14.1306486   6.7372060  41.3407707  55.3636513  22.9611988
  41.9322205  54.6472397  22.7306042  40.5429382  54.9283295  23.2615185
  86.4017868  32.6498032  20.3467045  86.4208984  31.7203636  20.1186504
  85.5224304  32.7924728  20.6968555  78.9054489   8.7159872  16.2316170
  79.1160507   8.5008240  15.3230019  78.8719025   7.8692131  16.6766796
   7.4666705   7.8792634  11.2777033   7.0070662   7.5285172  10.5148315
   6.8120613   7.8718143  11.9760313  31.8530293  23.3269043  23.8436050
  32.7473412  23.5896626  24.0613060  31.9481792  22.7717991  23.0696297
  58.0806503  40.7568054  15.2292976  57.8106194  39.9565620  14.7788305
  58.4203033  40.4545326  16.0716152   2.8207877  71.2567444  47.0011024
   3.3429196  71.2104340  46.2001877   3.0642762  70.4715881  47.4914856
  47.7519875  55.7096138  44.9684258  47.9629860  54.8072586  44.7287025
  47.3372803  55.6383095  45.8281708  18.8900223  38.0187836  31.5638847
  18.0822792  38.2260971  32.0337830  19.5200844  38.6703835  31.8715687
  82.7721634  35.4097672  52.2368660  83.3076630  36.1989975  52.3180084
  81.8709488  35.7227325  52.3149986  49.6921768  36.7651253  15.6939621
  50.3508148  37.1258392  15.1004009  50.1659317  36.6087570  16.5108700
  53.2658768  13.0184174  19.5410366  52.4179459  12.6035213  19.3825989
  53.1433334  13.5117006  20.3521385   8.3909302  29.3104820   0.8680179
   7.6923299  29.8731308   0.5339298   9.0564528  29.9194336   1.1881543
  37.7401009  70.3668900  11.7127695  36.8625946  69.9854355  11.7392302
  37.8027992  70.7633972  10.8438158  65.9361877  67.7436523  64.4662323
  65.6506119  68.0333252  65.3327026  65.2682114  67.1155243  64.1914825
   2.4200177   0.6596004  43.7520752   2.6193061   0.5933722  42.8181992
   2.9852951   0.0064651  44.1645164  46.2345238   5.2441502  13.8488407
  47.1497002   5.4137039  14.0723057  45.7477493   5.4776974  14.6392431
   2.0287735  64.0515060  12.9615822   1.7261081  64.9582062  13.0117435
   2.8693337  64.0539093  13.4194956  36.1618843   1.1150770   8.2509327
  37.0776558   0.8668177   8.3772907  35.7565384   0.9792198   9.1073599
  47.6156883  35.0427437  73.7578583  46.9822845  35.3942566  74.3835297
  47.6754761  35.7118912  73.0760193   2.9917841  21.1871071  57.5038719
   2.4081261  21.5092144  58.1907654   3.7883935  20.9294357  57.9678230
   3.7954302  28.3465977  68.4531631   4.2296162  28.4759636  67.6099625
   2.9591553  28.8037949  68.3645782  85.5797195  16.4437389  26.3623943
  86.5300522  16.5175838  26.2749577  85.4121094  15.5013390  26.3667812
  32.0734177  18.2609463  19.6742611  31.8996887  17.3203182  19.6386509
  32.8517380  18.3815212  19.1302891  66.1592865  23.6754704  62.5168076
  65.9639664  24.2494831  63.2574768  65.4405289  23.8242836  61.9024124
   4.8646679   7.8222156  52.8749313   4.4609084   6.9675322  53.0256844
   4.2230544   8.4516325  53.2041664  50.4892006  56.3085480  72.3447876
  50.2779465  57.1390038  72.7713394  50.7408066  56.5538216  71.4544067
  80.9588623  59.1165581  85.2755432  81.2078857  58.2399445  85.5683975
  81.3653030  59.7058334  85.9109879   5.0880857  16.5366535   0.8402810
   5.1515589  17.4789772   0.6846266   5.8173075  16.3414555   1.4288092
  35.7639084  71.1569443  44.7981415  35.0749931  70.9356308  44.1715279
  36.4769249  71.4994507  44.2591324   2.6111484  58.8097878  74.6626053
   2.4943788  59.3271713  75.4594116   2.1462831  57.9916382  74.8379974
  66.0403061  47.9072495  34.4517746  65.5621185  47.6284065  33.6708679
  66.9546204  47.6987991  34.2599068  50.0372276   8.4659624  15.9245596
  50.9756203   8.4102507  15.7441454  49.6220856   8.3607035  15.0685167
  62.1691017  68.5158691  29.7101326  62.6157379  67.7329865  30.0323849
  61.9760323  68.3210754  28.7930660   6.2131948  31.1804848  23.3618736
   5.5013552  31.7709827  23.6085091   6.6203346  30.9359264  24.1929340
   5.4645386  15.0326014  42.3556557   5.4303665  15.8342104  42.8776627
   6.3769870  14.7488670  42.4119072  41.3689880   2.2185161  46.8778877
  40.9944916   2.8003612  46.2164955  42.2654648   2.0633647  46.5804214
  27.8316689  56.9362984  52.0520706  27.6750507  56.0583916  51.7042389
  28.7850304  57.0102615  52.0952301  15.0391531  49.0362625  32.2975044
  15.6176748  48.5623589  32.8949623  14.8794813  49.8737373  32.7326736
  28.3393135  55.2898331  81.1533813  28.8817253  55.9651222  80.7459488
  27.9680443  55.7149773  81.9264526  27.6982021  71.7351990  39.3641930
  27.5838680  70.7877274  39.4381065  28.6418705  71.8549728  39.2575226
  79.5880051   5.8663116   5.8847332  80.2151718   6.5532985   5.6590385
  78.7324066   6.2886786   5.8086023   6.4719062  55.0864487  23.1413155
   5.6361394  54.6454887  22.9887371   7.1321678  54.4491806  22.8689594
  36.1125298  22.6059265  37.0420952  36.1836891  23.4794617  36.6572533
  36.6823273  22.0588741  36.5014496  70.7097015  51.7298126  79.1732635
  70.6674728  50.8060341  78.9261246  70.1691437  51.7920113  79.9607697
   6.7473936  52.2721481  44.1859512   7.6867871  52.0944748  44.1390038
   6.4172440  51.6465302  44.8308067  72.8620071   5.9400167  45.8868332
  72.3209763   5.3065357  45.4154320  73.7555313   5.6105685  45.7903900
  65.7975540  63.1056595  53.3776817  65.7124100  62.1873436  53.1214066
  66.2736206  63.5131073  52.6540947  43.1563492   4.6531825  17.5715981
  42.4927826   5.3420897  17.6079426  42.8180771   3.9643824  18.1437511
  12.3710976  48.9674492  71.5337219  12.4515629  48.6842918  72.4445343
  11.9918900  49.8446426  71.5882187  14.4434042   6.7329235  39.4311562
  14.5177774   7.2804918  38.6495781  13.5072622   6.5476465  39.5056038
   4.2464051  71.1895905  28.6271839   4.6575766  70.6226883  29.2797108
   4.9003286  71.2688980  27.9326859  50.2228165  55.0064125  14.9654560
  49.3980751  55.3477097  15.3112221  50.7906799  55.7741127  14.8991280
  56.1772346  66.2786942  85.9075851  57.0562668  66.0976410  85.5747833
  56.0751610  67.2255936  85.8117294   0.5358942  33.6975784  58.1698074
   0.2134444  34.3385658  57.5362473   1.4504812  33.5575676  57.9245338
  73.7015839  62.4251976  55.7462044  72.7810211  62.2089920  55.8946953
  73.7435532  63.3761482  55.8470268  63.3594055  42.6259041  21.2241306
  62.6068192  42.8065758  20.6609249  62.9767380  42.2912750  22.0351906
   6.0859585  12.3697720  30.9164925   6.8584013  11.8052025  30.9452171
   5.4171810  11.8388271  30.4839821  57.7834549  42.8465424  27.6822357
  58.4880219  42.4674988  28.2077293  57.8085175  43.7813301  27.8866310
  50.5171242  67.7767563  74.2254410  50.3334923  67.2277527  73.4631424
  49.9655190  67.4154434  74.9192810  57.7036362   8.1960039  75.8359375
  58.0227852   7.3315105  75.5770493  58.1694031   8.3895140  76.6494827
  21.2735672  69.3594360   1.3677381  20.4788418  68.9966736   0.9765272
  21.9048519  68.6405334   1.3379776  62.2212296  26.9962959  54.9071388
  61.9053764  26.6254406  54.0831642  62.3924141  26.2354736  55.4621887
  29.6075687  32.2542343  70.3410645  30.4808044  31.8701057  70.4193954
  29.0423298  31.5182629  70.1063766  11.2229395  48.5671463  37.9053230
  11.3644390  48.5991478  38.8514633  11.3683233  47.6501999  37.6722832
   3.5804477  44.2377510  40.2293854   4.0025830  43.5567322  39.7056999
   3.9405043  44.1214638  41.1086273  68.6740494   8.5079021  38.6508179
  67.9827423   8.1090155  38.1224022  68.5268478   8.1683474  39.5335770
   9.8261204  16.3894806  58.2442589   9.9723873  15.6719227  57.6278610
  10.3732500  17.1028309  57.9156036  48.4187775  63.0921288  50.8294373
  47.9101753  63.9030266  50.8300667  49.2526817  63.3327484  50.4257812
  69.6115494  29.5459213  37.3859634  68.9913712  30.1198616  37.8356400
  69.5915909  28.7313538  37.8882751  43.9078827  54.2923241  57.0785065
  44.0911140  55.1967278  56.8241196  44.3832092  53.7625160  56.4385071
  64.1279144   3.2308991  63.1477242  63.3840675   3.8238344  63.0411530
  64.2800827   2.8776133  62.2712173  39.4600754  57.2420883  68.8695679
  40.3384476  56.9028664  68.6974411  39.3898392  57.2516785  69.8241425
  75.6941910  30.2789726  66.7796783  75.2022018  30.5310173  65.9982376
  76.4976883  30.7972107  66.7343369  83.4227142  64.2058411  51.0953293
  83.6773148  63.6517677  51.8331757  83.2101364  65.0505219  51.4922600
  16.8883266  35.6435890  83.4123993  17.6544304  35.1056404  83.6122284
  17.0316296  35.9399757  82.5135956  40.5976830   9.5038137   2.4149790
  40.8114319   8.6193008   2.7119305  39.9874763   9.8365126   3.0731530
   4.9487386  58.4698334  23.4231167   5.4853787  58.2527390  22.6608047
   4.8205142  59.4165611  23.3639793   4.0696907  64.6788788  60.8233681
   3.6868672  63.9073143  61.2409477   4.3197036  65.2465286  61.5524063
  81.6492538  24.1582737  69.8925476  81.2393723  24.8911972  70.3519440
  82.5222244  24.0911922  70.2793961  79.1670837  69.0512085  12.0530844
  78.7804413  68.4952164  11.3766165  78.5189819  69.0572433  12.7574673
  40.1283340  45.7005196  19.4260063  40.6820450  45.9909363  20.1507797
  40.0362701  46.4742165  18.8699970  82.8428726  61.9132233  39.3441353
  82.0871506  61.6354256  39.8617706  83.2637558  61.0960312  39.0771370
  73.5021439  38.1300316  30.1830273  74.2725525  38.1956787  29.6187687
  72.8251495  38.6260300  29.7227020   1.7674890  53.6720161  30.6718979
   1.0874763  54.1663666  31.1295376   2.5591214  54.1997070  30.7772121
  69.5868149  62.4388504  56.3407021  68.8453445  61.8395157  56.2555504
  69.6335297  62.8838081  55.4944992  53.0793304  24.0803909  69.9664307
  52.3578873  24.3249931  70.5460205  52.8824997  23.1807022  69.7055664
  20.4039268   6.7402744  44.2204247  19.8185806   7.4957905  44.2733040
  21.2733822   7.1194425  44.0919266  15.1839905  54.7097015  44.2338028
  15.5621977  54.3683281  43.4234581  15.6411037  54.2368355  44.9292717
  75.1684723  36.0854797  31.4952030  75.8651352  35.9853973  30.8464527
  74.5277100  36.6571655  31.0723152  71.0420837  53.5056648  46.1080780
  71.1695175  54.1873627  46.7678375  71.8568268  53.5032806  45.6056747
  47.0392914  55.7887001  55.8004532  47.3819962  56.6184120  56.1326637
  47.2959137  55.7755814  54.8783875   7.0802894  53.5434837  66.2525787
   6.2887540  53.2890320  66.7268753   7.6829925  53.8404312  66.9343414
  31.3880653  30.8875999  23.7836113  30.8337841  30.2222538  24.1914310
  31.3187313  31.6456490  24.3639450  77.5665054  33.7055969  75.3677216
  77.8880920  32.9003258  75.7731247  78.2023315  34.3734627  75.6244507
  23.8372040  48.4794617  42.6557083  23.5634880  47.7707787  43.2380142
  24.7603798  48.2999687  42.4774933   0.4313512   3.9735043  16.2606773
   1.3518260   3.9862130  15.9983864   0.4214157   3.4713955  17.0755520
  70.4446259  40.6302452  17.1817646  69.4953766  40.6542778  17.3025284
  70.7123795  39.7905235  17.5551376  48.5329857  63.5000076  29.0756550
  48.9614220  62.7567482  29.5001965  48.1635742  64.0080643  29.7979069
  69.7962494   9.2325411  85.1666718  69.4570999   8.4685698  84.7002487
  70.7214584   9.2699718  84.9241486  12.7409172  59.3421059  24.7894840
  12.6113701  59.8634911  23.9972668  12.2195053  59.7875290  25.4572868
  56.8812218   7.5457597  36.9983635  57.6812172   7.4730253  36.4778366
  56.9940872   8.3535118  37.4993935  65.4139786  63.4885368  26.0911083
  64.8855362  63.1421432  25.3720894  66.0559082  62.8012161  26.2692947
  78.3681107  31.2936745  76.3236542  78.1105804  30.6409760  76.9747238
  79.3115463  31.1693993  76.2201157  47.3138084  52.0617943  73.0411148
  48.1865463  51.8351135  73.3623276  46.9951973  51.2597618  72.6270447
  32.4284935   6.0527463  60.8374252  32.0745506   5.1753707  60.9829178
  33.0983162   6.1559286  61.5133858  19.7341404  69.2597580  51.4112930
  19.5539494  69.2875900  52.3509674  18.9072075  69.5132599  51.0012360
  55.8993721  48.1367798  13.7530069  56.2497711  48.1731071  14.6430254
  54.9667816  47.9555931  13.8699694   8.0964069  43.5472984  10.4580250
   7.4550524  42.8779526  10.6965017   8.3831711  43.9131584  11.2947721
  53.5705452  59.9282341  41.7148972  54.0298882  60.7526779  41.5551109
  52.7871742  60.1812744  42.2032928  56.0598755  28.9924698  78.5359116
  56.7939453  29.1531754  77.9429932  55.8988457  28.0513496  78.4681244
   4.2548022  22.3583717  79.1094513   3.9323928  21.7922001  78.4082184
   4.4969006  23.1723824  78.6678543  62.5008698  38.5841751  16.9776592
  62.5486679  39.5401764  16.9758549  63.3901749  38.3002968  17.1892738
  66.1906128  49.7377167  83.8004303  66.5351791  49.2502899  83.0521545
  66.3686600  49.1759605  84.5547256  61.2581940  13.0891800   1.2222860
  61.7178192  13.8719044   1.5261267  61.4119606  12.4396582   1.9083676
  54.4354706  56.0099182  21.7417336  55.0943413  55.4060669  22.0844898
  53.6711044  55.4592781  21.5720959  52.9923058  11.4474268   6.4002748
  52.6432877  11.8465042   7.1972399  52.5478134  10.6017342   6.3414264
  57.2148819  70.7003860  52.9912186  57.3361969  70.8747177  53.9245567
  56.5899315  69.9759369  52.9621239  69.0362167  49.6326561  11.4585924
  69.4448929  50.4032097  11.0642986  69.7413330  49.2136459  11.9520226
  56.7821693  31.9905548  70.4491425  57.0238075  31.1496983  70.0608063
  56.8115578  32.6088448  69.7190094  59.0978508  64.1489410  62.8770752
  59.2508774  63.6596184  62.0687561  59.9503784  64.1656342  63.3119888
  70.8251495  20.0725346  43.1343269  70.8299103  20.6865215  42.4000053
  70.0747986  19.5027714  42.9652824  27.6431828  65.7342682  55.0705872
  28.2619400  66.4452591  55.2374954  27.3498077  65.8783340  54.1709175
  31.0184040  59.9787941  56.9881859  31.8213406  60.4861755  56.8694992
  30.3755531  60.4131126  56.4275246   4.4455895  33.8203621  82.2778473
   4.6724811  34.3231430  83.0601273   4.4343424  34.4671631  81.5723267
  42.1401253   3.1913338  62.8438683  42.8305893   2.8279896  63.3983688
  41.4199524   3.3745236  63.4472160  78.8145599  50.7250328   3.1691327
  78.0554657  51.3004494   3.2634995  79.4711685  51.2649651   2.7291701
  67.1604309  70.4111786  38.1430435  67.8705597  69.9238739  37.7253304
  66.8251190  69.8172913  38.8146782  38.5298576  20.5476303  26.6662998
  39.2204170  20.1041679  26.1736565  38.9495964  20.8070431  27.4865189
  12.3355227  58.4034615   6.6516128  12.9600592  59.1180954   6.7760649
  12.8758249  57.6540909   6.4011173  39.2776413   8.3872843  79.2462234
  39.0632095   9.2468014  79.6088257  40.2060890   8.4471083  79.0212097
  57.0055923  18.4089527  63.4366074  56.1452408  18.7082558  63.7306252
  57.1611443  17.6043034  63.9311523   1.7034490  50.1804314  39.0810394
   2.6116221  49.9112358  38.9432449   1.2180980  49.3584442  39.1518097
  81.4812851  12.3987837  24.8116951  82.0533447  11.8546772  25.3529243
  81.9835129  12.5520782  24.0113811  73.8947525   2.9051478  82.5883408
  74.5396271   2.6920722  83.2628555  73.8160629   3.8584104  82.6248169
  67.5544128   3.6889648  81.6704636  67.8212662   2.8363242  81.3269119
  67.8501740   4.3162436  81.0107040  64.0629654  48.4515495  47.2906647
  63.9595985  48.5802345  46.3478012  64.8987503  47.9935379  47.3796806
   8.9902401   4.1603951  44.3555222   9.3957853   4.0905156  43.4912987
   9.5445871   4.7792234  44.8308983  14.2704601   6.1434021  78.0082550
  14.6934080   5.3242917  77.7505646  13.4590540   5.8697519  78.4360046
  64.5374146  47.8306503  57.7977180  65.0840912  48.5970383  57.6244507
  64.8919067  47.1494484  57.2262878  19.5177288  10.3442144  53.4266663
  20.1987019   9.8254490  53.8549080  19.3764248  11.0861225  54.0147438
  62.2071381  67.6795197  24.0164967  61.8100929  67.6419983  23.1463356
  62.9303551  67.0537186  23.9769573  70.7155228  49.9772835  27.9068623
  71.3856583  49.3483467  27.6392956  71.1976547  50.7894974  28.0620575
  80.3472214  17.7815819  83.4758148  80.0702667  18.4582653  82.8580551
  79.7119980  17.0752869  83.3580475  13.8524017   0.3522521   5.5287361
  14.6605358   0.7595890   5.2169232  13.5393295   0.9381126   6.2179275
   7.1950583  38.0252190  55.6394501   6.4080920  37.6264343  55.2681160
   7.0933223  37.9200516  56.5853996  27.2065830  65.2836685  57.7765388
  28.1298599  65.0896759  57.9382629  27.1607208  65.4645004  56.8376923
  32.5786743  18.1300526  22.6175995  33.2581978  17.4577370  22.5678787
  32.7406616  18.6908798  21.8590069  46.6019287   4.6011858  34.4057999
  47.3756866   4.4559636  34.9502640  45.8772659   4.2443614  34.9193916
  62.7966423  44.6004906  27.0672550  62.0766258  45.0287552  26.6042271
  63.3898926  44.3124695  26.3734760  78.6646042  10.3199606  73.8422394
  78.2009430   9.6380968  73.3561096  78.8770981   9.9129152  74.6821136
  11.9685154  19.4641647   3.3604250  11.4265585  19.7168522   4.1078629
  11.5787048  19.9226341   2.6160553  48.1590157  62.0181274  39.0186653
  48.2060051  61.1808815  38.5570946  47.7698746  61.8028297  39.8662796
  20.8329296  16.2790489  17.1258526  21.4010677  16.3787899  17.8897266
  20.0103722  16.6955109  17.3831291  27.5721378  68.8222504  32.3857841
  27.4082642  69.6470642  31.9285507  27.4167709  68.1472168  31.7251625
  17.6497955  56.7999115  35.3763123  18.0280495  57.3875313  34.7222023
  17.4884186  57.3593483  36.1360588  77.4668121  17.6361694  50.7655716
  77.4695969  18.2715530  50.0496750  78.0917358  17.9873333  51.3999138
  31.6361465  62.2918320  39.7548866  30.9989471  62.8935928  39.3700600
  31.8199692  62.6585617  40.6197281  46.0668449   9.7524261  60.7551270
  46.9410057   9.8731384  60.3843155  45.6887970   9.0338240  60.2482491
  45.0370827   5.8442774  16.0348492  44.5725098   5.4889631  16.7925797
  45.3866119   6.6817579  16.3392982  50.4508209  55.4717522  37.8270111
  50.0758095  54.6664810  37.4704475  51.0560646  55.7743607  37.1500053
  15.9676104   0.5289441  57.6200409  16.0038967   0.8106276  56.7059441
  16.8840675   0.4176768  57.8729362   1.8480049  68.5855560   5.7341294
   2.5670240  68.1091003   5.3191171   1.1572621  67.9315262   5.8406754
  57.6990509  14.4675226  44.3704567  58.0720825  13.5923891  44.2645264
  57.2162018  14.4237747  45.1957893  14.3070660  51.8696213  64.2102737
  14.2471313  51.1546707  63.5766411  13.4608269  51.8647957  64.6575851
  83.3007889  12.0322475  59.2436790  83.0289688  11.5019598  58.4945831
  83.8351822  12.7289734  58.8625984  78.7881699  27.1767349  40.9378967
  78.8328323  28.1314545  40.8854980  79.4775314  26.8719654  40.3478813
  14.1764536  15.5709620  76.8988419  15.1019316  15.6400108  77.1332703
  13.9024630  16.4736576  76.7366714  52.1974144   5.1740718  15.1792526
  52.4194679   6.0900683  15.3462114  51.4865456   4.9844999  15.7915926
  19.7130299   6.3985634  30.7637386  19.4540215   5.5064707  30.5328312
  19.2174721   6.5935616  31.5591183   5.2243290  16.7782383  39.5112114
   4.7728128  16.0429211  39.0968781   5.6309485  16.4008141  40.2912369
  33.1223259  66.4432983  50.0512161  33.4253998  66.2934341  50.9467163
  33.1293640  67.3953247  49.9521408  21.4710636  69.0296402  49.0690002
  20.9378109  68.9844055  49.8626137  20.8685951  68.7981796  48.3621101
   4.5077705  12.7953577  48.3322449   5.1479926  12.9016800  47.6286545
   3.8195081  13.4282789  48.1274605  21.2705917  46.4781075  29.6847725
  20.7954826  47.3084221  29.7176247  20.6136971  45.8174286  29.9043732
  22.9741726   4.1759229  86.3338699  23.3054104   3.2947686  86.1604309
  22.2614269   4.0450807  86.9592514  12.9481068  29.4917755  29.0342827
  13.4227724  30.1913090  29.4832535  12.4729652  29.9368191  28.3325634
  71.3693619  45.7621040  58.5908394  71.3390808  46.6174583  59.0194283
  70.6731644  45.7980957  57.9349060  82.0585251  28.3032951  73.0936050
  82.0793381  29.2137833  72.7989655  82.1979141  28.3543110  74.0392227
   5.5807414  40.6765862  55.2519493   6.0757098  41.3663025  55.6941338
   6.1619577  39.9162369  55.2688713  61.8119125   8.2293634  55.0294380
  61.3676529   7.3979788  54.8631172  61.1242218   8.8896809  54.9440575
  46.9337044  59.5662460  85.7692642  46.2474403  60.1014290  86.1678314
  46.7276421  58.6716881  86.0404282  52.6362495  17.6154671  23.8551617
  53.5413017  17.3056068  23.8219795  52.3456993  17.6043587  22.9431915
  73.8369141  26.8719749   1.9428518  73.6865463  26.0723667   2.4470830
  73.0438995  27.3913975   2.0753977  69.4475250  50.8860893  58.8426132
  69.0615082  51.2620773  58.0515022  68.7036133  50.5215607  59.3221436
  20.1426868  26.4102631  75.8723984  20.9118633  25.9593983  75.5240936
  20.0212250  27.1607933  75.2908630  39.4022636  27.6326237  88.6006546
  38.5833244  27.3326321  88.2062225  39.7463226  26.8625469  89.0532455
  72.9743652  28.3136311  67.4457245  73.4175873  28.7710667  66.7312088
  72.3830872  27.7013645  67.0078354  19.0096550   6.9110084  22.2148705
  19.2499218   7.5938129  21.5885468  18.6020279   6.2290201  21.6810513
   1.3725858  63.0020103  25.7922382   0.7159562  63.6574707  25.5567799
   0.9987652  62.1717262  25.4970818  60.2425423  13.9302273  46.4235001
  60.6638718  13.0981607  46.6388626  59.7261276  14.1452999  47.2002144
  76.8413849  33.2359810   3.8622439  77.7493744  33.2649689   3.5606668
  76.5304794  32.3685989   3.6029863  21.1896057  57.0115891  74.3496552
  21.1577873  57.4827194  75.1822739  20.8412018  56.1433754  74.5522614
   3.4494717  38.0366364  64.9273071   3.2075281  37.7964745  64.0328751
   4.2254591  38.5877800  64.8257370  74.5746231  48.2051773  32.6086922
  74.6518936  47.2512093  32.6230698  75.3932190  48.5058632  32.2140846
  26.7443504  53.2710266  82.7444000  26.6748028  53.4284897  81.8028107
  27.5844002  53.6582489  82.9905930   5.8252478  70.9920807  85.5973969
   5.3406920  71.6239548  85.0661926   6.7321501  71.0775223  85.3033524
  16.7706299  46.2841301  84.8877563  16.9237995  45.4999657  84.3606339
  15.8777390  46.5498924  84.6678696  20.6168957  65.9914551  85.2212524
  20.1710796  65.2830658  85.6856537  21.3904686  66.1771927  85.7535248
  84.4105530  32.2493401  42.5104980  84.2631760  32.8816147  43.2138786
  83.6341095  31.6897316  42.5249100   7.9541798  20.4595470  85.1355667
   8.1714907  20.4041233  84.2050095   6.9983950  20.4143906  85.1614227
  86.2479401  51.6542397  29.4324932  86.6084290  52.1772079  30.1485825
  85.5346069  51.1579704  29.8338680  34.7800865  62.0030098  53.5099373
  34.3729668  61.5618820  54.2555199  35.3010216  62.7040215  53.9016571
  60.5744133   1.0646203  82.1434860  59.8573570   1.6970733  82.1889038
  61.3166695   1.5677299  81.8085785  36.9266281  54.5493050  14.9058037
  37.0364685  53.9471855  15.6417503  37.6415672  54.3301277  14.3082619
  78.7116241  19.9826584  12.7242727  79.0077515  20.7777004  13.1674967
  78.1055450  19.5751171  13.3429899  77.5016479   4.0316553  34.6866493
  77.1648636   4.8617940  34.3494873  76.7534103   3.6320570  35.1301498
  10.5397882   3.3457127  56.2113228  10.1737270   3.0188653  55.3894920
  11.0834637   4.0897021  55.9522285  14.4994841  11.3972282  54.2865868
  15.4278221  11.3616228  54.5171356  14.4703665  11.9296179  53.4916382
   6.0611253   8.7328882  22.5918751   6.8956513   9.1696205  22.7623539
   5.5755816   8.8153458  23.4126549  27.1022720   2.0015244  87.8535919
  27.1215115   1.0949388  88.1601257  26.5031643   1.9893121  87.1071701
  17.7829323  61.9226990  34.7006645  18.3688774  61.2359695  35.0189476
  18.3664608  62.6406403  34.4551392  73.6984863  54.1435814  51.0759583
  72.7905350  54.1202888  51.3781357  73.6387024  54.4082413  50.1580200
  10.0980530  59.3086357  57.0982552   9.4714460  58.9222641  57.7100639
  10.4208221  58.5672989  56.5859337  29.9154663  61.8772736  55.2228050
  30.2448006  62.5914879  55.7683945  29.0688515  62.1901398  54.9040794
  44.2689133  29.3100166  81.8318710  44.3325653  28.3560600  81.8782120
  45.0002441  29.5719700  81.2726135  51.1867332  17.8671379  81.8742218
  51.9444466  17.3902016  82.2127991  51.4977303  18.7660809  81.7673874
  73.2955856  25.2637196  13.1293783  72.6313553  24.7267857  12.6972494
  72.8259201  25.6992226  13.8407059  82.0087433  13.6700134  77.3777847
  82.1581573  14.5887022  77.1543579  81.2894440  13.3987446  76.8074722
  13.7354422  19.1661911  57.8396683  13.8879194  18.6977901  57.0189476
  14.5871353  19.1674309  58.2765312  66.5247726  69.0406113  27.1852741
  65.9114532  68.3151550  27.0678501  65.9668503  69.8109741  27.2924480
  18.6217194   0.4390619  58.3050079  19.4636402   0.5200696  57.8568573
  18.3550415   1.3417939  58.4787598  80.8323212  48.4177666  76.2283249
  80.4598923  47.8649979  75.5413208  80.4276810  48.1013184  77.0360184
  74.2041397  30.6361923  58.3056259  73.8439178  29.8301506  57.9358025
  73.4432373  31.2033081  58.4306488  41.1586380  35.5406952  27.9682217
  40.8611870  36.3630714  27.5790596  42.1062775  35.6451263  28.0537052
  78.6451187   9.7381124  51.9665985  78.8709183  10.4613180  52.5515938
  78.9700317   8.9571819  52.4147186  40.4608345  55.1874809  52.9872246
  41.3927193  55.0311470  53.1401367  40.3451004  55.0451927  52.0477638
  36.6481972  40.9030685  82.4554749  36.9777260  40.7453423  81.5707321
  37.2894974  41.4955368  82.8478394  53.9822578  16.1223869  54.5437393
  54.7159386  15.5081053  54.5683327  53.2335281  15.5905428  54.2739601
  29.7946835  42.1516418  13.6271305  30.6646328  41.8222084  13.4015293
  29.2129250  41.4035492  13.4924135  21.5028362  65.4435349  29.7278099
  20.8469868  65.2042923  30.3826828  21.3524551  66.3751526  29.5674667
  74.2366867  71.1807938  16.5251541  73.3028030  71.0469055  16.3633823
  74.6330109  70.3247375  16.3629131  11.9980936  42.6657562  73.2632141
  12.7557955  42.9578018  72.7564316  11.2747974  43.2063866  72.9457321
   9.7950821  62.9230156  79.7805634   9.0852671  62.8693542  80.4204941
  10.5250645  62.4614944  80.1932983  33.8559799  20.9348526   6.6147075
  33.5136871  20.1365929   7.0170112  34.7283478  21.0394077   6.9945402
   4.7579503   1.6981760  48.4554405   4.3563461   0.8451254  48.2903633
   4.5673099   1.8785467  49.3759575  86.3364639  46.9203758  82.5717392
  86.3490295  45.9892578  82.7933121  85.7463303  47.3118744  83.2157135
  39.9002342  64.9759369  81.1228256  40.0890961  64.4359207  80.3553925
  40.7526741  65.1098251  81.5371323  66.5068512  27.9680824  75.8403397
  66.3467636  27.1027660  75.4637299  66.5346451  28.5563107  75.0857239
  15.1973791  18.5431900  61.3799248  15.4701242  18.9607582  60.5629311
  15.6267405  17.6877937  61.3666801  59.4687347  35.4701118  52.9980545
  58.9653931  34.7879181  52.5536499  59.1014404  35.5017204  53.8814163
  65.9860687  66.7474518   4.5379519  65.2345200  66.1715927   4.6786327
  65.6865921  67.6080322   4.8311086  16.2789669  51.7577591  12.4231777
  17.1319313  51.8488541  11.9984617  15.8704691  51.0125237  11.9827423
  51.6849403  57.1488876  66.6314163  51.6810303  57.3460503  65.6947479
  51.3336601  56.2604446  66.6906357  59.3856087  12.0188684  44.3228073
  59.0201073  11.8641348  43.4517746  60.1108742  12.6255417  44.1739044
  68.3343430  41.2024536  84.0748672  68.4263229  40.3511200  83.6470795
  68.8590088  41.1278992  84.8719864  74.0049210   1.9269311  86.7466431
  73.3257065   2.5904553  86.8676147  74.7952118   2.4273999  86.5436630
  77.3109055  65.0412445  79.4800262  77.9698486  65.5218430  78.9789658
  76.5792923  65.6529770  79.5621719  64.7386169   2.9658608  53.6313744
  63.8588715   2.6644073  53.8581047  65.1895752   2.1793661  53.3243027
  59.9513931  11.7779970  82.0446243  60.0453377  11.4636135  81.1454239
  60.4187088  11.1319885  82.5742722  71.8707581  33.5964241  87.3179550
  71.7963715  34.2376785  88.0246964  72.8121185  33.5193024  87.1626205
   8.3930521  11.2487593  83.1216812   8.6532192  12.1699247  83.1220093
   7.6939321  11.1975670  82.4698792  42.8798904  51.4243546  75.8816605
  43.7109833  51.8387032  76.1136703  43.0888367  50.8749847  75.1261673
  44.8743477  62.1326027  49.7506828  45.0774689  63.0543823  49.5916443
  45.6313629  61.6578636  49.4074860  58.1646194   9.0977154  33.2401810
  58.6351814   9.9101639  33.0538177  57.2851028   9.2451677  32.8924141
  83.2181702  29.9712200  43.7003670  82.9654312  29.1880341  44.1892166
  82.5399857  30.0652809  43.0314522  46.0376244   5.3050194  11.0774670
  45.9622765   5.4036984  12.0265799  46.5741882   6.0480146  10.8012619
  85.5848999  12.0256186  83.6369019  85.9744263  11.9433222  84.5073776
  84.9601288  12.7458887  83.7212067   5.8859935   6.8639083   9.1594334
   5.0640159   6.4218130   9.3718853   6.2826242   6.3185697   8.4800797
  13.8621626  21.6555862  88.8580475  14.0890551  22.1915569  88.0981216
  14.7002268  21.4792252  89.2855759  27.6743946  63.2611313  54.1033630
  27.6773548  63.4986992  53.1761169  27.7830658  64.0930786  54.5641098
  79.9154968  62.9502945  53.5634346  79.0908508  62.4962082  53.3902435
  79.6535568  63.7740822  53.9745255  33.6855888  33.8798218  13.5156603
  33.6082115  33.8434067  12.5622883  34.4895248  34.3752975  13.6719580
  54.9440956  43.0937538  22.6708221  55.2244415  42.1815071  22.7445984
  54.7994347  43.3737106  23.5746632  34.2098351   3.0054834  42.8643227
  34.9655914   3.4045167  42.4332275  34.4813728   2.9019587  43.7763443
  58.1912003  51.1455460  70.9625854  57.9619598  50.8170662  71.8319397
  58.0785675  50.3912430  70.3841629  38.9332619  35.9862595  25.6098118
  39.2429390  35.6426773  24.7717876  39.3600159  35.4360924  26.2666473
  15.9033003  59.0281143   4.9189410  15.0792274  59.2285805   5.3627310
  16.2735653  58.3004532   5.4185853  69.7046738   9.1027241  54.6315155
  70.5867996   8.7400560  54.7125092  69.4462891   9.3071079  55.5302315
  83.8672791  26.0737419  38.0827980  84.8159866  26.1984692  38.1080818
  83.5332031  26.8630753  37.6566772   1.4276354  65.8040161   8.9265137
   1.6063792  65.3244858   8.1176071   1.0047734  65.1621628   9.4969940
  42.0484810   8.7343884  40.2347603  42.4126701   9.6174545  40.2963295
  41.7511940   8.6606054  39.3278923  20.1623363  10.8196774  77.0660248
  19.7694817  10.9844112  76.2088394  19.5993118  10.1556587  77.4639053
  31.1523476   3.7809312  61.4131393  31.7964458   3.2798088  61.9133835
  30.8252602   3.1642342  60.7582092  31.0623627   4.1883645  74.6819992
  31.2507362   3.3178384  75.0326157  30.3821831   4.5366974  75.2584152
  62.4186058  50.1086044  48.9834251  62.8778305  49.2963753  48.7698174
  62.0991325  50.4317970  48.1409798  23.1660671  43.4454880  17.5477753
  23.7741680  42.7083588  17.4922256  22.4897213  43.1525269  18.1584797
  78.5428619  31.7934608  17.0715885  78.4433289  32.6531525  17.4805584
  77.8032074  31.7285252  16.4674969  43.4457092   7.1243396  50.5721092
  43.6878700   6.2007346  50.6395187  42.5869865   7.1780295  50.9915695
  13.0370045  18.5269661  71.1363831  12.6224890  17.9509773  70.4940033
  13.3740730  17.9337215  71.8077087   0.6518462  51.1604156  41.2038383
   0.9790019  50.6944733  40.4343605  -0.2968773  51.0370827  41.1730957
  32.1485863  56.6397285  44.7446060  31.8686714  55.9897537  44.1000824
  32.0066757  57.4819984  44.3125496  66.1551514  56.3248978   9.6662550
  65.6437149  57.0586815  10.0071716  65.8306503  56.2006721   8.7743473
  59.5967674  36.8495750  82.4715958  59.0530281  37.0601158  81.7124863
  60.0972595  36.0796280  82.2015686  75.7495880  42.5970116  30.5942993
  76.3539505  41.9506836  30.9593201  74.9892807  42.5688171  31.1751347
   2.6181595  59.6267204  27.8057175   3.0773420  59.2127037  27.0749817
   3.2752008  60.1918106  28.2121658  15.8708429  54.4696846  53.9070168
  14.9421282  54.3952484  53.6875191  16.2241383  53.5933533  53.7538643
  25.8694954  29.2838249  84.0532303  26.2041836  29.8649654  84.7362366
  25.8502216  28.4189396  84.4629059  54.7680016  68.5463638  49.2925262
  55.6414490  68.2362976  49.0533981  54.8920288  69.4714661  49.5047569
  70.1281128  70.3550186   4.6938701  71.0494385  70.4365463   4.4473863
  70.1472015  70.1598358   5.6307645  84.2453766  60.7121353  53.1264496
  84.4542007  60.5911446  52.2001724  83.8240585  61.5706787  53.1668282
  76.1938858  19.9259510  32.3379402  75.6908646  20.4382324  31.7048721
  76.0899353  20.3976192  33.1643486  43.3386574  54.2063675  53.1767349
  43.7016411  53.7060547  53.9076004  44.0070381  54.1517525  52.4937134
  80.1094208   7.9530783  24.7300606  79.5651474   8.7025146  24.4885216
  79.5746231   7.1891599  24.5140800  70.5023270  64.3371353  23.8145657
  71.3266754  64.1561508  23.3629971  69.8255234  64.0466995  23.2031536
  32.7600670  22.5364952  74.0931702  32.5283127  21.6379776  74.3280945
  32.4555588  23.0633678  74.8320312  21.8159084  59.3349113  23.4362335
  22.2551899  58.8629951  24.1437340  21.1189766  58.7440987  23.1508255
   8.5517054  39.4711456  26.0426865   8.2697124  38.6799393  26.5017147
   7.8477621  39.6501045  25.4192524  49.4365196  58.6991272  85.0282440
  48.5163879  58.7876854  85.2767487  49.4474640  57.9726105  84.4051208
   5.3324451  21.6766510  51.4341049   5.8201756  21.1162510  50.8305283
   4.4218912  21.6003857  51.1489601  83.9036713   8.5668182  67.1822205
  84.6594620   7.9816356  67.1314850  83.4076843   8.2524719  67.9381332
  25.8872070  55.4013252  56.8640289  26.0552692  56.2546577  57.2637978
  25.8381023  55.5820885  55.9253387  55.4338722  71.0217056  49.7244263
  55.5274010  71.5748672  48.9488640  55.1954002  71.6292572  50.4246025
   9.2152843  17.2012348  68.7900696   9.7338371  16.4469967  68.5099640
   9.8627062  17.8814487  68.9755020  21.0582485  12.6444778  27.6318092
  20.3650799  12.8482914  27.0039501  21.7908268  13.2017269  27.3690681
  50.5154762  32.3466072  26.5579586  50.3833008  31.6860886  25.8779030
  51.4660416  32.4418335  26.6178398   3.6330419  13.4942694  78.5697479
   4.2551193  13.1372061  79.2035904   3.0792799  14.0826368  79.0829773
  72.0846786  27.7623482  54.6899490  71.4677658  27.1070557  54.3639908
  72.1513901  28.4020386  53.9810219   8.6717443  38.0441399  68.8752899
   8.2741547  38.6443214  69.5061111   9.5642920  38.3712769  68.7631607
  80.8236084  51.2164764  42.3866539  80.2108383  50.5139465  42.6039200
  81.0276260  51.6250229  43.2279015  58.7798424  15.0692854  60.1909637
  57.9989319  15.4873447  60.5537796  59.4943542  15.6687698  60.4061928
   4.4179583   2.8017457  36.7440262   3.5413949   2.9673049  36.3969536
   4.9089780   3.5988672  36.5447044  39.6475868  56.5061111  41.8605843
  39.4903183  57.0484428  42.6334877  40.5447044  56.7147942  41.6000786
  85.0616913  38.7754784  56.6496315  84.8840408  39.1428795  57.5154762
  84.2003479  38.7046852  56.2381592   3.3798442  63.4419899  39.4188385
   2.5186164  63.2576256  39.0439682   3.9339979  62.7253151  39.1097717
   2.3130538  15.6168785   9.1734200   2.2086115  14.9266901   9.8283730
   1.7516060  15.3450470   8.4473925  27.9289761  70.9790649  79.4932327
  27.9269276  71.8750076  79.1563187  27.3042870  70.9944153  80.2183228
  70.3023453  70.2116928  39.4860802  70.5329895  71.1359558  39.3923874
  69.6716537  70.1940002  40.2059097  54.7250404  52.8423958  41.9209824
  54.9259186  52.3238945  42.7001114  55.1598206  52.3781395  41.2056770
  65.4416733  45.5550270  36.6672363  66.1565323  44.9466286  36.4799881
  65.5884705  46.2882500  36.0696869  28.3727894  25.5639973  12.9611855
  28.5141354  24.7016678  12.5704937  27.6217308  25.9213829  12.4874563
  67.1180191  57.9458923   4.9520955  66.4238663  57.4600716   5.3974681
  67.2511673  58.7239189   5.4935508  27.6143074  43.1610870  64.5553741
  26.6581383  43.2031670  64.5695724  27.8456287  43.2799988  63.6341858
  57.0509911  34.9838753  81.4356613  56.6972160  34.3348236  82.0437775
  56.9234734  34.5956154  80.5700760  50.1171417   9.2647686  84.9246902
  49.5301857  10.0182266  84.8613129  49.6871376   8.6778259  85.5466461
  70.1951675  52.5899620  13.0716925  70.9919281  52.2712631  12.6476183
  69.6129074  52.8179893  12.3469801  84.2607346  53.1729546  75.9330139
  83.9852219  54.0810013  76.0586395  83.8047714  52.8918839  75.1397171
  32.2430038  65.2958527  72.7332382  31.3654804  65.5646744  72.4613571
  32.7199860  65.1703491  71.9128952   5.2253976  33.0406952  15.2191153
   5.1760664  33.0047302  16.1743660   5.9414835  33.6498108  15.0390291
  28.9542694  31.7584400  82.8172607  29.3827953  32.1513329  83.5776749
  29.5587177  31.0747528  82.5283813  53.3892479  15.9311171  82.8100128
  53.7332382  16.3330822  82.0123138  54.1494904  15.5135136  83.2148285
  50.1349869  24.9753780  74.1156921  49.7425575  25.8255215  74.3144073
  49.6406822  24.3528805  74.6489792   4.6554203  65.5890503  63.4422035
   5.5466704  65.8916931  63.6163101   4.1962824  65.7050858  64.2740479
  56.7458839  29.5984955   7.0014229  57.3798866  29.2035542   6.4028454
  56.0238991  29.8752003   6.4371495  40.7109642  18.6505260  79.8086014
  41.3869057  19.0096207  79.2338104  40.3328667  19.4161510  80.2411346
  22.1731853  48.7741699  75.1864853  21.3237839  49.0644684  74.8541031
  22.3183975  47.9270058  74.7652283  16.5472469  49.9705887  51.9732780
  16.1606159  50.5794106  52.6026306  16.6271229  50.4790230  51.1662178
  43.5882149   3.2129526  15.1157980  44.4430199   3.6144845  14.9598646
  43.2180099   3.7126784  15.8434334   8.3435249  69.8795242  87.8495178
   8.3012648  70.8311462  87.7553864   8.4082365  69.5527191  86.9521637
  26.9284801   8.1006098  58.1941566  26.5448132   7.5669541  58.8900337
  27.8054790   7.7377367  58.0699501  69.5645752  65.1595917   0.0312189
  68.9129028  64.4646988   0.1243381  69.3329163  65.7972412   0.7064756
  68.2389374  33.7226067  62.7678108  69.1054459  34.0377464  63.0248604
  68.0718994  34.1426239  61.9240608   4.8292260  47.7151794  10.8616114
   4.4527936  47.6021805   9.9888220   5.5503917  48.3314018  10.7334671
  46.6983681  69.0782318  76.2242737  47.1292381  69.9329529  76.2294846
  46.2843704  69.0134583  77.0848846  20.3645325  59.4810371  39.5139847
  20.0700474  59.7699242  40.3777275  21.0559845  58.8449478  39.6970482
  74.6337585  12.5154934  84.1923523  74.3959198  13.3311796  83.7515411
  74.2428589  12.5908785  85.0628357  39.7833939  66.4169922  78.3835297
  39.3003654  65.5909195  78.3607483  39.1151161  67.0805664  78.5547104
  83.8740158  19.7900543  82.7644501  84.2610245  20.6558952  82.6349258
  84.3025284  19.4513187  83.5504913  54.3479805  67.0220032  57.9846230
  54.5786400  67.0636292  58.9126854  54.4380608  67.9231796  57.6747894
  75.8077393  42.5061874  36.4174347  74.9675217  42.1694984  36.1061211
  75.6386337  42.7738647  37.3207550  68.2131271  56.9359245  48.1905785
  67.5694351  56.6905098  47.5260048  69.0349503  57.0225945  47.7075462
  34.4225006  42.7517395  74.9341202  33.8537903  42.7154198  74.1650391
  34.4335442  43.6766548  75.1803665  71.2024002  40.3169365  79.0158386
  71.3777924  39.4713631  79.4287186  70.4933472  40.1392403  78.3978500
  23.2611694  48.3275452  39.7335472  22.3052425  48.3012962  39.7753067
  23.5404739  48.3462181  40.6489029  17.8771038  57.8379097  32.9360962
  18.5967560  57.7282104  32.3145638  17.0860214  57.7326355  32.4075699
  74.8312149  48.5800323  35.8452415  75.1689453  49.4298477  35.5624237
  74.0505905  48.4419556  35.3087769  51.1776505  28.5584183  64.2005615
  51.4728851  27.7998962  63.6968575  51.4632874  28.3772221  65.0959930
  32.6117020  55.0968208  46.9619713  31.8636227  54.5015259  46.9146576
  32.5805168  55.5864525  46.1400681  68.2096481  68.6451416  12.0735359
  67.3664169  68.8200378  12.4913845  68.6660614  68.0692749  12.6869650
  42.3497963  70.0858307  33.9471054  42.8820076  70.4408112  33.2350883
  42.9182549  69.4452896  34.3746529  15.5698185  61.2028847  88.4112778
  15.4838219  60.6779442  87.6154938  15.2410994  60.6358910  89.1089172
   4.0033908   4.7019300  71.3516922   4.8754296   4.3111014  71.2966156
   4.1586032   5.6441531  71.2856903  65.3984528  26.1039104  63.8247414
  64.6988831  26.1321964  63.1720314  65.8554153  26.9387398  63.7223930
  14.9856920  32.6163864  71.3524628  14.4800053  32.1014442  70.7236938
  15.8812170  32.2901154  71.2640610  21.9121418  63.7845154  11.7554455
  21.6999702  63.4226532  10.8950558  21.7849026  63.0538597  12.3605804
  40.6604996  25.5983181   6.2076359  40.8687248  24.8164120   6.7190022
  40.4992561  25.2700710   5.3230534  57.1581764  10.2037687  38.5445709
  57.2038078  10.0703306  39.4913254  56.2237968  10.3015280  38.3612328
  58.0269585   0.6905346  59.0905685  58.7133484   0.0364590  58.9590988
  57.4962730   0.3403212  59.8060799  41.6264954  69.4412079  75.4986420
  40.9588966  69.2218475  74.8487015  41.8287697  68.6082840  75.9247360
  12.4794006  38.4000168  33.5332870  11.8522043  37.9851112  34.1254959
  13.1731262  37.7494278  33.4250641  85.4382248  62.9516106  29.1269569
  85.6481476  63.7908058  29.5367317  85.0082016  63.1873779  28.3049316
  65.4798813  48.1778603  23.4797153  65.2320480  48.3069267  24.3952236
  66.4351730  48.2382088  23.4793930  14.8755455  52.1516190  60.3588295
  14.2628517  52.0769424  61.0904465  14.3441448  52.4811401  59.6340828
  13.8834314  14.4221306  29.0545006  13.3406906  14.9736557  29.6179581
  14.2285728  15.0218229  28.3930779  72.6553040  32.7942162  30.6284809
  73.3693085  32.5341835  30.0464058  72.0231857  32.0780678  30.5668907
  22.6491222  69.8980865  76.7826309  23.3358212  69.2369537  76.6955719
  22.0475941  69.7151108  76.0608902  44.4673882   2.0070274  70.2559280
  44.1494331   1.1089600  70.3487320  43.7476044   2.5503058  70.5768585
  25.7846832  45.7580948  50.9150658  26.1016941  45.8432274  50.0159035
  24.9600296  45.2789345  50.8339272  70.4274292  13.0205135  21.0105267
  71.2954025  13.4076738  20.8967171  70.2204590  13.1638288  21.9340286
  18.8109684  18.2135620   9.9859171  19.5782261  18.7765293  10.0889425
  18.0942020  18.7111797  10.3794317  48.7891769  41.9349785  69.1749344
  48.7211571  42.7720718  68.7157211  49.1825218  41.3418999  68.5348053
  40.0933914  10.2781916  16.2008400  39.7724800   9.6882877  16.8829403
  39.4838982  11.0161047  16.2161541  69.8600998  44.4498558  62.5276718
  70.2186203  45.0292015  63.2000237  70.4762421  44.5191422  61.7984314
  12.6936264  31.2060280  79.7652359  11.9742966  30.5946598  79.6070404
  12.9020491  31.5595551  78.9004745  42.7418251   7.7413626  73.4633026
  43.4872284   8.0753155  73.9623871  41.9867668   8.2113752  73.8171463
  29.4750099  41.3177109   0.4054024  28.9313221  40.5301857   0.4263946
  29.9758472  41.2414131  -0.4067379   2.2103996  28.5899506  64.6840363
   2.4889932  27.7439499  65.0346069   2.5870075  28.6205215  63.8045692
  35.8397636   3.4861228  21.5923996  36.5290413   4.0531197  21.2465038
  35.8154068   3.6826930  22.5288830  20.6296673   9.8548832  61.4582634
  20.8354130  10.4472866  62.1814232  20.3912144  10.4341755  60.7345314
   4.6264424  39.1890526  43.8317909   4.3189893  38.2956047  43.6786270
   5.5519834  39.1688652  43.5884819  53.1718559  37.2260246   1.2595253
  53.2723007  37.5498466   0.3643822  54.0455132  37.3055649   1.6424497
  67.6507721  57.3180428  69.4494400  66.7508011  56.9928398  69.4723434
  67.9842758  57.0400124  68.5963821  18.4162273  51.1098976  30.9342823
  18.6055527  50.2784042  31.3690262  18.6830101  50.9712296  30.0255318
  34.8347549   2.1637776  64.7114334  35.5325127   2.8112199  64.6105118
  35.2215309   1.4776326  65.2553482  55.1202888  60.1053772  31.9646301
  55.7255974  59.3639145  31.9566555  54.2593079  59.7102242  32.1017151
  35.4846535  51.3853607  32.0710907  35.3541031  50.8728218  31.2732849
  36.3625832  51.7550507  31.9772968  50.5531654  10.6935997  58.5840797
  50.5636597  11.4348440  59.1896172  50.9222527   9.9678898  59.0874214
  34.9403534  61.4101562   2.0101628  35.4457550  60.6545410   2.3099053
  34.2546654  61.5164948   2.6695235  51.6534576  13.8130989  77.4106445
  51.0565567  14.5613604  77.4172287  52.4685173  14.1536503  77.7793350
  24.5257607   2.2192943  78.0011444  24.3346901   3.1267238  77.7638779
  25.0716572   1.8943770  77.2851410  35.6097107  25.3286343  35.9645691
  36.4726524  25.3458786  35.5507278  35.0957146  25.9696217  35.4734726
   2.5710258  18.4266243  54.2514839   3.3860743  17.9272594  54.2008667
   2.3794577  18.6650009  53.3444519  62.2266273  11.3449602   3.1077020
  62.9611397  11.9092722   3.3491056  61.8878403  11.0224142   3.9428179
  16.7283306  26.5451508  -0.2629378  16.2233620  26.8677406   0.4835033
  17.4674683  26.0812817   0.1304224  85.9842834  48.9034882  88.9814606
  86.4186020  48.7808189  88.1373367  85.6432037  48.0371132  89.2034683
  75.0429153  27.4289474  27.5916233  75.6004715  28.2035656  27.6646004
  74.1713867  27.7778931  27.4047832  70.4345932  34.8193932  33.5725365
  70.4842834  35.4329262  34.3055725  71.3467407  34.6034050  33.3787270
   5.4756303  36.6442795  30.0819836   6.1228805  35.9739227  29.8630676
   5.3060875  36.5177193  31.0155087   9.7156239  65.5542450  68.7538147
   9.0791159  65.1633987  68.1552048   9.5988035  66.4980164  68.6448135
   2.3690114   8.7861052  50.7511978   2.5073509   8.9470806  51.6845665
   3.0032399   9.3540096  50.3136215  34.6273842  16.2252178  23.6167450
  35.0502396  15.3714533  23.7089901  35.2455482  16.7443371  23.1023350
   8.4416475  33.1648560  63.1144562   7.7635703  33.7646713  62.8035469
   8.0118876  32.3099289  63.1397820  15.0855789  51.0692902  33.9443588
  15.6801395  51.7668724  33.6684723  14.4724894  51.4990463  34.5407333
  17.5852222  66.6708069  20.7000103  18.0696735  66.2458649  19.9922218
  16.7665882  66.9546509  20.2931881  33.2875557   4.5634327  37.6039925
  33.7918739   4.7168455  38.4029655  33.8955421   4.1095009  37.0204430
  75.3133469  46.1879120  22.2495422  75.0007401  46.3001480  21.3518181
  76.1616058  45.7545280  22.1553555  66.8164673  21.6059818  17.1849403
  66.2671738  22.3719387  17.0181561  67.5904541  21.9575291  17.6249332
  29.7058086  35.7218323  84.2125778  29.9741440  36.3294144  84.9018250
  28.8770657  36.0761414  83.8902664   8.4636459  29.0126801   6.4944496
   8.4256048  29.9412632   6.7236152   9.2466145  28.9322948   5.9497204
  47.8277435  64.4472504  31.4671745  47.0754433  64.8198166  31.0073185
  47.5542412  64.4109497  32.3837471  27.7782803  56.5334816  60.1754303
  28.2852592  57.0789146  60.7768517  28.4255619  56.1915016  59.5587387
   5.0119572  50.9772949   4.5361080   4.4953880  50.3043022   4.0928597
   4.3671484  51.4962311   5.0168982  66.2502365  17.4404354  33.1810417
  65.7254868  18.0481396  32.6599236  65.6100311  16.8466778  33.5732384
  42.2398987   9.4244032  34.7289124  43.0041580   9.9979401  34.7854004
  41.5357208   9.9935961  34.4184494  13.6308346  57.9807091  39.1491089
  14.2319412  57.2429504  39.0460777  13.2565250  58.1082230  38.2774086
  80.2473297  28.3222694   0.4283596  80.7038956  27.9112911  -0.3057213
  80.6340179  27.9202652   1.2062383  34.0245247  54.9319954  52.8614464
  33.4550858  54.2216225  52.5659218  34.2001305  54.7314987  53.7807922
  53.0692787  21.6165237  17.0700016  53.1960716  20.8000889  16.5866909
  52.4882393  21.3792591  17.7927265  70.1552429  70.2660446   7.4362631
  69.7342453  70.1861420   8.2921886  70.9146271  69.6856003   7.4877443
  78.8218765  43.5127563  33.2461281  79.2863693  44.2821388  33.5755653
  79.2761459  43.2882385  32.4340553  50.7825432  62.2817879  31.0359917
  50.4544792  61.7921715  31.7902355  50.8025017  61.6412964  30.3249359
  56.1473923  24.0828705  18.1857986  56.0901108  24.9513454  17.7874241
  56.3811188  23.5021439  17.4616699  81.6106720  61.0127754  11.1571865
  81.8478165  60.1784782  10.7522926  82.4146347  61.5313187  11.1258192
  70.8646622  38.5197258  23.7333202  71.7916412  38.5776215  23.5018158
  70.4199371  38.3554420  22.9017811  56.9451065   3.9808500  84.3516693
  57.7468681   3.4792566  84.2039642  56.3050346   3.3300035  84.6396561
  65.6699982  60.3060150  53.0007668  64.7358170  60.1511536  53.1406174
  66.0731964  59.4435349  53.0997238  33.8007164  50.4149399   5.7746243
  34.0741692  50.9547882   6.5162587  33.5614357  51.0451050   5.0950155
  36.7140541   0.2370160  87.0066376  36.6451721  -0.1533001  86.1353531
  36.0657043   0.9412004  87.0055695  22.2192345  34.3522148  19.4634953
  21.5453167  34.5936127  20.0989437  22.8775749  35.0430107  19.5384808
  68.3983688  44.9175873  78.6640930  68.5775604  44.2409325  79.3169785
  69.2635498  45.1938972  78.3618546  77.1152802  44.2825470  26.5553493
  76.4375076  43.6989479  26.8963242  77.0875626  45.0451698  27.1331635
  12.1646605  29.6548100   3.6067486  12.9004278  30.2481270   3.4555748
  11.3878212  30.1932945   3.4557874  18.1441956   6.7993765  71.8289719
  17.3769150   7.3129816  71.5765381  17.8566647   6.2986898  72.5924301
  30.0645332  57.0170479  30.6283550  29.1817379  57.3744774  30.7239971
  29.9676838  56.3058968  29.9950199  17.7883072  37.8718224  65.1572113
  18.6219444  37.8632660  65.6275330  17.4078255  37.0103531  65.3284760
   1.0772554  20.5004387  38.6439400   0.4362842  19.8521729  38.9357300
   1.4418187  20.8580360  39.4535370  28.9819527  26.2760334  87.4519577
  28.9211445  25.3894634  87.0962524  29.0834599  26.8363571  86.6825638
  41.9210243  50.8588562  34.9100456  42.0337753  50.5709229  35.8159218
  41.7654572  51.8010368  34.9757996  86.1981659  47.6617355  43.9596062
  86.7065735  47.5907097  43.1517029  86.7049332  47.1696129  44.6055450
  46.2293625  25.8443546   0.3205882  45.9670868  26.4390526  -0.3821047
  47.0183372  26.2419777   0.6888830  16.5528793  18.4939823  88.4293213
  15.7735720  18.1977596  88.8996048  16.7780285  19.3284969  88.8405685
  76.5875626  50.1723938  19.9456120  77.5155334  50.3935928  19.8669796
  76.1282730  50.9499664  19.6283398  43.6327515  67.9745865  50.7289047
  42.8185349  67.5851212  51.0476494  43.3555984  68.5794678  50.0407639
  57.5566559  58.8154373  27.6393490  57.7353477  59.0794525  26.7367992
  56.8115997  58.2183800  27.5711994   8.2922840   9.6199303  50.6445084
   8.4414902  10.4742899  51.0495224   7.7539740   9.1453266  51.2779160
  35.9476967  46.6047325  71.3227158  35.9260750  46.8458824  72.2487869
  35.1958504  46.0233307  71.2089920  12.3516159  67.7694626  85.0589218
  11.7238321  67.3736038  85.6634140  12.2840834  67.2411804  84.2635651
   2.6501341  51.5186920  67.7024689   1.7991471  51.4807625  67.2658768
   2.8744299  50.6033325  67.8699265  60.7869263  36.0544128  33.0303230
  60.8858261  35.2044678  32.6013260  60.6785164  35.8434677  33.9576759
  23.5461540  34.8823433  76.5455399  22.7642956  34.8710823  77.0976334
  23.8237419  33.9671898  76.5047302  19.1525192  14.8532076  23.3669987
  20.0914040  14.6729956  23.4144478  18.8263283  14.2500992  22.6990986
   3.8898470  54.2213898  70.8699417   4.7051606  53.9516335  70.4471817
   4.1646299  54.8374023  71.5491028  86.0842743  20.7998943  36.1136665
  86.6513138  20.1298141  35.7319756  85.5163269  20.3186607  36.7154045
  12.6556902  13.2804670  83.3051529  11.8533030  13.2848558  83.8270645
  12.5092402  12.6015930  82.6464310  67.5417404  54.9487534  58.7352104
  67.4022980  55.0128746  57.7903976  68.4544373  54.6744537  58.8245468
  85.0104904  50.5433807  31.8514938  85.3581390  51.3583374  32.2137375
  84.0923691  50.7375565  31.6628819  74.9219055  30.6292152  80.3565674
  74.2967682  30.8772945  81.0376663  75.1228180  29.7112370  80.5387344
  71.4507675  41.8203087  33.8783150  70.8363800  42.5394096  34.0254936
  71.0347900  41.2842865  33.2031288  64.3597336   5.9504409  79.5649796
  64.6417999   6.3593864  78.7467957  64.5120239   5.0150962  79.4301834
  81.3952713  61.5127602  61.4650497  81.9921646  60.7912827  61.6636047
  80.8937531  61.6373444  62.2707748   1.0075169  67.7269669  55.3125992
   0.8057337  67.3227081  56.1564560   0.1554555  67.9842606  54.9604301
  62.3461304  48.3307953  33.0000763  61.6006851  48.4949875  32.4225082
  62.2672806  48.9927597  33.6869698  67.2123795   3.4352336  22.3198986
  67.8178711   3.9236372  21.7621613  66.3586884   3.8353624  22.1545506
  42.1077843  59.2749252   1.5926975  42.2156563  58.7044792   0.8316538
  41.9193726  60.1367569   1.2212443  13.4671049  51.2105751  28.9553452
  13.6528769  50.3096199  29.2199249  12.5534019  51.1930237  28.6706181
  20.2642670   8.5105553  49.1688461  21.2192974   8.5008726  49.2325287
  19.9763184   8.9709835  49.9570847   1.0420538  69.8345108  82.8306427
   0.4358432  69.1489410  83.1112442   0.7911292  70.6015015  83.3454208
  28.7059765  54.0215759  36.1518822  28.8231163  54.4023323  37.0222435
  27.7576370  54.0061417  36.0228577  33.6507950  15.8827114  71.1859741
  34.1798935  16.6328163  70.9146271  32.8531380  15.9498539  70.6611252
   9.8068323   5.4921098  75.2201004   9.9116726   4.9409060  74.4445877
   9.1274176   6.1209817  74.9768906  56.1536217  23.9377613  11.7080250
  55.7725639  24.8033886  11.5606642  56.4779091  23.6693230  10.8483686
  20.0942421  65.9887314  11.1169033  20.9081631  65.4904556  11.1909523
  19.4029198  65.3362656  11.2291269  16.3337326  42.0006523  48.5544014
  16.8273430  41.4932671  49.1987152  15.9064655  42.6872139  49.0665627
  24.3065701  22.3953037  76.8203888  23.9896927  21.5505733  76.5006180
  23.6330452  22.6867237  77.4349365  71.9698181  62.7972679  18.8572617
  72.8919601  62.7594490  19.1111412  71.8971405  63.5977440  18.3374653
   1.5993019   8.4276981   8.0443182   0.7846363   8.4772606   8.5444136
   1.5292968   7.6092253   7.5529599  54.2770462  13.9378510  78.1553726
  54.9683342  14.5739355  77.9716721  54.4165535  13.6897392  79.0692673
  30.8137302  27.8783360  16.5788803  31.1007290  27.0492992  16.9617119
  30.7389278  27.6963997  15.6421118  66.3038559   9.8248510   1.6114521
  66.1622620  10.6449709   2.0843000  66.9611282   9.3601532   2.1294110
   8.7320910  50.8864403  77.4208984   8.1378880  51.6186714  77.5851746
   9.3916941  51.2422028  76.8254242  58.5559311  51.9811668  88.6912003
  57.6635017  51.8586731  89.0149231  59.0480118  51.2488747  89.0624542
  73.0486908  30.3381367  53.9967728  73.1394196  31.2468891  54.2834206
  73.9215240  29.9624252  54.1118355  72.9212799  39.8536491  46.2806892
  72.2734375  40.5535011  46.1985779  72.5751266  39.1423950  45.7416878
  61.2353821  57.9093361  19.4734459  61.6350250  57.0645943  19.6806355
  60.3662262  57.6875916  19.1393299  32.3664436  66.9700546  26.4698753
  31.6086445  67.1377487  27.0301018  32.0697517  67.2020416  25.5898819
  19.7468987   1.3398014  68.0781937  19.3431549   2.2062111  68.1287689
  19.0768948   0.7863975  67.6768570  60.6287346   6.1397524  30.9902306
  61.0132446   6.9634814  30.6904774  60.7789955   6.1352901  31.9355507
  83.5830078  19.1131439  35.5371132  82.9865189  19.6749821  35.0423660
  83.5164413  18.2588215  35.1105728  10.1292582  57.1414299  70.9189301
  10.8987083  57.4895134  70.4683609   9.6945086  57.9132538  71.2815781
  85.8131332  68.9735336  57.6472931  86.1538620  68.0847549  57.7483139
  85.4657974  68.9969788  56.7556458  20.7057877  46.8805885  72.2229843
  20.9110870  46.3162422  72.9683685  21.1231747  47.7160110  72.4329681
  67.4372101   4.4687042  50.2895012  66.6775970   3.9022539  50.4249916
  67.1296463   5.1402559  49.6806870  44.5429268  56.6307793  55.8710518
  45.4189529  56.3139763  55.6509514  44.0579910  56.5860138  55.0469971
  73.5396652  30.5631580  64.5665512  73.5274124  29.6080036  64.6278763
  73.5625992  30.7425423  63.6265907  23.8990765  61.6646500  46.4120331
  24.4253693  62.4314766  46.1857109  23.7837029  61.2001953  45.5830574
   1.5437435   1.4462833  34.6773643   1.1939253   1.0133201  35.4560814
   1.6971997   2.3496480  34.9541588  70.6954727   1.2208669  67.4492188
  71.2057724   2.0306504  67.4402695  70.9751816   0.7527977  66.6625137
  48.9659081  42.4920654  24.7041779  49.3760529  42.9524765  23.9720325
  49.0247002  43.1059189  25.4362698  27.0878525  69.0659409  48.3170967
  27.0541573  69.9539871  47.9614601  27.6693497  69.1331406  49.0744476
  58.9662132   3.9503651   3.2531505  58.9815331   3.2368672   2.6152492
  59.8730469   4.2539315   3.2947834  33.8489532  53.1458588  61.5046463
  32.9330826  53.2920609  61.7413673  34.3469200  53.6261902  62.1661148
  68.5967789  55.8860207  10.4397593  67.6835327  55.9249649  10.1556921
  68.7863617  54.9503479  10.5090561  48.4171982  42.0374107   8.2260647
  47.7157974  42.2330437   8.8473501  48.8863754  41.3011703   8.6185608
  86.4527054  24.6090050  80.9438934  87.0824280  24.0010223  80.5565491
  85.9139023  24.8973866  80.2071686  84.2967148  36.5480919  16.0916309
  83.5853195  37.1817741  16.1843281  85.0485153  36.9693565  16.5082378
  52.0963554  48.6060333  63.5760994  52.5693283  49.2768402  64.0685883
  52.3629799  48.7436142  62.6671371  17.8729725  45.4144592  87.3470230
  18.7123833  45.8669624  87.4298630  17.5511551  45.6634102  86.4805984
  13.5412035   9.8456459  45.1585693  12.8786316   9.4150734  45.6987877
  14.0678110  10.3479080  45.7803802  31.4903927  61.4714661  62.1536827
  32.4276390  61.3667793  61.9898529  31.2864075  62.3475075  61.8263130
  52.5754547  69.0106812   9.2625408  52.1769791  69.1520233   8.4037781
  52.2251205  68.1687546   9.5534983  20.8596573  11.5446415  63.4053688
  21.2316437  12.4025745  63.6098442  19.9254627  11.6380119  63.5919075
  77.9074097  19.2914486  63.9095612  77.0893936  19.7650681  64.0604706
  78.2237778  19.6217346  63.0686989  82.1691132  20.9647999  60.1096840
  81.3602676  20.7985210  59.6255798  82.8653793  20.6802158  59.5176849
  80.1427917  39.7876129  63.9179459  79.8049927  38.9497643  64.2343826
  80.8967972  39.5529404  63.3769913  59.0279655  47.3124084  57.6887779
  58.9489517  47.3342476  58.6424637  58.1440620  47.1138802  57.3796997
  76.0712433  54.9729462  55.1392174  76.3840485  54.0922012  54.9326591
  76.3825226  55.5139961  54.4135437  85.6448898  71.1378098  35.4570656
  85.4612808  71.6563110  36.2404366  86.5722351  70.9124222  35.5309486
   3.5615809   1.0936874  71.3005829   3.1432025   1.8734498  70.9356689
   2.8529212   0.4546445  71.3757935  75.5859451  14.4347296  34.9292870
  74.9932251  14.8134165  35.5785217  75.0093155  13.9823837  34.3135681
  22.3906746  16.8228893  65.4277267  22.2531662  16.0892582  66.0269852
  23.2446537  16.6511860  65.0309067  44.8207970  21.4764690  85.4339752
  44.9818192  20.8557701  84.7233200  44.9033966  20.9539223  86.2316971
  75.2957382  35.1019249  84.5224152  74.4286804  34.7116776  84.6326599
  75.8862839  34.5083504  84.9862671  81.7274475  30.4090881  59.4653091
  82.0472031  29.5101013  59.5415573  80.9154816  30.3328056  58.9641914
  32.1615410  62.0544739  50.0731735  31.6389179  61.8997307  50.8600349
  31.9616108  62.9575043  49.8266106  29.1880684  68.0449600  26.2435684
  28.7608662  67.1892853  26.2042618  29.1446514  68.2921371  27.1672859
  23.6982479  65.3564987  50.1164780  24.4023094  65.8331757  50.5561409
  23.0243893  65.2513657  50.7881126  15.9556017  50.8844719  88.3169098
  15.4122858  50.7841797  87.5352554  15.4371729  51.4396744  88.8993301
  53.6239243  23.0520687   5.3270340  52.9865875  23.6776180   4.9824786
  53.8489342  23.3918762   6.1931362  61.5578117  57.7096786  34.3934250
  61.0503616  57.5545502  33.5967674  62.4635468  57.7769279  34.0911751
  26.5384293  68.9937820  71.0051575  25.9001122  69.7029037  71.0821686
  27.2859650  69.3918228  70.5590744  46.5402946  63.3658295  69.8303757
  45.7694664  63.5313606  70.3731995  46.8372383  64.2360458  69.5643311
  38.2005577  29.7494450  17.8370819  37.2962646  29.5644016  17.5836163
  38.1568031  29.9113674  18.7794724  84.8427582  63.2429123  58.3261986
  84.2076492  63.9293404  58.5303764  85.5968704  63.4415512  58.8812599
   7.3587942  60.5159073  50.2347412   6.9789820  59.6612625  50.4385872
   8.1643801  60.5492020  50.7506447  66.2834473  57.5726051  18.6870365
  65.6353531  57.0862007  19.1965656  65.7660294  58.1825714  18.1612473
  48.6440506  54.5175552  84.4361954  47.9519463  54.3999290  85.0868835
  49.3552895  54.9409714  84.9169159  80.8244324  60.7452545  36.6450386
  81.7070465  60.6358185  36.2911453  80.7735977  61.6718941  36.8795319
  49.3336449   4.7904902  61.6610832  48.7480392   4.7028871  62.4131622
  49.9676476   4.0812731  61.7673035  42.0472641  58.4211884   5.1781473
  41.1039314  58.4918823   5.0319967  42.3938255  59.2763557   4.9235673
   7.9715986  45.1394005  81.7030640   8.5901890  44.9896584  80.9881134
   7.8561144  44.2780266  82.1042175  84.4422684   0.5081111  85.6551437
  84.7179947   0.6566737  86.5596466  84.5522766  -0.4334918  85.5227966
  23.3040199  37.3119926   8.6014986  23.0233650  37.9461403   9.2612886
  22.6695843  36.5985184   8.6698971  52.2870026  10.5593405  73.4119492
  51.7272491   9.8273001  73.1530533  51.8601837  10.9248314  74.1868515
  72.6028442  46.2883492  54.7457809  73.0308914  46.9724579  55.2605705
  72.4678650  46.6852264  53.8852577  47.8779793  66.5426331   5.6020727
  48.0121956  65.8926163   6.2917867  47.1759644  66.1783066   5.0629292
  19.8188362  54.0476952  64.1665039  19.0001526  53.8280334  64.6111832
  20.1691799  53.2044487  63.8794022  20.5151653  41.9019470  60.9326553
  19.7829113  42.4097862  60.5831795  20.7500668  41.3020363  60.2247276
   9.5637598   8.4716139  73.5457077   8.8890371   9.1505699  73.5466614
  10.0969915   8.6649361  72.7746582  62.5379295  36.0169640  46.9073715
  62.3434525  35.2365303  46.3883972  61.7206116  36.2085609  47.3672791
  84.5182266  68.3097305  12.7444057  83.8642349  68.7269440  12.1836271
  84.0467682  68.1073837  13.5525026  22.7881126  40.1175346   0.4966523
  22.5592232  40.4905586   1.3479420  22.1930351  40.5443993  -0.1197063
  65.7413177  50.3060265  52.2922211  66.5757904  50.1657410  51.8447762
  65.1152649  50.4675598  51.5863876  12.9674644  34.9711761  75.4815598
  13.7562332  34.4320564  75.5400772  12.4897041  34.6160622  74.7319794
  55.6893654   9.1472549  32.4575081  55.2787857   8.3624144  32.0946312
  54.9784584   9.6027775  32.9084396  82.5650177  45.9180527  34.7121124
  82.7571335  45.3254204  33.9854012  83.3380203  45.8661652  35.2742615
  31.5418453  14.8145638  22.1409111  31.0761986  14.2035437  22.7119255
  31.4331455  15.6668730  22.5627918  44.9035721  11.5425558  14.0449305
  44.6729240  10.9778709  14.7826052  45.0338631  12.4063911  14.4361401
  62.5527611  46.3702164  48.1005135  61.6807251  46.4887962  47.7240448
  63.0894279  47.0405006  47.6775055   3.1272984   0.9240289  41.1897163
   2.5917709   0.2311305  40.8032799   3.7114491   1.1978025  40.4825783
  66.6487122   8.8419094  58.3621292  67.5629959   9.0798216  58.2081413
  66.1839218   9.6784134  58.3837433   8.4122734  21.1491642  37.5044785
   8.2514629  20.3717022  38.0391998   8.1540918  20.8892384  36.6201668
  18.8267803   3.0664635  50.0595551  19.2716656   3.8806796  50.2948456
  19.5019169   2.5395427  49.6320343   1.0670320  60.3627129  48.7661743
   0.7992854  61.2816200  48.7784462   0.8366199  60.0578041  47.8885803
  30.5440006  43.7894478   0.5007834  31.3591518  43.7636719   1.0018761
  30.1331825  42.9412003   0.6679271  68.2812424  66.8821716  78.9554596
  67.5507431  66.7281952  78.3563766  68.0072479  66.4745026  79.7770157
  41.7306595  41.9107666  59.6578979  41.5556374  42.6140671  59.0326233
  40.9532852  41.3538628  59.6157494  19.9534378  30.2222157  19.6347294
  19.2280006  29.6057014  19.5353203  20.5355453  29.8065624  20.2708244
  31.4472885  52.9920845  49.4717026  31.6886482  53.8886147  49.7045326
  31.4557190  52.9826622  48.5145836  39.5416527  68.7675247  48.8302650
  40.3343620  69.0571747  49.2818718  39.0724068  68.2455292  49.4810791
  82.1983948  42.1590729  13.0772362  82.8291702  42.7797356  12.7123690
  82.3770142  41.3383217  12.6182232  63.2139397  18.3264503  69.2076035
  63.3240509  19.2649860  69.0550919  62.3277626  18.1361351  68.8998718
  51.6078568   6.0448594  10.8185453  51.9807777   5.4394708  11.4593782
  52.2318192   6.7698474  10.7825766  40.7156677  45.9024010  14.6965513
  41.4378014  46.3138237  15.1714039  39.9715996  46.4876633  14.8382082
   6.0370302   6.5248127   1.2450117   6.0128179   6.5295086   2.2018938
   5.3469467   7.1350522   0.9849644  26.1398449  60.5084991   5.8070955
  26.6478138  59.7375069   5.5545683  25.7889900  60.2917671   6.6709008
  27.2879848  47.2690811   3.9292424  27.8366432  47.9029770   3.4673111
  27.2814770  47.5741730   4.8364949  43.2285728  38.6142082   1.2504299
  42.9281158  38.6678658   0.3431931  43.6919746  37.7781372   1.3002181
  53.6094398  66.6568756   3.4759762  53.9085426  67.0316391   4.3044200
  54.1975250  67.0288010   2.8186648  71.0089340   5.0143523  41.3461647
  71.9501572   5.1883640  41.3538055  70.7825241   4.9622512  40.4175873
  34.9922485  33.0755081   2.5810168  35.3858376  32.3445511   3.0574839
  35.1845055  33.8434372   3.1191247  19.7252350  11.4170713  80.5500717
  20.5043774  11.9619999  80.4395294  20.0417461  10.6358051  81.0035934
  69.2186050   8.1920280  25.3582764  68.9578018   8.7885332  24.6565666
  69.4932404   7.3948121  24.9052277  74.8286362  41.6092644  21.8271732
  75.0944748  41.0166092  21.1240921  75.5748138  42.1983070  21.9388580
  17.3966656  58.4797478  76.5044632  17.6642170  59.3987694  76.4978638
  16.4472866  58.5075264  76.6233673  57.2630692  68.7095032  60.6784363
  57.0009766  67.9491882  61.1975365  57.9764023  68.3884888  60.1267662
  77.0864029  11.7099066  56.8600349  76.9285889  11.9222155  55.9401169
  77.9503632  12.0776749  57.0459137  61.6834106   7.3757725  71.4622116
  62.5753136   7.1160250  71.6930161  61.6197548   7.2048631  70.5225449
   9.3558960  25.5990353   9.0958099   9.1858845  25.3553753  10.0057316
  10.2869244  25.8205509   9.0771255  13.9080200   1.5523931  71.1847839
  13.6254768   2.3952663  70.8298721  13.2390909   1.3286269  71.8318558
  28.2146339  10.2918673  62.5219154  29.0633183   9.9769354  62.2108078
  27.6706867   9.5057583  62.5707474  67.7796478   1.4993988  58.7969017
  66.9580536   1.5123512  58.3059425  68.4089355   1.0943433  58.2001076
  45.2470055  51.2427216  44.1669617  44.5705109  51.7346001  44.6324043
  45.6201286  50.6621513  44.8302460   5.3104119  40.3110847  83.5408859
   5.7170892  39.4448929  83.5173645   5.5043058  40.6900749  82.6835556
   8.4740601  20.1434460  82.3489532   8.2691307  21.0504856  82.5759201
   8.3900414  20.1101551  81.3960266  82.3004532  49.2327347  12.9535885
  82.1167297  49.9395676  13.5723476  81.9351578  48.4508934  13.3677359
  29.6045494  57.4373207  71.5884247  30.3733711  57.0349007  71.1844406
  29.2944107  56.7844925  72.2160034  68.2691345  61.6575470  27.2235661
  67.6158981  61.1937065  27.7473679  69.0530319  61.1111031  27.2795868
  82.8029404  39.0118484  16.0214481  82.6968842  39.4492035  16.8662586
  83.5428238  39.4595795  15.6111670  56.8551750  37.4569893  10.1418009
  55.9696388  37.2860832   9.8210993  57.2910271  37.9028854   9.4155502
  67.4774094  31.3943157  26.2380829  66.7270050  30.9607677  26.6444874
  68.0344009  31.6487064  26.9737988  25.3150234  63.5974464  23.1425762
  25.7585030  62.7986031  22.8572617  24.7360973  63.3107758  23.8489017
  52.1951180  20.4419250  26.5060978  52.6262054  20.8053379  27.2796116
  52.0319633  21.1997643  25.9445877  41.6101685  10.3268919  72.6968536
  40.7255707  10.6925344  72.6917496  41.5804138   9.6189098  72.0533447
  81.4242783  39.4226799  33.3401108  81.3659744  38.6967049  32.7189865
  82.1801224  39.2095528  33.8873825  31.6799946  30.0584507  76.9823227
  31.4692764  29.1300602  76.8827209  31.3014164  30.4744110  76.2077942
  69.3144302  10.9835463  76.4512939  68.5087051  11.4535036  76.6661987
  69.0414200  10.3149071  75.8231049  39.1371613  17.4678230  34.3530731
  39.5684319  18.3210735  34.3999634  39.7582321  16.9110165  33.8835335
  56.4085846  64.9501953  79.6722794  56.3482056  65.4840240  78.8800659
  56.1193352  64.0801239  79.3974304  42.6145897  55.9912643  39.7253914
  41.7583771  55.5644188  39.7559090  42.4300499  56.9118576  39.9116135
  32.1360321  41.7108421   9.8033476  32.2041397  41.1893616  10.6031275
  32.7361870  41.2874527   9.1895180   2.8784571  16.2368603  34.5910492
   2.5255125  16.6053524  33.7811890   2.2105913  15.6163502  34.8828621
  45.0156860  53.1652489  34.2196350  45.0322876  53.1491966  35.1765556
  44.2964058  53.7583046  34.0024796  33.8418846  36.5810051  70.5632477
  34.4962997  37.1954842  70.8955002  33.3245239  37.0943947  69.9427643
  77.8440552   6.9717627  81.6362534  78.4687805   7.6715174  81.8267441
  77.2289124   7.3623052  81.0155258   4.7489657  24.5415936  58.4676094
   5.2597003  25.3462811  58.3789635   4.7121859  24.1823750  57.5811348
  66.2474136  27.1208534  70.8409042  65.5967865  27.3354511  71.5093842
  66.0329285  27.6942863  70.1051025  72.1226959   7.9028640  61.8590469
  71.4807205   7.2139592  62.0308266  72.1275024   8.4303408  62.6577835
  15.5763540  45.4530144  89.2388840  16.1886444  45.6894989  88.5421753
  14.7770901  45.9363365  89.0295792  61.6481552  32.4917717  36.5711632
  61.9873466  31.7664948  37.0957108  62.4248238  32.9964638  36.3296967
   5.4439631  41.7266541  17.7837963   6.3344989  41.7707596  18.1319809
   4.8883324  42.0074272  18.5108948  81.4635239  71.2476044  52.3685608
  82.1730957  70.6298447  52.1921768  80.6928787  70.8489685  51.9642868
  41.0680618  64.2734680  85.3952713  41.2535591  64.4405518  86.3193436
  40.6467590  63.4140129  85.3871460  39.1034508  51.8193855  34.8163567
  39.0793915  51.7244034  33.8641853  39.3916473  50.9640846  35.1351662
   7.2820625  49.7642822  33.7154007   7.8278704  50.5362396  33.5657082
   7.7717800  49.2446632  34.3529015   4.8965807  36.7011795  10.8104267
   5.7809949  36.7256012  10.4451227   4.8975725  35.9389801  11.3894625
  52.2221107  25.3183041  54.5924950  52.9410400  25.8694401  54.9017220
  51.8867073  24.8961048  55.3833733  63.6218719  50.0088768  30.2678947
  64.0175323  50.3903160  29.4841957  64.3652420  49.6965256  30.7837105
  45.9736137  31.0651588  23.3172321  46.0647011  32.0148392  23.3949413
  45.8900948  30.9087296  22.3766022  13.7540655  38.3083725  10.2897043
  12.9843264  37.7649536  10.1210976  14.4656973  37.8657455   9.8272171
  14.0261745  33.5179367  27.6658707  14.5592747  33.9029007  28.3614559
  13.1550293  33.4299164  28.0526409  58.5146866  21.4710941  74.2914200
  57.6327820  21.5620403  74.6522598  58.4884338  21.9597263  73.4687500
  76.0717392  68.9743805  67.3467102  76.5974884  69.3768387  68.0379715
  75.3690796  69.6034775  67.1831970  81.7781143  33.2140388  69.3078232
  81.7943954  32.8834572  70.2059784  82.6997528  33.2638626  69.0541916
  79.0251083  18.9830284  52.4597435  79.7631836  19.4888096  52.1196518
  79.3295670  18.6541901  53.3055573  65.9534836  52.0507584  44.0801849
  66.1188507  51.6441574  44.9308052  66.7661514  51.9219170  43.5910912
  16.8550777   0.3953112  11.3049774  16.8013458   1.2346448  11.7619934
  16.6436729   0.6040822  10.3950577  81.3952866   5.5267668  36.7768021
  80.6555405   4.9359565  36.6355324  81.1681290   6.0091467  37.5717506
  65.5111313  59.4776268  12.8101101  64.9797974  59.1941719  12.0660877
  66.2430725  58.8611145  12.8304205  74.6418610  45.9790344  29.6359768
  74.4582443  46.0369263  30.5736160  73.8247375  45.6622620  29.2510109
   1.6660389  38.8357048  19.1470089   0.9144756  39.1562347  18.6483650
   2.3578210  38.7272453  18.4943943  85.6722717  66.0178680  36.2341881
  86.6119995  66.0065384  36.0524940  85.2771759  65.5808716  35.4797630
   6.0011153  22.3733330  47.6011848   6.6864839  21.9288368  47.1022606
   6.0596528  21.9947567  48.4783859  76.2678223  31.5518093  40.6866226
  76.4145660  32.4475937  40.3828621  75.9452591  31.6524086  41.5821991
   6.5478125  63.3171768  49.1987572   7.4320693  63.6287155  49.0057182
   6.6408148  62.3680267  49.2806168  50.3013992  39.7008400   7.2997255
  50.2540359  39.3233528   8.1780710  50.7932892  40.5139008   7.4146662
  72.4494400  54.7480469  38.7222176  72.5518494  55.6866493  38.5648537
  71.6914444  54.6839027  39.3032150  33.2114182  70.8043137  80.2323761
  32.8576851  71.3680878  80.9203262  32.8996696  71.1970215  79.4170074
  77.5694504  11.1204262  19.4802704  77.8596115  11.4859619  18.6445560
  77.2259750  10.2553329  19.2569580  29.7919388  64.8893127  40.5989304
  29.7794838  65.7871704  40.2673607  29.2630501  64.3952942  39.9724731
  19.3886337   9.0994797  24.4034805  19.3157730   8.2856064  24.9020119
  20.0552845   8.9160290  23.7415485  12.2204952  13.4303493  54.6328545
  12.1374502  14.2102852  55.1815224  12.7521610  12.8274345  55.1525269
  35.3585358  10.0866213  49.0916328  35.7466393   9.5329065  49.7691345
  34.4785843  10.2796974  49.4151154  41.9964066  32.7546234  81.5407181
  42.3036194  33.6558037  81.6393738  42.6107025  32.3584671  80.9227142
  85.8778610  51.9384727  77.9628448  85.3582687  52.3718872  77.2857895
  85.2889252  51.8784943  78.7150345  82.7412262  42.2338333  46.0441360
  82.8238907  41.8585472  45.1674614  82.8442307  43.1762466  45.9119339
  35.1245956   6.0605860  45.0206223  35.7579575   5.5123091  45.4837341
  35.1516190   6.8991513  45.4813919  38.1231880  59.9024162  16.5786228
  38.4921875  59.3328438  15.9035969  37.7642212  60.6460838  16.0945396
   2.7059119   6.2828798  23.5555210   2.6412551   7.2245817  23.3966236
   1.8370783   6.0328178  23.8698921  79.3493118  21.9033184  34.7020149
  80.0785294  21.5418987  35.2058563  79.4461517  22.8517895  34.7872047
  48.8098869   6.9792266  26.8375664  48.8120117   6.0221305  26.8236027
  47.9755745   7.2109590  27.2455559  13.9328508  15.8154182  36.3324509
  13.8808184  14.8596725  36.3410110  14.7995157  16.0113010  36.6884766
  12.5551291  26.2225037   1.4260361  12.7177515  25.9406490   2.3262272
  11.8122854  25.6913166   1.1392351  32.9666176  17.1489639   7.3728552
  33.7826042  17.0809612   7.8686056  32.4344940  17.7691269   7.8713293
   8.6433029  42.5949364  50.3614502   8.4276104  42.4485970  51.2824783
   7.8010335  42.7751617  49.9439201  49.2091484  33.1316566  20.8934650
  49.8648720  33.5688438  21.4367180  48.4374237  33.6951599  20.9494629
  39.0368614  64.9095993  49.6652565  38.5269585  64.1822205  50.0218430
  38.9336090  65.6119461  50.3073463  56.9464035  40.7173195  73.9857864
  56.5715942  41.5925369  73.8870621  56.2654076  40.1273003  73.6627502
  32.5947456  48.9991493  61.8236618  33.1098099  49.5540962  61.2380219
  32.4224052  49.5510368  62.5865211  17.3849945  61.2756348  17.6936646
  16.5614109  61.7591591  17.6292782  17.7342091  61.5107765  18.5533104
  72.3168259  34.1919060  54.4177895  73.2140350  34.0329323  54.7110062
  71.7696915  33.7829857  55.0883560  82.0667877  34.7294235   7.9979610
  82.9932861  34.4891319   7.9882240  81.7074661  34.2673874   8.7553539
  69.5503998  15.2964916  64.9593124  70.0407639  16.1104088  64.8439255
  68.7724533  15.4059858  64.4124680   6.6681495  27.4064045  28.4568920
   6.7604275  27.8221779  27.5996590   7.4465914  26.8557930  28.5410748
   6.9343867  34.1559334  47.3389473   6.0340643  34.0967865  47.6585617
   7.2378931  33.2486305  47.3086891  70.2150726  63.2349586  53.7013206
  70.0274048  64.1009445  53.3392792  71.1416168  63.0906754  53.5091515
  83.7803726  45.3675079  82.4704437  82.9086609  45.2059135  82.8313217
  83.7301254  46.2529373  82.1102676  51.3992691  44.9707794  82.5572128
  51.5107880  45.8605537  82.2224045  50.8196030  44.5474815  81.9239349
  64.3507156  55.4643517  37.8293457  64.5101624  54.5329895  37.9822273
  64.1617661  55.5244484  36.8929062   1.1691757  44.3832664  60.1564674
   2.0055335  44.0225563  59.8621407   1.4105510  45.1125832  60.7274895
  26.1251392  24.2999992   8.5790052  26.0402508  25.2532845   8.5955639
  26.2664299  24.0881138   7.6563063  78.6709061  64.9983673  85.9687500
  77.8901596  64.4882507  85.7532578  78.6672134  65.7193909  85.3391953
  10.1455908  49.3931389  56.8559341  10.9878416  49.3260765  56.4061050
   9.7551785  50.1977081  56.5146446   6.8306465  27.3901291  38.0572014
   6.6985555  27.1874714  37.1310730   7.3396978  26.6525803  38.3935356
  84.3745041  62.8217278  23.7865334  83.9027481  62.7310905  24.6144638
  84.4251328  63.7665825  23.6419125  10.2271137  58.5676498  88.2500534
  10.9092894  57.9023933  88.1589279   9.4285221  58.0695076  88.4242325
  28.9382229  24.1694012   9.9661779  28.8333054  24.0638447   9.0206184
  28.5016632  23.4051304  10.3423958  21.3146305  52.2272644  41.7154045
  20.8552532  51.4368591  41.9990692  22.2422142  51.9966621  41.7668076
   5.8818588  58.0005188  74.9248428   5.4833779  58.8397141  74.6941986
   5.6581745  57.8745575  75.8469772  62.3806839  43.7092094  49.7903557
  63.2314796  43.7966423  49.3605461  61.9341850  44.5360451  49.6081200
  75.6489182  61.4293671  38.8034744  75.8734207  62.2222977  38.3165550
  76.2282867  60.7565765  38.4458313  17.2028217   2.8008373  58.8951530
  16.5686855   3.4362714  59.2273102  17.8339195   3.3266916  58.4038010
  18.8013477  59.3266296  20.9619408  19.4161263  58.6000862  21.0639992
  18.9489326  59.8752708  21.7322922  67.9373398  51.9729233  75.3404083
  67.2865982  52.2714005  74.7050552  67.4663315  51.3456688  75.8889923
  82.6433868   6.9898114  24.9232807  82.8567505   6.7711372  24.0161476
  81.7728424   7.3849764  24.8759975  70.2148819   5.8654699  24.4122620
  71.0655823   5.8979039  24.8498516  69.6591415   5.3607864  25.0061340
  65.2704391  59.3017654   8.0131388  65.9968414  59.6461143   7.4935322
  65.2270279  59.8784752   8.7758675  50.9740677  57.7148933  47.8322220
  50.9518051  58.5139236  47.3056412  51.8578186  57.6945610  48.1993828
  58.9327774  53.7643242  57.7450638  58.6916618  52.8874702  57.4463654
  58.8207741  53.7329292  58.6951714  57.4455109   8.9968996  59.1627388
  57.6418076   8.0683794  59.0380402  58.0815010   9.4523487  58.6110954
  10.6543655  65.0896912  55.7547836  11.0182114  64.5109482  56.4247894
   9.9270287  65.5335083  56.1909447  76.6585617  27.5901985  72.0597305
  77.3537064  28.0814915  71.6219635  75.9447174  28.2204037  72.1571579
  18.0287628  56.2212944  74.8882599  17.4465523  56.9809875  74.8768768
  18.8653946  56.5558472  74.5652237  86.1699448   7.9869680  62.9354057
  85.3723984   8.4963980  62.7917938  86.0596237   7.6103320  63.8084488
  61.9498940  20.5582218  52.6093254  61.9794617  19.6015224  52.6001205
  62.1748199  20.8134232  51.7146149  17.0642776  64.4625397  36.6814194
  16.5095940  64.0357819  36.0283966  17.0660686  63.8597031  37.4249382
  74.3232346   9.0662794  37.0191154  74.4139099  10.0055618  36.8586159
  73.6580429   9.0035362  37.7045441  47.1599083  71.2529144  64.4729233
  47.1504402  71.6648407  63.6089439  48.0274544  70.8537903  64.5384827
  46.3145676  44.9252129   8.8161316  47.1574402  45.1432533   9.2139463
  45.8665047  45.7664719   8.7280769  68.5890274   9.6459827  46.3078003
  69.3861694   9.1194611  46.2480507  68.5738449   9.9556684  47.2133904
  67.4453812  37.6215515  33.8070030  68.3411026  37.8340912  34.0691757
  67.3888474  36.6702576  33.8968925  64.5438843  17.3089142   8.6680994
  64.8663254  17.6393013   9.5066147  63.8822632  17.9457989   8.3981628
  78.0257645  70.1595612  22.1313725  77.1368256  70.4458389  22.3412704
  78.4591370  70.0812912  22.9812508  34.9072151  58.5262756  72.7557907
  35.4245567  58.1860542  73.4857559  35.0389633  57.8908234  72.0521774
  57.0119476   0.0223780  56.3648338  57.5304451   0.8180550  56.2452965
  56.5094681   0.1817143  57.1638069  26.4399624  65.3064423  42.0420303
  27.1182137  65.9489212  42.2504158  26.1048946  65.5802536  41.1882210
  11.3119173   0.9489332   1.2389995  11.1873465   0.9376388   2.1879919
  11.2405958   1.8728213   0.9990498   0.1948251  59.5151634  37.9562683
   0.9218377  59.2162323  38.5024643   0.5770265  60.1928444  37.3986893
  86.7857944  71.6069070  89.1465141  90.0000000  90.0000000  90.0000000
