QMMM reactant CHA#2 frame 24883
 55680
  39.3111382  48.6510544  52.3364334  39.9591255  49.3499718  52.6707039
  38.3830223  48.9038696  52.6443024  39.5151291  47.7665443  52.7792931
  39.5018692  48.4040642  50.8801231  39.3176613  49.3603249  50.3904991
  40.9062309  47.9011078  50.6658592  41.5200157  48.7447357  50.9815521
  41.1631393  47.0057678  51.2319527  41.2589722  47.6464996  49.1545486
  40.7446976  46.7363701  48.8458710  40.9344025  48.5298538  48.6045914
  43.0459900  47.4384270  48.7463684  43.9282684  48.9409981  49.2384682
  43.7601624  48.9723015  50.3149719  44.9648056  48.7825165  48.9408607
  43.4133987  49.8266182  48.8660545  38.3431778  47.5721779  50.3529587
  37.8731461  46.6569176  51.0249252  37.8686752  47.7610016  49.0896263
  38.2294426  48.4432640  48.4381142  36.8666916  46.8975868  48.4973145
  35.9706917  46.8008423  49.1104431  36.3792191  47.4650307  47.1076355
  35.8833504  48.3958511  47.3829231  37.2603569  47.5928574  46.4788628
  35.4395523  46.5450363  46.3518982  35.9671059  45.6683922  45.9760208
  35.1741753  47.0776367  45.4386559  33.9840851  46.0329781  47.3572311
  32.8719711  45.9413986  45.8206024  33.2710228  45.1414642  45.1969261
  33.0132256  46.9073372  45.3357201  31.8069839  45.8273697  46.0228348
  37.4894257  45.4847183  48.2744522  38.6678276  45.2261696  48.0457344
  36.5398026  44.5576553  48.3577423  35.5547104  44.7798157  48.3393440
  36.6831436  43.1116638  48.2227325  37.7501640  42.9003983  48.1524658
  35.9409103  42.4006310  49.3512802  34.8863449  42.3848152  49.0760765
  36.3921318  40.8972702  49.4370346  36.0657692  40.4000015  48.5236244
  37.4176521  40.6137238  49.6736984  35.8855019  40.3855591  50.2553139
  36.0966110  42.9695358  50.7818108  35.7036743  43.9849091  50.8339539
  35.5019226  42.2587662  51.3556175  37.4327888  43.0097084  51.3892403
  38.0450020  42.1099014  51.3288345  38.0523987  43.7587471  50.8961639
  37.2560387  43.4015083  52.3909111  36.2320023  42.5312500  46.9102592
  35.1577492  42.9048462  46.4002533  36.9656639  41.5512772  46.3285408
  37.7766037  41.2606544  46.8558121  36.8015213  40.9062195  45.0218201
  35.7524033  41.0294609  44.7530098  37.6524086  41.7399139  44.0358887
  38.6725121  41.8681221  44.3978958  37.6344337  41.2685318  43.0532494
  36.9907112  43.1614304  43.9079208  35.9271927  43.1270142  43.6716118
  37.0453873  43.7499428  44.8237648  37.7093124  44.0714264  42.9069290
  38.7125549  44.3300018  43.2456665  37.8692627  43.5165977  41.9824409
  36.8976555  45.2461662  42.5650711  35.9585114  45.0948524  42.2256393
  37.1866379  46.4970665  42.8534927  38.1267128  46.8745918  43.6272507
  38.2263680  47.8382492  43.9127998  38.7987213  46.1864014  43.9353104
  36.3253517  47.4104996  42.5302315  35.5260239  47.0710449  42.0145302
  36.3119431  48.3154182  42.9786110  37.1875229  39.4344444  45.0391350
  37.2482300  38.8917389  46.1328087  37.4338150  38.7622604  43.8632927
  37.1629524  39.0567551  42.9359245  38.0949402  37.4281807  43.8954315
  38.7889214  37.3617401  44.7333298  37.3233566  36.6657677  44.0026283
  38.7672882  37.0152740  42.5661201  38.4567909  37.5854797  41.5239906
  39.5574684  35.9262886  42.4277458  39.6922874  35.4325294  43.2984543
  40.2080765  35.3382339  41.2383118  39.8944283  35.8534584  40.3304138
  41.7086449  35.3818779  41.3847504  41.9454765  34.8140068  42.2844925
  42.3894501  34.7443542  40.1377296  42.3243027  33.6566696  40.1659012
  41.8708725  34.9939919  39.2120552  43.4221420  35.0541916  39.9775810
  42.1766586  36.8683357  41.4892921  42.2194595  37.4064941  40.5423737
  41.4485626  37.4580498  42.0462608  43.4559708  37.0341301  42.2960014
  44.2017937  36.3637695  41.8688431  43.8566284  38.0419655  42.4048233
  43.2186928  36.6809616  43.2995338  39.7577324  33.8144073  41.1601753
  39.7921867  33.0812454  42.1308632  39.3539963  33.4489670  39.9252319
  39.2083931  34.2246437  39.2949753  39.2482338  32.0934601  39.3862991
  39.1964302  31.3871422  40.2148743  38.0888748  31.9751110  38.3506317
  38.2386665  32.7954750  37.6487312  38.0920525  31.0664825  37.7485580
  36.6592026  32.1085701  39.0463867  36.5227394  33.0621872  39.5563812
  35.9237480  31.9438934  38.2589340  36.3768311  31.0599136  40.1759834
  36.7067070  31.5086021  41.1129761  35.2971039  31.0242043  40.3209686
  36.8842010  29.7168446  39.8050880  37.7656860  29.4669666  40.2301140
  36.3777351  28.8428402  38.8944473  35.1379433  28.9907494  38.4944077
  34.4704628  29.6731319  38.8244514  34.9279594  28.4420719  37.6728477
  37.1612701  27.9680099  38.2630806  36.7995491  27.3348999  37.5642014
  38.1232529  27.8317184  38.5389709  40.4844971  31.7189217  38.6141243
  41.1378899  32.4673653  37.8836327  40.8134613  30.4787331  38.7908745
  40.2188835  29.9347820  39.3997269  41.5331573  29.7436943  37.7489510
  41.2383385  30.2016277  36.8047676  42.6117630  29.7974014  37.8966904
  41.1356468  28.2693577  37.6570892  40.3428459  27.7967567  38.5376625
  41.6806946  27.4824524  36.7267914  42.1408844  27.8624878  35.9119911
  41.5449677  26.0547066  36.6839447  41.7403259  25.5969334  37.6536751
  40.2371597  25.7223358  36.0428429  40.3576050  25.7207279  34.9595184
  39.9410934  24.7017403  36.2854004  39.4906235  26.4544029  36.3508339
  42.7179871  25.4319458  35.8278656  43.2450104  26.1538277  34.9642982
  43.1146431  24.1316433  36.0641327  42.7004700  23.5724010  36.7961235
  44.2807045  23.4346886  35.5026245  44.4012451  23.8623772  34.5073090
  45.5466194  23.3838596  36.3687286  45.6740913  24.4000492  36.7418404
  45.2411995  22.5240402  37.6074905  45.9349022  22.6602592  38.4371452
  44.2354927  22.6792850  37.9980736  45.2574272  21.4818859  37.2885056
  46.6237755  22.8633919  35.6460419  47.3359756  23.5070438  35.6553879
  43.8444443  21.9667912  35.1454239  42.8645630  21.4684906  35.7875481
  44.5231895  21.2016525  34.2698402  45.3205719  21.6986351  33.8993073
  44.2979965  19.7981377  33.9326439  43.5590668  19.3528595  34.5988350
  43.7540703  19.4372425  32.5202332  43.6940231  18.3700752  32.3065834
  42.3413658  20.0598297  32.4575348  41.8435822  19.7581291  31.5359650
  41.6832161  19.7035103  33.2499847  42.4162865  21.1469154  32.4846039
  44.5072403  19.9891644  31.4848919  45.2627487  19.4098797  31.3614521
  45.5963135  19.0063667  34.2226562  46.6986809  19.4172897  33.8359756
  45.4022827  17.7813797  34.8929176  44.4389153  17.5159645  35.0398064
  46.4510880  16.9026833  35.4120026  47.4301949  17.3709297  35.3109741
  46.1759911  16.6349659  36.9533463  46.9090385  15.9229689  37.3325615
  46.1051445  17.8722229  37.7840729  45.7283249  17.6107216  38.7728729
  47.1034203  18.2975101  37.8873978  45.4277534  18.6019268  37.3404884
  44.8629532  15.8107347  37.2172546  43.9164543  16.3419113  37.1168213
  44.8154182  14.8755770  36.6592903  44.8282852  15.4815083  38.2557640
  46.5355721  15.5314083  34.6827545  45.5251503  14.9640465  34.2468033
  47.7561798  14.8806849  34.5178032  48.5795937  15.3762026  34.8285332
  47.9011078  13.6030731  33.8179321  47.2102242  13.6416731  32.9757347
  49.3791542  13.6464682  33.3139229  50.0767593  13.9260035  34.1034203
  49.7099648  12.6322222  33.0903702  49.5547218  14.4721527  32.0013962
  50.6218605  14.4045057  31.7898712  49.0443192  13.9168739  31.2144680
  49.1433220  15.9998722  31.9658432  48.0200653  16.3047409  31.5310631
  49.8680916  16.9417381  32.3534546  47.5529709  12.3159809  34.5680313
  47.3318596  11.2628288  33.9677887  47.5106430  12.4024343  35.9121590
  47.5337410  13.3009596  36.3728294  47.6077919  11.2847261  36.8523445
  47.0744400  10.4095783  36.4811935  49.1109047  10.9517698  37.1205368
  49.6481972  11.7731590  37.5946007  49.1092072  10.0638781  37.7527885
  49.8761292  10.5184927  35.9000931  49.2375259   9.7344980  35.4931068
  50.1263466  11.2846355  35.1662560  51.1084938   9.6785755  36.3635864
  50.7102394   8.9706049  37.0904121  51.5222321   9.1988535  35.4765739
  52.1066055  10.5962334  36.9737167  52.2659912  11.4941330  36.5395813
  52.7134590  10.4500990  38.0894814  52.5554085   9.3335915  38.8670311
  53.0430145   9.4770517  39.7398224  51.7778473   8.7090664  38.7074509
  53.5560226  11.3305902  38.6463814  53.9165382  11.1486530  39.5721397
  53.8817673  12.0984735  38.0768661  46.9122124  11.5335407  38.2706833
  47.0825005  12.6443634  38.7084122  46.2599220  10.5310211  38.9230270
  46.2169571   9.6142387  38.5014076  45.7079659  10.4587030  40.2833366
  45.4065170  11.4648685  40.5746460  44.4574432   9.5327625  40.3413849
  43.6269112   9.7368431  39.6656113  44.6969147   8.4871645  40.1477852
  43.9119644   9.5589533  41.8086357  43.8342857  10.6489086  42.4647217
  43.5148697   8.4813051  42.3621597  46.7393112  10.1694727  41.3831558
  46.8685799   9.0617743  41.9685860  47.5529480  11.1286945  41.7143364
  47.4282875  11.9855280  41.1943398  48.6153450  11.1232567  42.7370300
  48.2037888  10.6084261  43.6051750  49.9057770  10.4171305  42.1963043
  49.6451912   9.3587379  42.1967735  50.4034958  10.7794180  40.8303223
  50.3542519  11.8582039  40.6823463  51.3934784  10.3518324  40.6715736
  49.8114891  10.2608070  40.0762177  50.9557762  10.7221498  43.0996742
  50.7884674  10.0966053  43.8084068  49.0274620  12.5826540  43.0479164
  49.0326881  13.4330864  42.1531982  49.4659462  12.8279572  44.2671700
  49.2794151  12.0460520  44.8786697  50.0885773  14.0795956  44.8297577
  49.4493370  14.9381542  44.6239738  50.4663734  13.8274889  46.3110085
  49.6232033  13.4057446  46.8580894  51.2061272  13.0271406  46.2935028
  51.0826378  15.0009146  47.0238419  52.0934448  15.1583700  46.6475754
  50.5239754  15.9155893  46.8254318  51.1263924  14.9327707  48.6045647
  51.9194031  15.6946192  49.2502251  50.5048981  14.0736647  49.2145538
  51.3328743  14.4493284  43.9627228  51.5676041  15.6462440  43.6488075
  52.0365143  13.4772415  43.3928375  51.7717819  12.5167065  43.5583305
  53.1478577  13.7308578  42.5093384  53.9639816  14.2572422  43.0042839
  53.6878815  12.3857536  41.9296989  52.7847900  11.8922386  41.5705757
  54.4566917  12.5030308  41.1659698  54.1872673  11.3808174  42.9782181
  55.0806656  11.8486195  43.3918571  53.4694481  11.2254562  43.7836342
  54.3607254   9.9606895  42.2533951  54.6803169   8.9928904  42.9760513
  54.3316498   9.8339596  41.0100975  52.7902260  14.5264883  41.1567688
  53.7020340  14.8884068  40.3770180  51.5374489  14.8620529  40.8367729
  50.8128395  14.6370678  41.5034256  51.0914383  15.5515108  39.5735817
  51.8677635  16.1915436  39.1543236  50.7331200  14.4414082  38.5880280
  51.6187210  14.0240707  38.1088181  50.2125053  13.6424894  39.1160316
  49.8723221  14.8493843  37.4292450  49.6362495  13.9470968  36.8651085
  48.9005661  15.0862713  37.8624611  50.4899979  15.9468536  36.5213623
  51.7383156  15.9257812  36.4353867  49.7339783  16.5395317  35.7563820
  49.8714027  16.4730358  39.9472809  49.5852318  17.4493980  39.2272224
  49.1134377  16.2284317  41.0066910  49.2664833  15.3131590  41.4053802
  47.9902382  17.1461658  41.3887253  47.5262604  17.5138779  40.4735107
  46.9007149  16.3881989  42.1924248  47.5227089  15.8794594  42.9289093
  45.9315414  17.3329525  42.9486275  45.0957603  16.8616810  43.4658127
  46.4141769  17.8371544  43.7858543  45.4724083  18.0688725  42.2885361
  46.1355972  15.3904142  41.3434715  45.4384460  15.9358788  40.7074318
  46.8260307  14.9799976  40.6066170  45.4676056  14.2775183  42.1883087
  44.7463074  14.6541538  42.9135475  45.0876465  13.4714689  41.5606003
  46.2081108  13.8429508  42.8598022  48.5184898  18.4063244  42.1646690
  48.0626450  19.4694805  41.9565582  49.4179497  18.1441593  43.1621819
  49.7226524  17.1996498  43.3496857  49.8637962  19.1717434  44.0878944
  48.9617996  19.5674038  44.5547447  50.8508682  18.5619698  45.1041336
  50.4454155  17.5685749  45.2961845  51.7552757  18.2962608  44.5568275
  51.1112976  19.3064728  46.4082031  51.3016129  20.3506203  46.1599388
  49.8400421  19.1130123  47.2236900  50.0881538  19.7395954  48.0803947
  49.0038338  19.4634552  46.6186714  49.7296944  18.0908203  47.5857086
  52.2593079  18.6935539  47.1631012  52.1837349  17.6184635  47.3260918
  53.1966248  18.7708187  46.6121330  52.3638573  19.1073360  48.1660728
  50.6478233  20.2284355  43.2494812  50.3141708  21.4142170  43.3067360
  51.4991684  19.7362499  42.3451195  51.7112732  18.7491074  42.3709564
  52.3291740  20.6740055  41.5699883  52.7424660  21.3990650  42.2711220
  53.4663887  19.8916855  40.8561668  52.9537888  19.0767326  40.3450928
  54.0842705  20.4882774  40.1850395  54.4731903  19.1813450  41.8167419
  53.9554253  18.3196716  42.2380981  55.3846703  18.8762550  41.3027153
  54.8716202  20.0823727  43.0000648  55.1253738  21.2590981  42.8102112
  54.9436989  19.4922047  44.2195473  55.0024872  18.4850712  44.1712723
  55.4407349  19.8945370  45.0013313  51.6196289  21.5302830  40.5845108
  51.7884712  22.7581253  40.5752640  50.6528969  20.9394970  39.8658333
  50.6038818  19.9310703  39.8936653  49.7436523  21.6709614  39.0650291
  50.3048325  22.2881966  38.3634605  48.8655167  20.7369709  38.2942009
  48.5709686  20.0134125  39.0543404  48.0351295  21.3323822  37.9146729
  49.4433746  19.8825073  37.1257439  50.4276428  19.5174236  37.4190559
  48.7974319  19.0336781  36.9013672  49.7390251  20.6758480  35.8985519
  48.8029518  21.1339645  35.5791893  50.4468002  21.4712982  36.1318245
  50.2909126  19.8846645  34.7266388  50.6465416  20.4509487  33.8658524
  51.1471024  19.3438091  35.1297646  49.4023514  18.8756886  34.2902756
  49.7633514  18.3249531  33.5244637  49.1406021  18.3356361  35.1026382
  48.5272102  19.3136654  34.0404701  48.8810730  22.6556187  39.7794228
  48.7488937  23.7557583  39.3053360  48.3548279  22.3470535  40.9666595
  48.5778046  21.4046021  41.2533035  47.6454086  23.3380413  41.7977448
  47.0037956  23.9164410  41.1329956  46.8691826  22.6823387  42.9827538
  47.5326500  22.4064274  43.8023758  45.7675705  23.5483799  43.4498062
  46.0730896  24.3516426  44.1202812  45.2377319  24.0298233  42.6278687
  45.1093063  22.8938065  44.0210609  46.2269745  21.4876041  42.6172562
  46.9334831  20.9197025  42.3011322  48.5964546  24.3474846  42.3617516
  48.3000488  25.5473156  42.2537613  49.8111076  23.9752541  42.7720566
  50.1027565  23.0199280  42.6224060  50.8500443  24.9797745  43.1362648
  50.4578400  25.5367355  43.9871902  52.1054726  24.2192059  43.5979195
  51.9410782  23.3279819  44.2035561  52.6126862  23.7937527  42.7319984
  53.1019249  25.1028385  44.4239044  53.2810135  26.0122223  43.8502769
  52.6067047  25.3739586  45.3562965  54.5400047  24.5187569  44.6180496
  54.4890823  23.6626530  45.2908020  54.8751526  24.0897141  43.6737518
  55.4181900  25.5562572  45.3024178  54.9700203  25.5683708  46.2959442
  56.3491783  25.0053959  45.4362717  55.7388153  26.7097511  44.4352760
  55.9350357  26.3446617  43.5142326  54.9358482  27.2552700  44.1564255
  56.3359337  27.4466763  44.7823868  51.1536369  25.9848881  42.0358238
  51.1153183  27.1459751  42.2568474  51.3844299  25.5086613  40.7758141
  51.3985634  24.4987793  40.7819939  51.5231819  26.2829075  39.5743675
  52.3557205  26.9861412  39.5954399  51.8224030  25.2590580  38.3724632
  51.0334702  24.5069695  38.3657570  51.7944069  25.8406162  37.4509926
  53.1925964  24.7219753  38.4506645  53.8605843  25.4419479  37.9778748
  53.4958229  24.5960255  39.4900360  53.4331322  23.4155331  37.6694794
  52.9292755  23.1997795  36.5993614  54.0778542  22.4042912  38.3031845
  54.3830528  21.5860748  37.7957611  54.2995949  22.5269985  39.2808723
  50.3101807  27.1668644  39.2115135  50.4762726  28.3300877  38.8961258
  49.1211700  26.6209831  39.4379005  49.1879845  25.6912308  39.8267403
  47.8144836  27.3032284  39.2291412  47.8760796  27.5609226  38.1718330
  46.6590996  26.3099213  39.4117584  46.8871727  25.5098209  38.7075386
  46.7975540  25.7790852  40.3536415  45.2222672  26.8560505  39.4797325
  45.1025429  27.5773849  40.2880898  44.8616943  27.5572395  38.1797409
  45.5484200  28.3924026  38.0419083  44.8777771  26.9139843  37.2999306
  43.8534241  27.9345036  38.3505287  44.1927376  25.7003555  39.7258682
  43.2709846  26.2310410  39.9642982  44.0855751  25.0153790  38.8847847
  44.3990211  25.1064796  40.6162949  47.6296730  28.5081463  40.1596642
  47.3830681  29.5941296  39.7064018  47.8447914  28.2807732  41.4573479
  48.1699829  27.3579330  41.7077904  47.9438133  29.3204403  42.4974022
  46.9585876  29.7821865  42.4323959  48.0219345  28.4943180  43.8270149
  47.2320023  27.7506409  43.9321175  48.9304695  27.9014015  43.7215729
  48.2481880  29.4705429  45.0347748  49.2001419  29.9791622  44.8824654
  47.0145340  30.3586559  45.1117592  47.1320953  31.1596203  44.3818665
  46.1151314  29.7633972  44.9541397  46.9223595  30.8154392  46.0971298
  48.2566490  28.7134113  46.2710953  49.1647530  28.1151524  46.1966858
  48.4012527  29.4572277  47.0546303  47.3891602  28.0844898  46.4711723
  49.1013565  30.3377609  42.2667656  48.8811913  31.5605469  42.4955444
  50.2795677  29.8947067  41.8536835  50.4086494  28.8932533  41.8307610
  51.5351868  30.6587849  41.8789406  51.5966148  31.2736740  42.7768478
  52.7719345  29.6814156  41.7219162  52.5299187  28.8984470  41.0032425
  53.6818352  30.1800098  41.3878746  53.1708298  29.0282516  43.1020966
  52.2494240  28.7913609  43.6340714  53.6803322  28.0996017  42.8449707
  54.2042885  29.9186573  43.9272766  54.0383949  31.1105518  43.7765350
  55.0551949  29.4054337  44.6678925  51.4388924  31.5509682  40.6488991
  51.7764702  32.7099686  40.8170319  50.8336411  31.1282578  39.5374870
  50.4138565  30.2100277  39.5645370  50.5126305  31.9830494  38.3964462
  51.3153572  32.6581612  38.0998726  50.1075287  31.0788460  37.2072563
  50.9824638  30.4525337  37.0331039  49.2417793  30.4912891  37.5127983
  49.9052925  31.8622055  35.8912392  49.4341087  31.1938438  35.1705627
  49.1313820  32.6042671  36.0874977  51.1515007  32.5659256  35.2883263
  50.8129120  32.8501930  34.2920074  51.3078003  33.5075836  35.8145905
  52.4016533  31.6530209  35.1498375  52.6591034  31.3291550  36.1582680
  52.2763977  30.7895489  34.4965134  53.5145798  32.4391174  34.5440369
  54.2535515  31.7910538  34.3115768  53.1108055  32.9178696  33.7516594
  53.8985214  33.1390457  35.1627350  49.4125404  33.0147705  38.7410240
  49.5479813  34.1482658  38.3170624  48.4873924  32.6861954  39.6526337
  48.4824829  31.7573128  40.0491791  47.4867859  33.6202888  40.1265526
  47.0427284  34.2553864  39.3600273  46.2464027  32.9397545  40.7952805
  46.6333923  32.2733536  41.5661545  45.3471222  34.0389175  41.4783897
  44.3639069  33.6445999  41.7351112  45.9397278  34.4211044  42.3095665
  45.2004433  34.8603554  40.7770844  45.4452858  32.1335411  39.7924614
  44.8472214  32.8433723  39.2210083  46.1291962  31.6108246  39.1237831
  44.5051346  31.0787868  40.4012413  43.6498032  31.5712585  40.8638191
  44.0775185  30.3873959  39.6751404  44.9683685  30.4354382  41.1493149
  48.0987015  34.7304878  40.9947052  47.7598343  35.8521347  40.7319679
  49.0053062  34.3246460  41.8787842  49.1374474  33.3313942  42.0056419
  49.7574120  35.4331970  42.6647682  49.0597000  36.2045784  42.9907684
  50.4335556  34.5733414  43.7840996  50.9222603  33.7426529  43.2749519
  51.4682312  35.3932953  44.5087395  52.1680145  35.8650627  43.8189316
  50.9532204  36.1377602  45.1158905  52.0496368  34.7839088  45.2006340
  49.3763771  34.0300903  44.7437439  49.0044823  34.6474876  45.5614319
  48.4335213  33.7367821  44.2821198  49.9473839  32.7498283  45.5962677
  49.1200066  32.0664825  45.7875252  50.6781387  32.1449280  45.0594254
  50.2752991  33.0421829  46.5938187  50.6895485  36.1323128  41.8164482
  50.9688683  37.2797318  42.1777611  51.2446632  35.5982475  40.7135124
  50.9162941  34.6818161  40.4443932  52.0777397  36.3357468  39.7472801
  52.8378983  36.8243599  40.3568077  52.8687553  35.3661766  38.9234962
  53.3813629  34.6455765  39.5607338  52.2293854  34.8430710  38.2123909
  53.8360825  35.9642448  37.9362450  53.3400536  36.5889626  37.1934242
  54.5397301  36.6229668  38.4452286  54.6508369  34.9312057  37.1981087
  55.5635719  34.2888451  37.7899437  54.5334816  34.7781181  35.9541054
  51.2739143  37.4282455  39.1230736  51.6802177  38.6014366  39.0311546
  50.1774902  37.0567055  38.4119797  50.0282784  36.0578003  38.4072685
  49.3083267  37.8503914  37.4722252  50.0011292  38.2268677  36.7196350
  48.2709999  36.9058113  36.7462463  47.9390297  36.3599586  37.6293869
  47.4033661  37.5125885  36.4871483  48.8565712  36.0499306  35.6771660
  49.8652802  35.6844864  35.8696785  48.1674690  35.2071877  35.6221695
  48.8569679  36.7246399  34.3731880  49.5131111  37.8243790  34.2337837
  48.2804031  36.2332916  33.4190674  48.6079636  38.9521790  38.1921501
  48.5481796  40.0871201  37.7449837  48.2244759  38.7265587  39.4671898
  48.4834137  37.8061142  39.7925186  47.6109810  39.6297150  40.4129944
  47.1190338  40.4811249  39.9426804  46.3668556  38.8437996  40.8848724
  46.5883980  37.9779930  41.5088921  45.7512741  39.4301720  41.5670242
  45.4995689  38.4150543  39.6747742  44.6629486  39.1919670  39.2281609
  45.5431747  37.1799049  39.4066658  44.8154411  37.0357704  38.7212944
  46.2024460  36.5857964  39.8888359  48.4512024  40.0628204  41.6329460
  47.9356613  40.9087906  42.3077126  49.7120361  39.5956535  41.8315468
  50.1254234  38.9495621  41.1744499  50.5214958  40.1261635  42.9488754
  51.4256096  39.5200539  43.0064163  50.9624329  41.5367393  42.5644722
  50.1844025  42.2769508  42.7511597  51.7901917  41.7476997  43.2415352
  51.5463104  41.6698341  41.1773872  52.8458099  41.4568558  40.7772598
  53.5973091  41.0373573  41.3058167  52.9983978  41.8775330  39.4496002
  53.9022217  41.8352814  38.8599243  51.7586441  42.2074051  39.0107613
  51.5585327  42.8077240  38.2235680  50.8973656  42.1113777  40.0679970
  49.8995399  42.5219154  40.1149254  49.8873863  40.0122604  44.3537636
  49.9939728  40.8866501  45.1801262  49.2008553  38.9471855  44.6155090
  49.1685982  38.3561783  43.7971115  48.4294777  38.6511078  45.7618141
  47.7517204  39.4571877  46.0428391  47.6506271  37.3522682  45.5246429
  48.4297295  36.5905762  45.4942589  46.7084160  37.1487770  46.6964149
  46.0993118  38.0527077  46.6935616  46.0174980  36.3391151  46.4615097
  47.1517563  36.8686752  47.6519737  46.9149551  37.3940849  44.3265991
  46.0606384  37.8149796  44.4473686  49.3585167  38.5428238  46.9697838
  50.3202019  37.8795204  46.9212456  49.1394272  39.0855293  48.1714172
  48.2819061  39.6113548  48.2623138  49.7322502  38.7753792  49.4499588
  50.5468330  38.0935097  49.2058105  50.5026054  39.9495277  50.1135445
  51.1122932  39.4900360  50.8915253  51.0762634  40.4229355  49.3167381
  49.6508942  41.0349388  50.8464737  48.8759613  41.4355469  50.1929474
  49.1954727  40.6853180  51.7730026  50.5367432  42.2157059  51.2199440
  51.4455185  41.9268684  51.7479591  50.9891357  42.5611954  50.2903862
  49.7976074  43.3072090  51.9393387  49.3108215  42.8936768  52.8225899
  50.4551697  44.1200104  52.2476654  48.6667328  43.8562851  51.1740875
  47.8662910  43.2433662  51.1130371  48.2901497  44.7340240  51.5025177
  49.0168304  44.0444908  50.2455902  48.8381958  37.9920502  50.4132690
  47.6476593  38.3041077  50.4543419  49.3274002  36.9191818  51.0542374
  50.6915512  36.5178337  51.2269821  51.3577347  37.3108902  51.5666313
  51.0251427  36.1650352  50.2510948  50.6724892  35.4958916  52.3903008
  50.9438438  36.0680313  53.2775002  51.3765678  34.6709061  52.2817764
  49.2592926  34.9965515  52.5270653  49.0106544  34.8233490  53.5741005
  49.2081337  34.0826378  51.9352531  48.4453697  36.0024185  51.8182678
  47.7118073  35.5559120  51.1469841  47.4643402  36.6507454  52.7789803
  46.3152237  36.2517281  52.9860344  47.8424263  37.7635231  53.4599419
  48.7759590  38.0922394  53.2585526  47.0256386  38.4458237  54.4252014
  46.7697830  37.6655159  55.1419716  47.8134079  39.4026985  55.2665215
  48.3409843  40.0935593  54.6088943  47.2623978  40.1021080  55.8952637
  48.7421036  38.6396790  56.1615868  48.1961250  38.1009750  56.9360580
  49.1925850  37.7626610  55.6968231  49.7901649  39.5312271  56.7803230
  50.7578316  39.9198837  56.1180229  49.6002312  39.8206711  57.9830513
  45.7624626  39.0338783  53.8684120  44.7574310  39.1097031  54.6107063
  45.7774849  39.3550568  52.5694504  46.5439034  39.0375595  51.9933472
  44.6723824  39.9323425  51.8413773  44.1675339  40.6281776  52.5114822
  45.0493851  40.6700211  50.5516930  45.6645737  39.9686394  49.9880371
  44.2214050  41.0695724  49.9661102  45.9937286  41.8772240  50.8099670
  46.2936897  42.1214218  51.9866562  46.3582535  42.5005379  49.7980347
  43.6464729  38.9152756  51.4433823  42.5228615  39.3623161  51.0059166
  43.8529549  37.6202812  51.6959457  44.7919312  37.3306274  51.9294624
  42.8846741  36.5549355  51.3695564  42.3076477  36.9062004  50.5141296
  43.4278259  35.1798820  51.0005989  43.8215446  34.7639198  51.9279938
  42.4434662  34.2188225  50.3745155  42.1977692  34.4534340  49.3388062
  42.8841095  33.2218857  50.3816566  41.4958763  34.2852631  50.9090805
  44.4684486  35.3731499  49.9415207  44.0307007  35.8254013  49.0516090
  45.1969681  36.1285019  50.2361412  44.9093628  34.4108009  49.6815567
  41.8228760  36.4793129  52.4202690  42.1223755  36.3056679  53.6131210
  40.5505219  36.5090218  52.0171509  40.3423309  36.5065842  51.0288429
  39.3325920  36.3244781  52.8741112  39.4257927  36.7022095  53.8923111
  38.1983986  37.0414963  52.1488686  38.0989647  36.7547722  51.1019669
  36.9469643  36.8643723  53.0001221  37.0786400  37.4298439  53.9226227
  36.1027145  37.2609406  52.4361382  36.5289192  35.8743057  53.1820908
  38.5455971  38.5234261  52.1288300  37.5999756  39.0533981  52.0146828
  39.0346146  38.7016144  53.0865402  39.1926041  38.7755241  51.2886276
  39.0599823  34.8436127  52.9897690  39.0311012  34.2565346  54.0536766
  38.8649940  34.1566658  51.9135704  38.8523788  34.6311684  51.0220604
  38.7687874  32.6758690  51.8747330  39.4370995  32.1610107  52.5649338
  37.3558273  32.1160927  52.2158203  37.3280067  31.0392952  52.3826599
  37.1063309  32.5571899  53.1808510  36.2394447  32.4826813  51.1634827
  36.3911552  33.4677849  50.7222900  36.3481140  31.6645813  50.4514389
  34.9302177  32.5319786  51.9352875  33.8992310  31.8786430  51.7494888
  34.9167595  33.3648529  52.9888344  34.1014099  33.3884583  53.5844460
  35.7903595  33.7572746  53.3096504  39.2438431  32.1124268  50.5062599
  39.5048180  32.8298759  49.4952164  39.4263763  30.7719460  50.3729630
  39.2004051  30.2552242  51.2108383  39.7045326  30.0199947  49.1268425
  39.4275513  30.5856171  48.2372017  41.2216759  29.7976131  48.9619179
  41.6710854  30.7702465  48.7616234  41.6927338  29.4370785  49.8763657
  41.6511307  28.8712845  47.8228455  41.0957603  27.9398460  47.9327850
  41.4815025  29.4335766  46.9046097  43.3597755  28.3062172  47.9012756
  44.1136513  29.7852669  47.3327026  45.1890221  29.6095295  47.3608398
  43.6299629  29.9463749  46.3692780  43.9066811  30.6289902  47.9910355
  39.0405121  28.7015018  49.1619339  38.9073029  28.0267944  50.1757126
  38.3914223  28.3545303  48.0168495  38.3785095  29.0677071  47.3017883
  37.7492943  27.1266632  47.5881577  37.7674637  26.4572449  48.4481850
  36.2448730  27.3385983  47.2485847  36.0878258  27.8993607  46.3271828
  35.8826866  26.3135128  47.1702843  35.3552628  28.0597477  48.2803001
  35.7158966  29.0702324  48.4725647  33.9501038  28.1340389  47.7554092
  33.3053169  28.6507626  48.4662895  33.8734703  28.7410831  46.8533401
  33.5205307  27.1613350  47.5158005  35.3732567  27.2620850  49.5623894
  34.5860252  26.5082073  49.5680885  36.3281975  26.8267384  49.8567734
  35.0682526  28.0073566  50.2969933  38.6564941  26.4467049  46.4547691
  39.1478729  27.1811008  45.6171646  38.7764091  25.1482906  46.3619461
  38.2038498  24.6104755  46.9967957  39.4142532  24.3739948  45.3005714
  39.4810486  25.0144196  44.4210854  40.7976990  23.8355904  45.7607803
  40.5824699  22.9806271  46.4017296  41.3234558  23.3690090  44.9277191
  41.6956329  24.7878437  46.5220184  41.3878860  25.8058090  46.2829819
  41.4806709  24.6180744  48.0499878  40.4109192  24.6469002  48.2571144
  41.8316879  23.6153336  48.2937050  42.1845207  25.3102398  48.5121536
  43.1182404  24.5922585  46.2640610  43.1872559  24.7839775  45.1932755
  43.6726379  25.4228783  46.7008858  43.4287910  23.5585632  46.4161491
  38.4045486  23.2018700  44.9590111  37.5412941  22.8018932  45.8153458
  38.5018959  22.5307999  43.7812805  39.2025871  22.7939796  43.1031418
  37.7580109  21.2784195  43.5465317  37.6960068  20.6798611  44.4553680
  36.4079704  21.5098953  42.8183022  35.7816620  20.6212978  42.7393532
  35.8828812  22.2099876  43.4681129  36.6033363  21.9919090  41.5361404
  35.9880028  21.5053883  40.9827309  38.6003265  20.3142681  42.6647911
  39.6904373  20.6868248  42.3092117  38.1289062  19.0804634  42.4550476
  37.3385887  18.7401695  42.9839134  38.7817001  18.1280060  41.5835533
  39.1738434  18.6909790  40.7365685  39.9599533  17.4186230  42.2644844
  39.7380829  16.5527096  42.8882370  40.5812035  17.0584564  41.4444695
  40.5733414  18.1159325  42.8351059  37.7880478  17.0837822  41.0573387
  36.9321594  16.6218224  41.7978973  37.8210983  16.8385506  39.7581062
  38.4782753  17.3284473  39.1680069  36.9825325  15.9097929  38.9890938
  35.9472618  16.2494316  39.0203056  37.5357361  15.8699408  37.5095253
  36.9815292  15.0973682  36.9765244  37.2593803  17.2769089  36.9408150
  37.8347702  17.3653469  36.0192871  36.1899796  17.2525387  36.7313271
  37.5313148  18.0923615  37.6110306  38.8919945  15.7097511  37.5652618
  39.0105591  14.7936802  37.8267097  37.0172081  14.4963989  39.6388550
  38.1330452  13.9890442  39.9193001  35.8851509  13.7304459  39.7351494
  34.5071030  14.2004948  39.6042747  34.1495056  14.3258390  38.5822601
  34.3842697  15.1682882  40.0904808  33.6516228  13.1940060  40.4050331
  32.6232910  13.2354498  40.0459862  33.7323952  13.4842377  41.4525757
  34.3497887  11.9336605  40.1719856  34.2809143  11.6538754  39.1207581
  34.0759544  11.1763449  40.9065514  35.8087120  12.4025955  40.4292183
  35.9296265  12.5769863  41.4983635  36.7492332  11.2334299  39.9433632
  36.7418175  10.2323942  40.5656395  37.5255394  11.4422674  38.9072914
  37.1580086  12.1256151  38.2607193  38.6528664  10.5688944  38.5351868
  38.3174400   9.5522909  38.7403984  39.0400467  10.5436983  37.0476151
  39.7248955  11.3688354  36.8520851  39.6245461   9.6334114  36.9140625
  37.9924088  10.4572039  35.9505157  36.8065300  10.0812979  36.0901108
  38.3474998  10.8207169  34.7663536  39.9354210  10.6737843  39.4713593
  40.8899612   9.8998795  39.3807335  39.9170799  11.6101961  40.3869629
  39.0298386  12.0916662  40.3539963  40.9636726  12.0540514  41.3203888
  41.8734093  11.4611006  41.2261162  41.3959312  13.4580898  40.8403130
  40.6345711  14.1317377  41.2335472  42.2802391  13.8259468  41.3606796
  41.6950989  13.7856693  39.3568954  40.8979683  13.6484709  38.6262321
  41.8222008  15.3245764  39.3219376  40.8966866  15.7084332  39.7510948
  42.6348419  15.6485701  39.9721260  41.9789276  15.8333721  38.3707962
  42.9723701  13.1336641  38.8467636  43.0295525  12.0484409  38.9311867
  42.9981194  13.3072224  37.7709770  43.8147926  13.5223837  39.4188805
  40.4603615  12.0323038  42.8037300  39.5655174  12.7887678  43.1995392
  41.1904144  11.3357878  43.6222839  41.9298553  10.8261032  43.1601677
  41.0272827  11.1705017  45.0895500  40.3745461  11.9119406  45.5503082
  40.3606377   9.8373060  45.3448448  40.9755745   8.9618597  45.1361732
  40.1555023   9.7375193  46.4107056  39.1183357   9.5906658  44.6630859
  39.0711060   8.9493856  43.4103203  39.8552971   8.7227640  42.8155174
  37.7891922   8.7247066  43.1314049  37.4841805   8.3078842  42.1829185
  37.0032196   9.3375483  44.0127106  36.0132179   9.4750204  43.8674507
  37.8210373   9.8581743  45.0057220  37.5209961  10.4042768  45.8878479
  42.3349991  11.2350845  45.8585663  42.2490311  11.2855778  47.0706787
  43.5397186  11.2299871  45.2354240  43.4711647  11.1138411  44.2344666
  44.7866707  10.9986801  45.9800835  44.7830544  10.0395203  46.4978676
  45.9423218  10.9794502  44.9882126  45.9385300  11.8865509  44.3838463
  46.8946037  10.9558144  45.5180206  45.8278961  10.1865902  44.2490349
  45.0365791  11.9977522  47.0471916  45.7879333  11.6454868  47.9565392
  44.5967979  13.2058487  47.0055313  44.0231056  13.4446211  46.2093086
  45.0958252  14.3567686  47.8540802  45.2602692  13.9965773  48.8696251
  46.4008026  14.9472542  47.3379135  47.1314430  14.1656971  47.1295090
  46.1068077  15.6414003  46.0874825  45.4925079  16.5167561  46.2984276
  47.1049690  15.8760452  45.7177429  45.5735970  14.9821167  45.4025497
  47.0425682  15.9644518  48.3131104  47.3018799  15.4712124  49.2498932
  47.9595604  16.3913288  47.9069061  46.3757477  16.8011703  48.5213242
  43.9581795  15.3269138  47.9982872  43.3005409  15.5141125  46.9825439
  43.6876564  15.8441143  49.1924896  44.1302376  15.3935661  49.9806709
  42.9816628  17.1071949  49.1191177  42.0704765  16.8849716  48.5637321
  42.5105553  17.5384941  50.5122719  43.3672600  17.6153145  51.1817970
  42.0609093  18.5273094  50.4219170  41.5313110  16.6239586  51.2222557
  40.1618118  16.8135109  50.9689178  39.8610535  17.4540939  50.1530724
  39.1983871  16.1111717  51.7731247  38.1834984  16.2122059  51.4178886
  39.6031380  15.2628689  52.7558022  38.9057350  14.5833912  53.2230759
  40.9440575  15.0070276  52.9047699  41.1982651  14.1967268  53.5719986
  41.9180489  15.6346140  52.1514244  42.9584312  15.4475317  52.3728104
  43.7726135  18.2270184  48.4519272  44.8039551  18.5923138  49.0357208
  43.3490257  18.9844818  47.4023209  42.0997696  18.6601276  46.6825752
  41.1895065  19.0021782  47.1750374  42.0981026  17.5808811  46.5298424
  42.1219673  19.4601383  45.3161163  41.0883331  19.6958771  45.0628700
  42.5942307  18.8679104  44.5323219  42.9630814  20.6387939  45.6565781
  42.3745689  21.3755932  46.2032776  43.5751953  21.0598545  44.8590012
  43.9897499  20.0572510  46.6917000  44.8069839  19.5646248  46.1648712
  44.4405441  21.2779446  47.5213318  45.2428322  22.0863457  47.0884590
  43.8253975  21.4678936  48.6688957  43.0366821  20.8676968  48.8633118
  44.2523956  22.4520454  49.7187042  44.0589981  23.4991283  49.4856453
  43.4564056  22.0499420  50.9055252  43.6834793  22.7595596  51.7011337
  42.3867455  22.2256298  50.7912445  43.7730789  21.1117973  51.3612671
  45.7482872  22.2969742  50.0726204  46.4664192  23.2824593  50.3214455
  46.2706490  21.0244427  50.0987053  45.6049881  20.2922592  49.8964539
  47.7178268  20.7559528  50.5017090  47.8457375  21.1395988  51.5139122
  47.9415855  19.2398052  50.5837708  47.1982460  18.8606281  51.2850342
  47.7312088  18.9344139  49.5587921  49.3565063  18.7915001  51.0351334
  50.1229248  19.1087132  50.3279724  49.5593643  19.1067638  52.0586357
  49.3786545  17.2483463  51.0586357  48.4767418  16.9393997  51.5870285
  49.3430595  17.0214958  49.9930916  50.6788025  16.7636719  51.7402306
  51.5708771  17.0363941  51.1763802  50.7742958  17.3495007  52.6544418
  50.7319946  15.2877197  51.7612839  50.9009476  15.0843115  50.7865067
  51.4584160  14.8339891  52.2965775  49.8621902  14.8759937  52.0679131
  48.7683258  21.5191135  49.6964836  49.8783150  21.6199875  50.1132507
  48.4472237  21.9384594  48.4868240  47.4771919  21.9940529  48.2110558
  49.3358536  22.7725258  47.6445084  50.2931709  22.2845688  47.4613724
  48.7124062  22.9266777  46.1838989  48.7215919  21.9762630  45.6502914
  47.6793060  23.1113091  46.4783897  49.2162552  23.7945709  45.7584648
  49.4680862  24.1791286  48.2211266  50.4150162  24.8814735  47.9023323
  48.5509338  24.6782780  49.0162392  47.7832108  24.0881100  49.3032990
  48.4962082  26.0621815  49.4677467  48.7151871  26.6563206  48.5805321
  47.0613289  26.4642906  50.0421867  46.9573441  25.8675900  50.9484100
  46.8861961  27.9138851  50.4050903  47.1048584  28.5089130  49.5183945
  45.8660889  28.0382023  50.7684402  47.6027679  28.2702980  51.1450844
  46.0126266  26.1896477  48.8788109  46.3386421  26.7942371  48.0324783
  45.9500694  25.1136036  48.7165985  45.0468178  26.5126019  49.2674255
  49.6156769  26.3345470  50.5098267  50.2680130  27.3718414  50.4931870
  49.9554024  25.3678093  51.3211403  49.3996620  24.5257072  51.2751656
  51.0209274  25.4232960  52.3882294  51.0214386  26.4552937  52.7390556
  50.5066185  24.6306019  53.5959511  51.1832275  24.8131199  54.4308090
  49.5409698  25.0174484  53.9214935  50.3701439  23.1129856  53.4406090
  49.4910431  23.0158520  52.8035469  51.2947273  22.7099094  53.0273514
  50.0467224  22.4201984  54.7668457  50.9229012  22.2737961  55.3984909
  49.5438118  23.0604897  55.4915619  49.3100014  21.1669464  54.5586586
  49.8651199  20.3424549  54.3793449  48.0092316  21.0238914  54.4027596
  47.1689262  22.0071869  54.3199730  46.2490082  21.6755123  54.0673065
  47.4675140  22.9709244  54.3663902  47.3955460  19.8873825  54.4196701
  46.3954391  19.7480316  54.4412880  48.0702705  19.1630726  54.6202278
  52.4996986  25.2789173  51.9654121  53.4794121  25.3596287  52.7548828
  52.5806313  25.1099567  50.6621933  51.7469177  25.1409264  50.0929260
  53.9286652  25.1795082  50.0341377  54.6581688  24.5839005  50.5829315
  53.8368797  24.7038593  48.5520973  53.1483765  25.3473186  48.0043488
  54.8608017  24.7196674  48.1786919  53.3322945  23.2749157  48.2703781
  52.3732224  22.9774952  48.6944275  53.2557793  23.1040974  47.1965675
  54.3439598  22.2941933  48.9260864  54.0667229  21.6421356  49.9474335
  55.4627037  22.2946720  48.4856148  54.4972038  26.5883369  50.0456848
  55.6835709  26.8128376  49.8948784  53.6441116  27.6340847  50.2857742
  52.6950951  27.3840923  50.5244560  53.9785500  28.9931507  50.1810760
  54.9551430  29.1161900  49.7128601  52.9975395  29.7013912  49.2197990
  51.9682655  29.5426083  49.5414848  53.2425690  30.7634544  49.2292404
  53.0175781  29.4724693  47.6633034  54.0115128  29.8083496  47.3677063
  52.9311943  28.0771580  47.2031898  52.0532455  27.5689220  47.6019325
  52.9057922  27.9049778  46.1271744  53.8242607  27.5630245  47.5584412
  51.8662720  30.2645912  46.9950180  50.8693008  29.9239235  47.2744904
  51.7985268  31.2958755  47.3413773  51.9777107  30.4269962  45.9229660
  53.9991379  29.6451702  51.5834007  53.1315079  29.3532658  52.4297485
  54.8841019  30.6028366  51.9289017  55.5559006  30.8997860  51.2356453
  54.9529495  31.1616669  53.2729301  54.8251915  30.3305702  53.9665184
  56.3041496  31.7717876  53.4375000  57.0146904  30.9585876  53.5856094
  56.5159683  32.3509445  52.5387154  56.2930870  32.6402092  54.5492516
  57.1670723  32.9973717  54.7229996  53.6576004  32.1044006  53.5141792
  53.2265167  32.7699890  52.5691032  53.1673851  32.1480904  54.7517128
  53.6476707  31.6914005  55.5138550  52.1002312  32.9937859  55.1674461
  52.0741425  32.9958801  56.2571335  52.2179031  34.0166054  54.8095436
  50.7008858  32.4984970  54.6708527  49.7092552  32.6541595  55.3568611
  50.6668129  31.7174759  53.5756912  51.5752106  31.6240482  53.1442070
  49.6164856  31.0047684  52.9365578  48.7716446  31.6934757  52.9316597
  49.9492950  30.5751095  51.5092049  50.7884407  29.8847847  51.4232445
  49.0416222  30.1482048  51.0826073  49.9579277  31.6671734  50.4993591
  51.0680008  32.4212723  50.2083206  52.0043564  32.3150826  50.7359314
  50.7505722  33.4208717  49.3138046  51.4179192  34.1333008  49.0545883
  49.3421974  33.4078903  49.0198784  48.4863281  34.2979851  48.3400612
  48.8493614  35.2442932  47.9670906  47.1561203  33.8467903  48.1386223
  46.4227524  34.3990860  47.5698166  46.6803818  32.6855774  48.7667961
  45.6178665  32.4951859  48.7319832  47.5394592  31.8187027  49.5345840
  47.2052002  30.9732075  50.1175156  48.8877831  32.2185287  49.6409607
  49.0914230  29.8417740  53.7961960  47.9813080  29.3210583  53.5879059
  49.8446045  29.3689175  54.7899094  50.7776222  29.6990108  54.9914436
  49.2953987  28.4148483  55.7323418  48.8356438  27.7208099  55.0287514
  50.3583603  27.5765324  56.5358620  49.8600311  26.7174301  56.9849854
  51.0288315  27.1171303  55.8095551  51.2175865  28.2704983  57.7088585
  50.5624733  28.6443806  58.4957161  51.9432564  27.5288773  58.0427742
  52.1842499  29.3343639  57.2731819  52.2998962  29.6707287  56.1421394
  53.0302200  29.8056660  58.0799866  53.6532898  30.5291843  57.7507362
  53.0721779  29.3229523  58.9661751  48.2811050  28.9152775  56.6784363
  47.6393776  28.0201015  57.2099495  48.1125717  30.2141209  56.9045029
  48.7461929  30.8612900  56.4575195  47.0814896  30.8003273  57.7653427
  46.8648415  30.1060028  58.5771790  47.5950699  32.0581932  58.4631386
  47.7116661  32.8534393  57.7268753  46.7527618  32.4014053  59.0638237
  48.7304916  31.8930969  59.3799973  48.5763969  31.6709824  60.7908058
  47.6344643  31.4908047  61.2875023  49.6671600  31.6407356  61.6592484
  49.5051804  31.3941593  62.6981735  51.0024719  31.7105656  61.1590080
  52.0675621  31.5086956  61.9509048  52.8623581  31.7461300  61.4676628
  51.1448975  32.1682014  59.8207245  52.1709709  32.3127861  59.5163078
  50.0540352  32.2767982  58.9420891  50.1937523  32.6467247  57.9370880
  45.7988625  31.2236195  56.9599190  44.8801956  31.7919254  57.5633812
  45.8184357  31.1771412  55.6633377  46.7180481  30.8222980  55.3719978
  44.6665039  31.4085083  54.7769547  44.2052078  32.3646355  55.0241928
  45.1629753  31.4881611  53.3376961  45.7547035  30.5765533  53.2544479
  44.1216469  31.5408230  52.1731644  43.6225662  30.5780697  52.0630531
  43.4018631  32.3303490  52.3891830  44.6497993  31.7765713  51.2492752
  45.9958305  32.7405510  53.2023621  45.3889694  33.6445694  53.1516609
  46.7466431  32.8500481  53.9849167  46.5726395  32.7240257  52.2776337
  43.6040573  30.3888340  54.9936905  43.9305649  29.1933804  54.9345131
  42.2906723  30.7516136  55.0284882  41.7753525  32.0859032  55.2999382
  41.4651299  32.6738892  54.4361496  42.5503311  32.7016258  55.7564545
  40.5940247  31.8788090  56.2289848  39.9179688  32.7218933  56.0866661
  40.8926430  31.7604198  57.2705765  39.9975700  30.5509415  55.7694321
  39.3296432  30.7265034  54.9261322  39.4095497  30.0179768  56.5166168
  41.2005501  29.7603207  55.1972427  41.4180069  29.0613403  56.0048637
  40.7849236  29.0424671  53.8662300  40.5224342  29.6725903  52.8889084
  40.7819862  27.7123184  53.8872452  40.9518929  27.1971798  54.7392197
  40.6297493  26.7784729  52.7482719  40.3319092  27.3677673  51.8810196
  41.9456024  26.0744152  52.2886047  41.7409897  25.2687702  51.5834999
  42.7485390  27.1950092  51.5621376  43.7903481  26.9277058  51.3852882
  42.2662811  27.5579433  50.6544991  42.7091064  28.0620289  52.2215500
  42.7710876  25.5407829  53.4504662  42.2132263  24.7829971  54.0006065
  43.6063347  25.0381908  52.9627495  43.2715988  26.2430515  54.1171074
  39.5287514  25.7605114  53.0687599  39.3860321  25.3713150  54.1939621
  38.8110313  25.2983742  52.0151443  38.9666061  25.7330780  51.1168442
  37.9737701  24.0554848  52.0036469  38.5722160  23.3575630  52.5891991
  36.6686974  24.0500031  52.8638649  36.6985474  24.9552193  53.4703331
  35.2849312  24.0920200  52.1403542  35.1945801  23.1963959  51.5256958
  34.4464607  23.9842091  52.8284302  35.2589149  24.9288883  51.4424477
  36.6976700  22.9482708  53.7679405  36.4349899  22.1081448  53.3848152
  37.7389450  23.5411301  50.6168747  37.6790657  24.3986835  49.6914062
  37.6765404  22.2203693  50.3736115  37.4749413  21.5279961  51.0807724
  37.5520287  21.7248650  49.0045967  37.8575249  22.5362453  48.3439636
  38.6145325  20.5817394  48.8169708  38.4572868  19.8045673  49.5648880
  38.4817009  20.1811714  47.8119812  40.2624931  21.2999325  48.9264450
  40.2051659  21.7137241  50.1954575  36.1268387  21.3817501  48.8574333
  35.7274208  20.3068352  49.2860222  35.3368607  22.0446224  47.9878349
  35.8431702  22.7078724  47.4187584  34.0264587  21.6061420  47.4580994
  33.4011841  21.2171726  48.2617378  33.3355255  22.7863579  46.6512833
  32.3922005  22.4242783  46.2424583  33.1024895  23.5573254  47.3857269
  34.2249374  23.3621540  45.5041504  35.1719818  23.7267151  45.9020195
  34.4007721  22.6149540  44.7302818  33.7115822  24.8113747  44.5829124
  35.3130417  25.2230034  43.8804054  35.2388000  26.2936344  43.6897507
  36.1184692  25.0341377  44.5901375  35.5877190  24.7492905  42.9379349
  34.2816277  20.3286076  46.5642967  35.3036156  20.1576405  45.8716888
  33.3271866  19.4218121  46.5704536  32.6038284  19.6608658  47.2335587
  33.1142464  18.4146385  45.5548668  34.0886230  17.9415588  45.4328690
  32.0685310  17.3647118  46.0049553  32.4076080  17.0864067  47.0027924
  31.1472282  17.9199371  46.1811333  31.7041531  16.2512569  45.0153427
  30.9314880  15.5959902  45.4174805  31.2611656  16.7158890  44.1344490
  32.9828072  15.4863033  44.7406960  33.6776505  15.0099792  45.6164055
  33.1236992  15.1054459  43.5424232  32.4345016  15.2930670  42.8283424
  34.0563431  14.8177652  43.2825966  32.6802025  19.0050907  44.1863632
  31.8063869  19.8418312  44.0026894  33.4906158  18.6743717  43.1577797
  34.2612419  18.0473480  43.3396492  33.2222481  19.0985947  41.7430038
  33.0912819  20.1801987  41.7758484  34.3935852  18.5777931  40.8879890
  35.3028755  18.9352570  41.3712196  34.3982086  17.4888935  40.9367371
  34.4150543  19.0247765  39.4209175  35.3638916  18.7126694  38.9845772
  33.5871620  18.5460529  38.8979187  34.2361488  20.5245667  39.3441238
  34.3759460  21.2397461  40.3136253  33.8745232  21.0690842  38.3184547
  31.8436337  18.5507717  41.2868576  31.3955059  17.4792786  41.6577759
  31.1834602  19.3454933  40.4700089  31.5033913  20.2897644  40.3084641
  30.0074558  18.9459724  39.7248917  29.2914848  18.4529877  40.3825035
  29.1735229  20.1627178  39.3156128  29.0354748  20.7171860  40.2438393
  29.7389908  20.7175369  38.5669289  27.8086929  19.7722759  38.7593498
  27.9680996  19.0036087  38.0031509  27.2659836  19.1078072  39.4316940
  26.7214146  21.1147442  38.0863457  25.3052044  20.1751060  37.2953262
  24.4641895  20.1853504  37.9886436  24.9740696  20.6946411  36.3961411
  25.5753479  19.1542797  37.0250549  30.3464527  18.0276260  38.5342979
  31.0223122  18.5007362  37.6288414  29.7888432  16.8331318  38.4996567
  29.1159840  16.5874310  39.2116928  30.0294609  15.8326550  37.3821907
  31.0719299  15.9542923  37.0879631  29.7034969  14.3533630  37.8284149
  30.1952629  14.1323195  38.7757301  28.6438255  14.3246584  38.0821381
  29.9263458  13.2609625  36.7588120  29.7325191  12.1013546  37.1199951
  30.4806175  13.5392437  35.6701279  29.1267166  16.2474232  36.2909546
  27.9316158  15.9643908  36.4016113  29.7034569  16.6434727  35.1197090
  30.7074795  16.7501888  35.0942230  28.8558311  16.9332142  33.8963089
  27.8374023  16.6060143  34.1056976  28.8953304  18.4301968  33.5695915
  29.8945618  18.8646336  33.5395737  28.3205528  18.8262329  32.1390991
  27.2527237  18.6296654  32.0431709  28.5121117  19.8860874  31.9714298
  28.9517002  18.3589745  31.3831673  27.9909534  19.1509361  34.5324364
  28.2964592  19.0762157  35.5760765  28.0530815  20.2008610  34.2462540
  26.9880180  18.7640877  34.3519630  29.2831879  16.1288242  32.6352310
  30.4836903  15.8139935  32.3906517  28.2900715  15.7635775  31.7978516
  27.3886395  16.0862503  32.1194191  28.3716736  15.1617975  30.5221882
  29.1224289  14.3730402  30.5704479  26.9916039  14.5833921  30.1873837
  27.0589809  14.1996994  29.1693764  26.4644508  13.5370531  31.2331905
  27.3132820  12.9922180  31.6463966  25.8716679  13.9530993  32.0478134
  25.8053856  12.9739876  30.5723667  25.9932327  15.5233889  30.1882973
  25.8704376  16.0328846  30.9926205  28.7869835  16.1777363  29.4515762
  28.0220566  17.1126556  29.1961632  30.0008945  16.1776218  28.9540520
  30.5674477  15.3533144  29.0941753  30.6522903  17.3756542  28.3413563
  30.9979267  17.0531940  27.3591881  29.8904724  18.1404533  28.1902943
  31.7474518  18.1009998  29.1607780  32.4457664  18.9749279  28.6052799
  31.8070793  17.7580700  30.4649315  31.1381397  17.1281719  30.8842735
  32.7653847  18.3572102  31.4142017  32.7053528  19.4449272  31.3772049
  32.5628052  18.1297722  32.4607849  34.2115669  17.9335575  31.0617485
  34.5720100  16.7815342  30.9984188  35.0972672  18.9055748  30.9772644
  34.7847252  19.8639622  31.0397892  36.5221558  18.6828899  30.8612175
  36.6238060  17.9871006  30.0283623  37.2877693  19.9196243  30.4902706
  36.9562683  20.0799770  29.4643612  36.9377823  20.7254314  31.1354771
  38.8740616  19.8307285  30.6973305  39.1107903  19.4390240  31.6865864
  39.4690361  18.8966656  29.6306515  40.5567818  18.8390503  29.6705418
  39.1177101  17.8782234  29.7963238  39.1954117  19.4250374  28.7173862
  39.2923737  21.3482742  30.5251884  38.8799973  22.0560074  31.2443237
  40.3775787  21.3253059  30.6247025  39.0248070  21.7237110  29.5374851
  37.1370277  17.9185944  32.0815811  37.1064339  18.4416142  33.2334251
  37.4748917  16.6342983  31.8188324  37.3428459  16.4673119  30.8315220
  38.0281677  15.6028299  32.7723465  37.4413795  15.5090857  33.6861229
  38.0945053  14.1648979  32.1591034  38.8858643  14.2460604  31.4139423
  38.3094482  13.3831921  32.8876877  36.7066116  13.8237219  31.5001602
  36.3993187  14.6253691  30.8285675  36.7493820  12.9333868  30.8728065
  35.6996994  13.4618387  32.6151772  36.0300369  12.5500240  33.1127396
  35.7094841  14.1689796  33.4446106  34.3748589  13.2752514  31.8642960
  34.6519775  13.2435827  30.8105869  33.8672714  12.3904705  32.2485046
  33.5043869  14.5195169  31.9766865  33.4333992  14.6885042  32.9699173
  33.8967094  15.3056402  31.4784927  32.6484299  14.2910576  31.4916668
  39.3788528  15.9402723  33.3263741  40.1138878  16.6452503  32.6335640
  39.5996857  15.4163761  34.5376205  38.8604736  14.8024931  34.8487701
  40.9630775  15.2979469  35.1276588  40.9137421  15.0080118  36.1772308
  41.7819939  14.2294884  34.3796310  41.7237053  14.4496508  33.3136902
  42.8131905  14.3185396  34.7213898  41.3466721  12.8152990  34.7421989
  41.4587708  12.6250219  35.8095894  40.2794266  12.7887096  34.5222473
  42.1471863  11.7472057  34.0729790  41.9379044  11.9818144  33.0293045
  43.2185059  11.7866011  34.2700043  41.6236382  10.3799992  34.3863182
  41.7736206  10.0190744  35.4038353  40.5656242  10.3424501  34.1269112
  42.1956787   9.4215059  33.3912735  41.7913246   9.5703583  32.4777946
  43.1721878   9.6255426  33.2334862  42.0706596   8.4602022  33.6747665
  41.5272713  16.7414112  35.1934166  42.6357384  17.0275364  34.7102547
  40.7204971  17.6156921  35.9036140  40.0284309  17.1524181  36.4750366
  40.8193817  19.0482845  36.0250702  41.8026466  19.3559723  35.6692390
  39.5488091  19.5629997  35.3120193  39.5455856  19.0982132  34.3260880
  38.7277565  19.2577324  35.9607010  39.4452324  21.3651657  35.1306648
  40.4770546  21.6005974  34.3153076  40.7342834  19.4110889  37.5312004
  40.1269493  18.7087975  38.3272133  41.3982353  20.5249062  37.9797287
  41.9088974  20.9633236  37.2266579  41.2109718  21.2040215  39.1784973
  40.4356689  20.7730179  39.8119392  42.5055351  21.0970459  40.1054115
  43.3451080  21.1814957  39.4154243  42.7866554  22.1843815  41.0991936
  43.8142624  22.0465393  41.4355583  42.8078499  23.0777931  40.4751205
  42.0546341  22.2398129  41.9049034  42.5423775  19.7297440  40.7803040
  42.6178970  19.8159218  41.8642654  41.6238098  19.1809616  40.5725098
  43.7027130  18.8648796  40.1960526  43.6409645  17.8513222  40.5922737
  43.4463615  18.7986450  39.1386948  44.6385727  19.3785686  40.4160309
  40.7288437  22.6078606  38.9290428  41.1926117  23.2500248  37.9643135
  39.8505478  23.0961533  39.7830200  39.5243645  22.5050106  40.5341911
  39.4098091  24.5494518  39.7140465  39.8276215  25.1673393  38.9192238
  37.8910751  24.7139091  39.4149590  37.2956238  24.6216450  40.3232689
  37.7377739  25.7639885  39.1660919  37.3832779  23.8222485  38.2092514
  38.0273590  23.9670849  37.3419113  37.5959320  22.8075733  38.5458717
  35.9254112  24.0998764  37.7962036  35.7533073  25.1009655  37.4008522
  35.6276207  23.3348064  37.0792007  35.0311203  23.6799278  38.9518547
  34.8956795  22.6877728  39.0837097  34.3937454  24.4108047  39.7337227
  34.4482231  25.7056561  39.6387901  34.0596924  26.2292213  40.4101677
  34.8684692  26.1823940  38.8537979  33.7263680  23.8236866  40.6823883
  32.8008423  24.1612778  40.9049530  33.7670135  22.8206921  40.7939529
  39.6772270  25.2634926  41.0581589  39.3924789  24.7285194  42.1074066
  40.1287994  26.5158043  40.9665909  40.4226379  26.9372711  40.0970345
  40.3848915  27.3680439  42.1463203  40.1120567  26.7863350  43.0268250
  41.8467255  27.7957706  42.2845726  42.2670822  27.8423958  41.2799683
  42.2476616  29.2297058  42.9558296  41.8839493  29.2625561  43.9828377
  43.3246040  29.3955212  42.9841461  41.8351250  29.9899025  42.2924919
  42.6582375  26.7489033  42.9559250  42.4705696  25.7477112  42.5679970
  43.7036285  27.0358791  42.8423538  42.4577217  26.7247963  44.0270500
  39.4651527  28.6158867  42.1262016  39.2446709  29.3022766  41.1284294
  39.0760422  29.0613613  43.3450508  39.2253723  28.3993359  44.0930634
  38.3086967  30.3113823  43.5527725  38.4005508  30.9359398  42.6641808
  36.7715530  29.9465408  43.6857033  36.2841110  29.9774532  42.7112579
  36.5959015  28.9558792  44.1050339  35.9445953  31.0390396  44.4042625
  34.9028625  30.7249203  44.3392982  36.1533127  30.9899349  45.4729691
  36.1193466  32.6783028  43.6069603  35.8909760  33.7504196  45.0654259
  36.1761208  34.7820740  44.8593102  34.8426132  33.8653488  45.3407860
  36.5306206  33.3846512  45.8686485  38.7819633  31.0551739  44.8584251
  38.7163811  30.4213696  45.9069176  39.2163239  32.3074799  44.7016602
  39.0722122  32.7745514  43.8178177  40.0131416  32.9224854  45.7573433
  39.7527008  32.4192429  46.6884804  41.5109673  32.8397064  45.4060478
  41.8736115  31.8208981  45.5425072  41.6266289  33.1848488  44.3786240
  42.3587303  33.6966057  46.3242950  42.1894722  34.7491646  46.0972023
  42.0752563  33.5042572  47.3590660  44.1453209  33.3682098  46.2165222
  44.5207253  34.5288315  44.9410095  45.6054878  34.6256638  44.8960266
  44.1127014  34.2065506  43.9830170  44.0077133  35.4635735  45.1672554
  39.4945412  34.3145142  46.0072708  39.6889877  35.2150650  45.1316566
  39.0632057  34.6492538  47.2300072  39.1368980  33.9519920  47.9569855
  38.4004898  35.9959106  47.5828171  38.1231079  36.4954376  46.6545753
  37.1611862  35.7088089  48.4839706  37.5012169  35.3235703  49.4452591
  36.2339630  36.9910126  48.6335831  35.4644203  36.8401756  49.3906517
  36.9488602  37.7709694  48.8956718  35.6995010  37.2848969  47.7302094
  36.3031158  34.7232285  47.9700241  35.5562439  35.1688995  47.5636215
  39.4049721  36.9659119  48.2854118  39.9816742  36.5563774  49.2597504
  39.4973335  38.2957802  47.8771820  38.9275818  38.5836945  47.0945015
  40.5942001  39.1524963  48.2582932  40.9256668  38.9496880  49.2766724
  41.8106613  38.9931717  47.3641090  42.4305840  39.8406410  47.6566620
  42.5993004  37.7255669  47.5813446  42.6376953  37.4182854  48.6264343
  42.2795830  36.8392181  47.0333786  43.6394615  37.9410820  47.3369789
  41.6002808  39.2465668  45.8391151  41.6294327  40.3019905  45.5683289
  42.3108101  38.6741943  45.2427597  40.6136169  38.9084206  45.5224800
  40.1773987  40.6169624  48.3055496  39.5578461  41.1293640  47.3890686
  40.7360992  41.3409195  49.3123474  41.4320793  40.8147430  49.8211250
  40.7403030  42.8339272  49.3033409  39.7454910  43.0874252  48.9370232
  40.8924713  43.4753151  50.7261963  40.7128220  44.5504036  50.7291870
  40.1457062  43.1394539  51.4456711  42.2835655  43.1162949  51.3167953
  42.4994621  42.0554237  51.4434433  42.9780083  43.5581398  50.6022186
  42.6609612  43.8237038  52.5963020  41.8516006  44.4984398  53.2992668
  43.8921013  43.7089386  53.0281296  44.1541634  44.1504593  53.8978920
  44.6771431  43.3266907  52.5204887  41.7504578  43.2767792  48.1891365
  42.9566956  42.8914642  48.1428909  41.2847633  44.1056862  47.2413483
  40.3443680  44.4579544  47.3493500  42.0841026  44.6358871  46.1629181
  43.0515404  44.8988914  46.5907059  42.4878654  43.5366096  45.1549835
  43.1275101  42.7276764  45.5079422  41.2851524  42.8667336  44.4938354
  40.6290894  43.4848366  43.8809471  41.6835594  42.1345520  43.7914925
  40.7055511  42.5253716  45.3515205  43.1439896  44.1707916  44.0746727
  44.0635872  44.3204308  44.3060722  41.4950409  45.9100952  45.5291138
  40.2671776  45.9767609  45.2823219  42.3356438  46.9343338  45.1824379
  43.3286362  46.8579941  45.3504791  41.7515869  48.1464729  44.5123711
  40.8198738  48.4304390  45.0016327  42.5712051  49.3355827  44.8586769
  42.1160507  50.1100159  44.2412682  42.5193062  49.4765091  45.9382782
  44.1208496  49.2675438  44.5191727  44.4991531  48.5205994  43.5749702
  44.9343910  50.0075035  45.0459175  41.5946846  47.9256973  42.9976120
  40.8812408  48.6779861  42.3639069  42.2846870  46.9251976  42.4281044
  42.7569466  46.2597771  43.0233269  42.1639023  46.5390587  40.9739647
  42.6503792  47.2783318  40.3376350  43.0519714  45.3370972  40.6420937
  42.6406136  44.5790520  41.3086205  43.0185089  44.8565521  39.1786079
  43.6723175  44.0089722  38.9730873  41.9959450  44.6939392  38.8379860
  43.3250504  45.7288208  38.6013107  44.5298462  45.4650192  41.1052055
  45.0536118  44.5207787  40.9562492  45.0177765  46.2372284  40.5104637
  44.5301399  45.7924080  42.1448784  40.6937332  46.3548508  40.5028305
  40.0352364  45.4732094  41.1095581  40.2314568  47.1375198  39.5674782
  40.9063835  48.3076553  38.9398308  41.5992546  47.7767525  38.2870102
  41.3658257  48.9256058  39.7112923  39.8681145  49.2031364  38.2215576
  40.2196999  49.5195885  37.2395439  39.4759789  50.0203743  38.8269081
  38.7786942  48.1040840  37.9966621  39.0007019  47.6520844  37.0299644
  37.8465843  48.6686134  37.9725723  38.8239746  47.1100960  39.1516342
  38.2514801  47.4171638  40.0268822  38.3782692  45.7306328  38.5750275
  39.1862297  44.9214058  38.1026535  37.0752869  45.5384445  38.6654243
  36.4984550  46.1715355  39.2007370  36.4763451  44.2073708  38.4290543
  36.8235168  43.5545197  39.2299042  34.9323959  44.2262154  38.5881119
  34.7519875  45.0082512  39.3256607  34.5512161  44.5213966  37.6105270
  34.3172913  42.8549156  39.0192223  34.8690338  42.0116081  38.6038780
  34.3957634  42.9057312  40.1052094  32.7895851  42.8410416  38.7459221
  32.1487656  43.6368904  37.9991455  32.1622543  41.9151611  39.4933205
  32.6627502  41.2988281  40.1176109  31.1600399  41.9941978  39.5903702
  36.8760872  43.5549622  37.1056213  36.7851562  42.3005447  37.0115471
  37.2375488  44.3589363  36.0538635  37.4113808  45.3374557  36.2338295
  37.5690117  43.8061752  34.7655029  37.2091980  42.7837067  34.6506691
  36.9084816  44.7034416  33.7096901  36.9309425  44.1832886  32.7520676
  35.8593674  44.8073387  33.9865685  37.5231361  46.0998268  33.5816803
  37.6200867  46.7645073  34.6287117  37.8358803  46.5709839  32.4710312
  39.0972099  43.7970657  34.5567818  39.5835571  43.2210617  33.5994835
  39.9172401  44.3907776  35.4453583  39.6227646  44.8814011  36.2776299
  41.3633537  44.4607277  35.3495483  41.5888214  44.4920464  34.2835808
  41.9263725  45.8234291  35.8411942  41.7543221  46.0342941  36.8966713
  42.9786873  45.8854218  35.5638962  41.2647743  47.0056534  35.2373695
  40.1861801  46.8652306  35.1665306  41.4711380  47.8614655  35.8801003
  41.8957138  47.3013306  33.8179398  41.9262886  46.4769592  32.8762283
  42.5885086  48.3967857  33.7099342  42.8186417  48.9637184  34.5135078
  43.0161324  48.5625801  32.8100739  42.0434875  43.3268242  36.1158562
  43.1463699  42.9613571  35.7618828  41.3186111  42.5954514  37.0355339
  40.3966637  42.9160843  37.2949905  41.8186493  41.4199257  37.7286263
  42.8084106  41.4505615  38.1841812  40.8043709  40.9843826  38.8689384
  39.8144150  41.0796509  38.4228325  41.0356636  39.4706688  39.1985397
  40.3721733  39.1472588  40.0005951  40.8661880  38.7784157  38.3738174
  42.0552521  39.3643875  39.5690002  41.1330528  41.8387566  40.0280190
  42.1860161  41.8120880  40.3084793  40.8108559  42.8553391  39.8025131
  40.1399422  41.5256691  41.1750984  40.0585861  42.4717293  41.7103119
  39.1400719  41.5014763  40.7417717  40.4425392  40.6653595  41.7720909
  41.9482040  40.2621880  36.6903839  41.1018753  40.0745926  35.8161163
  43.0735741  39.5176544  36.7146950  43.6957130  39.6749535  37.4946327
  43.3277130  38.4059143  35.7918968  42.7736359  38.5787735  34.8692818
  44.8636589  38.3358879  35.4741669  45.3546600  38.0506935  36.4045868
  44.9862976  37.5759201  34.7024765  45.3769684  39.7594223  34.9740791
  44.7109146  39.9516411  34.1329308  45.2424812  40.5243721  35.7388420
  46.8641815  39.6709976  34.4563828  47.5553093  39.3548851  35.2377396
  46.9311066  38.9277802  33.6618690  47.1930923  40.9568443  33.9175720
  46.5529327  41.6877785  34.1933098  48.1278038  41.3030205  33.0535240
  49.1821136  40.5955505  32.9081764  49.9959908  40.9627151  32.4360542
  49.1798515  39.7106705  33.3950920  48.0311584  42.4799004  32.4818611
  47.1850433  43.0226250  32.5800819  48.6718597  42.6861572  31.7288265
  42.8014488  37.0727844  36.4156837  43.2641487  36.6476250  37.4961128
  41.7911148  36.4578056  35.7879639  41.5756073  36.7666740  34.8508110
  41.3957901  35.1289062  35.9682541  41.6167221  34.7272110  36.9571571
  39.8748283  35.1017723  35.8254395  39.6355095  35.4388771  34.8168869
  39.6032410  34.0487404  35.8993340  39.0594940  35.9498672  36.7354889
  38.3083420  35.5347366  37.8811493  37.9727516  36.6116943  38.5146484
  37.4035454  36.7380333  39.4237404  38.3535690  37.6715431  37.7748985
  38.2102852  38.6360817  38.0380287  39.0587807  37.2957001  36.7303810
  39.6470947  37.9622078  36.1171455  42.0839500  34.1752701  34.9919510
  42.4484978  34.5105896  33.8671265  42.4117775  32.9835434  35.4747734
  41.9194260  32.6374207  36.2858772  43.6457291  32.2285194  35.1650429
  44.1254845  32.7975807  34.3687363  44.7352409  32.3853226  36.2914429
  44.3423462  31.9603081  37.2150764  46.0683708  31.6491470  36.0107918
  46.8879356  32.0521584  36.6057663  45.7933197  30.6074085  36.1758003
  46.3493423  31.6386623  34.9576797  44.9823074  33.8882065  36.6225891
  45.2450371  34.3978577  35.6955872  44.2264137  34.4718666  37.1480103
  45.8258934  33.8866768  37.3128471  43.3957138  30.8112507  34.6830902
  43.3473587  29.9261513  35.5891190  43.2889328  30.5237865  33.3796158
  43.4638023  31.2855988  32.7399559  43.0419884  29.1948109  32.9007378
  42.7004585  28.4540310  33.6237183  41.8793030  29.3358688  31.9419365
  42.0252419  30.1732388  31.2595768  41.8426781  28.3964119  31.3904018
  40.5324821  29.4411812  32.6499062  39.8814507  28.2201805  32.9028931
  40.2280235  27.2844658  32.4897041  38.7050743  28.2110920  33.6616478
  38.2332039  27.2714005  33.9080544  38.2789307  29.4238796  34.2500420
  37.2792435  29.4626522  35.0926743  36.9726257  28.5981922  35.3760376
  38.9474525  30.6431541  34.0773621  38.5741730  31.5906239  34.4370384
  40.0867233  30.6220665  33.2638779  40.6656647  31.5150928  33.0802040
  44.3119545  28.5526714  32.2636032  45.0112305  29.2148609  31.4505024
  44.6177940  27.2934151  32.6080055  44.0861168  26.8391380  33.3367424
  45.8589935  26.6673260  32.3070335  46.3843460  27.2881165  31.5812759
  46.8453598  26.7414780  33.5808601  46.4518700  26.1352444  34.3967934
  47.8042831  26.3255386  33.2717323  47.0398865  28.1989365  34.0709190
  46.0743866  28.7024670  34.1196213  47.8145256  28.2103500  35.3735466
  48.7327614  27.6480808  35.2038918  47.9067268  29.1762104  35.8702507
  47.1424637  27.5710945  35.9460716  47.9599266  28.9455566  33.1713753
  47.4815254  29.1949272  32.2242546  48.2313728  29.9183998  33.5812454
  48.9593277  28.5358334  33.0250206  45.7270699  25.2417564  31.7309532
  44.6195030  24.6848774  31.7103004  46.7042999  24.6925964  31.0706596
  47.5554085  25.2323551  31.0045090  46.6822891  23.4146233  30.3801861
  47.6305275  23.3705158  29.8444614  46.7970047  22.2836246  31.3853207
  45.8842087  22.2400684  31.9794598  46.8926697  21.4145927  30.7343712
  48.0626984  22.3567772  32.3267517  48.1592751  23.2786541  32.9002647
  47.9859810  21.6280727  33.1337280  49.3757477  21.9870853  31.5886059
  50.2072754  22.8797226  31.2733364  49.5062294  20.8003998  31.2890110
  45.4696693  23.3434658  29.4001675  45.2669830  24.2182159  28.5576553
  44.7726021  22.2072601  29.3493176  45.1285629  21.3790760  29.8048439
  43.6764030  21.9772339  28.5128708  43.8428459  22.4251900  27.5332108
  43.3736649  20.4677277  28.4098320  42.8433914  20.1719818  29.3150635
  42.7277603  20.2870884  27.5506020  44.6643715  19.6044025  28.2046356
  45.1631775  19.9463272  27.2977791  45.4525108  19.7437420  28.9445839
  44.3121681  18.0967712  28.0724297  43.9275665  17.6748295  29.0009499
  43.6933327  17.9818726  27.1825161  45.6297226  17.3651333  27.8274364
  46.0781059  17.8597927  26.9658318  46.3798637  17.4650040  28.6119213
  45.5568695  16.0190716  27.3606796  45.1356812  15.9719486  26.4439030
  46.5004578  15.6594076  27.3802948  44.9726295  15.5052691  28.0047054
  42.4724312  22.7336578  29.1375580  41.5777206  22.9164543  28.3545132
  42.4050598  23.1817684  30.4022198  43.2103500  22.9956074  30.9827003
  41.4401855  24.1580200  30.9137268  40.4920006  23.7245941  30.5956268
  41.5939522  24.1293831  32.4281578  42.4487000  24.6999092  32.7914810
  40.6587715  24.6451511  32.6461601  41.5273056  23.1188488  32.8312454
  41.5037498  25.4758377  30.2425327  40.4600601  26.1181641  30.3787041
  42.5945854  25.8313999  29.5319138  43.3325157  25.1417999  29.5288277
  42.5800018  27.0850010  28.7394371  42.6517601  27.8867493  29.4743881
  43.8207207  27.0056610  27.8339691  43.8205681  25.9813690  27.4612408
  43.7929878  28.0213280  26.6877174  43.6445656  29.0637093  26.9696884
  44.6657486  27.8701820  26.0524693  42.9338684  27.7588062  26.0703831
  45.0173454  27.1836395  28.7578182  45.0582695  28.1610756  29.2384834
  45.0557632  26.3696575  29.4817371  45.8668289  27.0616398  28.0858173
  41.2833405  27.4728470  27.9378796  40.8222809  28.5904980  28.0027485
  40.6204605  26.4998932  27.3490181  41.1275826  25.6395721  27.1981087
  39.2971153  26.5971813  26.5765781  39.3647537  27.4822006  25.9439049
  39.1886101  25.3675880  25.7299995  40.1011009  25.3056850  25.1370182
  39.0299797  24.0519047  26.5018559  39.1714363  23.1883259  25.8519897
  39.8915825  23.9872684  27.1663570  38.1506577  24.0376244  27.1458225
  38.0045967  25.3179607  24.7172260  37.1101227  25.3743801  25.3375740
  38.1387672  26.1771259  24.0600071  38.0031471  24.3626995  24.1922703
  38.1773911  26.9269695  27.5654716  37.0917397  27.3000374  27.0843201
  38.2679482  26.7781830  28.9089756  39.1647797  26.6020088  29.3388004
  37.1480789  27.0742798  29.8532715  36.1722488  26.9120445  29.3955193
  37.1021271  25.9827805  31.0051937  37.9043846  26.3048153  31.6691093
  36.2221909  26.1537342  31.6253452  37.2908592  24.5382690  30.7514629
  38.2620544  24.2458801  30.3522205  37.3832359  23.9206581  32.1950722
  37.0609360  22.8794785  32.2080421  38.4258842  23.8947849  32.5118103
  36.7434540  24.4249992  32.9192429  36.2035370  23.8341236  29.9968376
  36.0143814  24.3317966  29.0457115  36.4398689  22.7867584  29.8090057
  35.3479996  23.8037014  30.6715450  37.1471825  28.5431767  30.4168339
  36.3188019  28.8816090  31.2597733  38.0218506  29.3779011  29.8354607
  38.5588150  29.0142612  29.0611629  38.1122246  30.8159637  30.2192135
  38.3838081  30.8986874  31.2715912  39.2963028  31.3928967  29.4141388
  39.5160637  32.3397217  29.9074173  40.1412468  30.7063046  29.4666634
  39.0399551  31.5936680  27.8797245  38.5300522  30.8170872  27.3096180
  38.4191360  32.4830208  27.7714024  40.3340645  32.0028496  27.2565022
  40.5223236  33.0419731  27.5264626  41.1527519  31.4406261  27.7056808
  40.2339935  31.8169956  25.8146019  39.7835732  30.9741211  25.4878254
  40.3203239  32.7069244  24.8615704  40.9719238  33.8417168  25.0185528
  41.3382416  34.1177025  25.9184113  40.8169785  34.4679108  24.2413960
  39.8484955  32.4410439  23.6738472  39.4637909  31.5582371  23.3693027
  39.6659050  33.1326561  22.9608021  36.8233185  31.5567207  30.0188770
  36.0042305  31.2146473  29.1217384  36.5597801  32.7047958  30.6336823
  37.3531761  33.1377907  31.7542419  38.0801888  33.8112679  31.3003902
  37.9734459  32.4198608  32.2908478  36.3434906  33.9076729  32.5828705
  36.9243317  34.6098785  33.1808891  35.8558006  33.2514305  33.3037033
  35.2808914  34.4474335  31.6131744  35.6099586  35.4365387  31.2946014
  34.3587036  34.6186371  32.1684799  35.3207130  33.4729614  30.4881725
  34.5293198  32.7241516  30.4552803  35.2207680  34.1832542  29.1709137
  34.0936584  34.5339165  28.7511654  36.3448830  34.4126511  28.4588985
  37.2024422  34.0967522  28.8889008  36.5019112  35.1253967  27.1706676
  37.5686150  35.2732162  27.0021706  36.0955276  34.1585274  26.0647507
  36.6355896  33.2386475  26.2889347  35.0640373  33.8364487  26.2075863
  36.4044304  34.7341347  24.6947117  35.8768387  34.3369141  23.6158772
  37.2628136  35.6381416  24.5920982  35.8949509  36.5209465  27.1605377
  34.7495346  36.6919785  26.6326389  36.5499229  37.4226837  27.8919773
  37.5352478  37.2327881  28.0067692  35.9883080  38.7288895  28.0899277
  35.0251083  38.5640526  28.5728054  36.9176979  39.5015373  29.0365620
  37.8060341  39.7526741  28.4570045  36.4753952  40.4511299  29.3378010
  37.3249855  38.8764992  30.3950348  37.8027840  37.9210777  30.1782875
  38.2721405  39.8187447  31.1862354  37.6057434  40.5252914  31.6810226
  38.7329979  39.1048737  31.8689537  38.9458809  40.3141670  30.4871407
  36.1725883  38.5260887  31.3399220  35.4189987  39.3096313  31.4190311
  36.5710068  38.3814735  32.3441391  35.6010628  37.6566505  31.0150528
  35.8042564  39.4998932  26.7630234  36.7204056  39.6469574  25.9424915
  34.6330490  40.0851250  26.5788879  33.8695755  39.8578110  27.1998062
  34.3263054  41.0730247  25.5494022  35.2589607  41.4444962  25.1248341
  33.6000595  40.4362946  24.4404659  34.2534599  39.7297478  23.9286442
  32.8143311  39.8492470  24.9159718  32.9817200  41.2354393  23.4726448
  32.3770752  40.6769600  22.9785748  33.5657501  42.3264809  26.0819969
  32.5945244  42.2311554  26.8025074  34.1416969  43.4959526  25.7821770
  35.1200256  43.4865837  25.5314198  33.4988632  44.7708321  25.9293995
  33.4123116  44.9773407  26.9961529  34.5608902  45.7460594  25.4847755
  35.5237923  45.4698448  25.9144592  34.6383667  45.7224998  24.3977871
  34.2530518  47.2734604  25.6360817  33.3022118  47.4450302  25.1315403
  34.2253532  47.6435928  27.1569538  33.9426613  48.6955910  27.1955585
  35.2142601  47.6814766  27.6138191  33.5307121  47.0695953  27.7702255
  35.4339218  48.1162338  25.0529613  36.3531952  47.5855598  25.3007908
  35.4830017  48.2761192  23.9758682  35.5563087  49.0859108  25.5355053
  32.1444550  44.9842644  25.2615910  31.2263451  45.5584373  25.8314419
  31.9856415  44.3695259  24.1287308  32.7178192  43.8264999  23.6938324
  30.6383209  44.3254128  23.4678345  30.2542000  45.3372192  23.3382187
  30.7842388  43.6309891  22.0544205  30.9207516  42.5686493  22.2566452
  29.5680866  44.0560684  21.3170300  29.5373039  43.7105331  20.2837048
  28.7486553  43.5684395  21.8450966  29.5152187  45.1447754  21.3212948
  31.8440018  44.1742630  21.2574787  31.8271961  43.7095718  20.4176102
  29.5615559  43.7031746  24.3919315  28.3789330  44.1320839  24.3738613
  29.9333992  42.7324600  25.3246613  30.8889561  42.4056358  25.3387108
  28.9626274  42.1299706  26.2155094  28.0163727  42.0286446  25.6840611
  29.4394894  40.7095528  26.5952587  30.3935642  40.7060089  27.1223526
  28.6242256  40.4043808  27.2512436  29.5408821  39.7271461  25.3863506
  28.6238728  39.7101402  24.7973614  30.2160263  40.0323067  24.5868759
  29.9577427  38.2874222  25.7877045  30.0392303  37.6762924  24.8888264
  30.9651756  38.2826424  26.2038231  28.9764404  37.6998558  26.8066292
  28.9363575  38.4958191  27.5502262  27.9967289  37.6108513  26.3372231
  29.4338818  36.4671707  27.4093590  29.3602543  35.7027626  26.7533436
  30.3631649  36.5494919  27.7963486  28.8520393  36.1585274  28.1750603
  28.4949532  42.9632950  27.4268589  27.5083065  42.6353912  28.1430340
  29.2439022  44.0507851  27.6464577  29.9963398  44.3719788  27.0541973
  28.8041630  45.0819511  28.6335716  28.4205532  44.6216125  29.5440826
  29.9985275  45.9321747  29.0663605  30.3595524  46.4369507  28.1702805
  29.6701679  46.6913567  29.7762413  31.1228447  45.1065712  29.6576233
  31.0344086  43.9570198  30.0457191  32.2589760  45.7452850  29.7558041
  32.2852974  46.7459145  29.6211071  32.9977646  45.2309113  30.2137451
  27.6703415  45.9688911  28.0684624  27.5304432  46.1728668  26.8518028
  26.9748535  46.6743546  28.9319420  27.0517883  46.4396057  29.9112644
  26.1294174  47.8180923  28.5577106  25.5396652  47.5390205  27.6845493
  25.1625900  48.1567688  29.7611217  24.5326004  49.0093117  29.5073814
  24.1272545  47.1005783  30.1243057  23.7393456  46.6358490  29.2178516
  24.5398750  46.3480873  30.7963200  23.3595142  47.5790901  30.7323380
  25.8293533  48.6094246  30.9504509  25.7653751  49.5672836  30.9537830
  27.0967617  48.9802742  28.2295036  28.0753860  49.0846977  28.9871674
  26.9997749  49.7791710  27.1612530  26.2350712  49.6278648  26.5190411
  27.9263706  50.9451904  26.9457226  28.9419327  50.6026154  26.7472973
  27.5950546  51.8070908  25.7070770  26.5322361  52.0482292  25.6878605
  28.1554127  52.7410202  25.7504272  27.9394054  51.2512779  24.2650967
  27.3766975  50.3480225  24.0293140  27.5057507  51.9990425  23.6011028
  29.3753777  51.0761414  23.8816967  30.3018532  51.8452644  24.3044014
  29.6330605  50.1969910  22.9937000  28.0240574  51.9156570  28.1723595
  29.0899296  52.1092606  28.7552814  26.9381847  52.3784790  28.5930099
  26.1354103  52.2092514  28.0039291  26.7664776  53.0879822  29.9615955
  27.6054840  53.7836723  29.9480114  25.3475113  53.7936401  30.0573311
  25.2982082  54.4264221  29.1711826  24.5669289  53.0836105  29.7841148
  24.8542824  54.3608246  31.3489532  24.7930679  53.5984192  32.1255417
  25.7126942  55.5423431  31.8012142  25.4978046  56.3947983  31.1568298
  25.5514355  55.8433456  32.8363419  26.7878075  55.3804054  31.7237186
  23.4405098  55.0404320  31.1817570  22.7692795  54.3126564  30.7258015
  23.0580025  55.3710747  32.1473999  23.5482502  55.9063263  30.5285187
  27.0046654  52.1406059  31.1442852  26.1747494  51.2573662  31.2850742
  28.0838070  52.1991844  31.7708454  35.5630836  48.3675842  56.5494232
  35.0536003  48.0316086  55.7446556  34.8279610  48.9305344  56.9528847
  36.2019119  49.0080414  56.1001854  35.9636688  47.3753242  57.5581512
  36.7207909  47.8626328  58.1724777  34.7609940  46.9524307  58.5217171
  34.4461632  47.8698311  59.0190659  33.9801178  46.5212364  57.8953018
  35.2030029  45.9283485  59.5546570  34.3843880  45.9067154  60.2740364
  35.2617111  44.9518929  59.0738373  36.6564827  46.2095184  60.5383377
  36.2761536  47.8648834  61.3432045  35.2928581  47.7395668  61.7965431
  37.0179520  48.1665459  62.0826874  36.2033501  48.6422539  60.5826187
  36.4616547  46.1977043  56.7016144  35.9734802  45.9550591  55.6191673
  37.4056854  45.3903694  57.2268333  37.8230133  45.5668182  58.1294975
  37.7002296  44.1517677  56.4687881  37.8447266  44.4670753  55.4354439
  39.0783005  43.5334396  56.9934387  39.8705635  44.2537994  56.7897186
  39.0252419  43.3144226  58.0598907  39.5056763  42.2315407  56.3786697
  40.3461418  41.7821045  56.9075623  38.6792336  41.5316849  56.5023346
  39.8423233  42.3883324  54.6252480  41.2504272  41.3296165  54.4054222
  41.2523308  41.0097351  53.3634186  42.1592712  41.8671951  54.6758194
  41.0964203  40.4336166  55.0067253  36.5819626  43.0501404  56.5030746
  35.8350754  43.0286713  57.4851913  36.4157333  42.1608696  55.5817604
  36.8795471  42.2470360  54.6887054  35.8050423  40.7980499  55.8200188
  35.5284996  40.8591194  56.8725853  34.4946098  40.4824142  55.0441551
  34.0934296  39.5450592  55.4295464  33.3300972  41.5707626  55.3536186
  32.3911514  41.5366859  54.8010597  33.0032845  41.4205666  56.3825684
  33.7976532  42.5502014  55.2526093  34.7029343  40.1302872  53.5947075
  35.1220093  41.0200615  53.1248398  35.4707832  39.3631973  53.4942741
  33.4985619  39.6747818  52.8086090  32.8672256  39.0748482  53.4640427
  32.9955788  40.5720596  52.4480438  33.8414879  39.1345062  51.9262238
  36.6800079  39.5404396  55.7587509  37.5134544  39.3913078  54.8766785
  36.5189743  38.6564903  56.7728233  35.7583809  38.9102859  57.3869820
  37.3983116  37.5354996  56.9610100  37.9602089  37.4338799  56.0325470
  38.3387146  37.7879486  58.1316757  37.7283936  38.2458153  58.9101143
  38.7990227  36.9184647  58.6009560  39.5757942  38.7213707  57.6689529
  39.8560028  38.3618126  56.6788521  39.1570168  39.7262764  57.6151314
  40.8154984  38.6887360  58.5361404  40.4993629  38.8731270  59.5628586
  41.2038345  37.6816444  58.3842812  41.7397499  39.7067566  58.1583557
  41.6534081  40.5273857  58.7407799  42.4574585  39.6777573  57.0606537
  42.6595993  38.6119614  56.3008156  42.0966682  37.7974243  56.5001564
  43.3142281  38.6574135  55.5330315  43.1678200  40.7374763  56.7596321
  43.7548599  40.7193451  55.9379539  43.0062256  41.5653038  57.3152313
  36.5168915  36.2200356  57.0473938  35.3254852  36.2892456  57.2308121
  37.1445160  35.0357780  56.9111366  38.0954704  35.0418968  56.5709229
  36.5184975  33.6421547  57.0332794  35.4582710  33.5831718  56.7872353
  36.9322662  32.9650002  56.2860374  36.8012810  33.0075340  58.4265900
  37.8317223  33.3762779  59.0198898  35.9020805  32.1296425  58.8730812
  35.1550026  31.8052349  58.2758102  36.1912804  31.1863937  60.0009041
  37.2318192  31.3273811  60.2933159  35.3852921  31.5464783  61.2767906
  34.3796654  31.2547989  60.9739075  35.9269028  30.6210728  62.3797150
  35.5628357  29.6116161  62.1885262  37.0062599  30.5079689  62.2782440
  35.5817451  30.9453316  63.3614655  35.3905830  32.9943199  61.5464478
  36.4053040  33.2777443  61.8259354  35.1612129  33.6369896  60.6964645
  34.5233498  33.4127769  62.7537766  34.5188484  34.5008583  62.8183212
  33.4901733  33.1236496  62.5612793  34.8254242  32.9461021  63.6913605
  35.8942223  29.7118492  59.5204849  34.7829323  29.3965149  59.0333252
  36.9006386  28.8553333  59.6772804  37.7290878  29.1743927  60.1589165
  36.8888474  27.3503590  59.3909836  36.0371628  27.1548386  58.7394447
  38.1328354  26.7986794  58.6581268  39.0204277  27.3506565  58.9673157
  38.2107964  25.7750931  59.0245857  38.1903915  26.8494663  57.1241837
  38.2980118  27.8549442  56.7173271  39.0974388  26.3097057  56.8521042
  36.9142342  26.1983757  56.4963951  36.0370026  26.8232365  56.6640739
  37.1543350  26.0830860  55.4394379  36.6324425  24.8385544  56.9771194
  35.6848793  24.6316071  57.2588959  37.4037895  23.7892208  56.9450188
  38.6181831  23.7014256  56.3918533  39.0646210  22.7980099  56.3237648
  38.9979362  24.4578342  55.8407326  36.9846115  22.6693249  57.4535103
  37.5934486  21.8672028  57.3759308  36.3055496  22.6125259  58.1989975
  36.6196327  26.5700054  60.6472702  36.9841270  27.0537758  61.7433167
  36.1965103  25.3596210  60.4239693  35.8858910  25.0680599  59.5082130
  36.1416321  24.3198414  61.4873848  37.1714592  24.1860905  61.8185501
  35.5386238  24.7576542  62.2828789  35.6395569  22.9349613  61.0885353
  35.2785568  22.7580090  59.9031754  35.5768814  21.9964561  62.0114822
  35.9925117  22.2019119  62.9087753  35.0357170  20.6365681  61.6970863
  34.2251396  20.7617455  60.9791794  36.1328888  19.8312206  61.0856552
  35.8248405  18.8757687  60.6610298  36.8101196  20.3494167  60.4067383
  36.7625008  19.4960289  61.9098740  34.6255226  19.7946415  62.9261017
  35.0634422  20.0759754  64.0425110  33.8457909  18.8017788  62.6972542
  33.5450592  18.6393909  61.7468376  33.4827728  17.8073597  63.6893692
  34.3392982  17.4711533  64.2736816  32.4318810  18.3711643  64.6649399
  32.8155823  19.2683620  65.1506500  31.0561676  18.6138248  64.0023193
  30.5680904  17.7027798  63.6560974  30.4168129  19.2844315  64.5764389
  31.2574768  19.2513103  63.1413956  32.2234459  17.3824215  65.6441574
  31.6321201  17.8226070  66.2591171  33.0518150  16.4697933  63.0521622
  32.8426781  16.4457531  61.8363457  32.8942146  15.4655390  63.8324585
  33.1304016  15.5330009  64.8121338  32.4760551  14.0746679  63.3414001
  32.1115685  14.1164188  62.3149986  33.7065620  13.1306038  63.2951393
  33.3521690  12.1495762  62.9787674  34.7265968  13.6317902  62.3081131
  35.4420547  12.8296852  62.1268730  34.2368355  13.8899879  61.3691940
  35.2171707  14.5181961  62.7102623  34.3106575  13.0701332  64.5661697
  33.7305260  12.6786318  65.2232666  31.3676224  13.4620752  64.2510147
  31.0373936  13.8401423  65.4125137  30.7588425  12.4234371  63.7268295
  30.9836788  12.2632275  62.7552910  29.6391754  11.5904369  64.2514496
  29.5561962  11.7557993  65.3256378  28.2569389  12.1076097  63.7828140
  27.6059685  11.5087328  64.4197464  27.8915253  13.5734892  64.0088654
  27.8251286  13.5859451  65.0967712  28.7058620  14.1899328  63.6281395
  26.9607258  13.8300800  63.5030174  27.8811302  11.8371134  62.3343506
  27.9383717  10.7989016  62.0073204  26.8093395  11.9785557  62.1952133
  28.5044308  12.3986130  61.6384201  29.7574196  10.0265598  63.9909515
  30.2584248   9.6070604  62.9568405  29.2350159   9.1583815  64.8580856
  28.6419468   9.5300922  65.5862350  29.2350216   7.7259240  64.7522125
  30.0237770   7.3674130  64.0908203  29.5700359   7.0255046  66.0369644
  28.6324482   6.8581581  66.5670776  29.9976845   6.0698590  65.7337189
  30.5369473   7.8294773  66.8815460  30.2632103   8.8665066  67.0758133
  30.7139988   7.3428016  67.8406601  31.9054031   7.8973236  66.2708435
  32.5269737   6.9973230  65.7619629  32.5762749   8.9211493  66.4098816
  28.0519104   7.0393481  64.0810471  28.0734348   5.8740706  63.7886772
  26.9964771   7.8708153  63.9247894  27.0335960   8.8087130  64.2977142
  25.7598152   7.4222732  63.1456108  26.0150509   6.5654497  62.5220604
  24.5284939   7.1388783  64.0342484  24.2725887   8.0748262  64.5308533
  23.7034569   7.0971746  63.3231392  24.6470833   5.9687915  65.0347748
  24.9730606   5.0681543  64.5144958  25.3559494   6.3102431  65.7891083
  23.2540359   5.8496461  65.6992722  22.4794941   5.5528560  64.9920959
  23.2654381   5.0273280  66.4146423  22.7332783   6.9732594  66.4437866
  23.3273697   7.7854786  66.5301285  21.5546455   7.1112719  67.0878296
  20.5686378   6.2530804  66.9247284  20.6127834   5.7888875  66.0288086
  19.6697426   6.3514080  67.3746414  21.3767242   8.1108780  67.9052505
  22.0598507   8.8025808  68.1790924  20.5476189   8.0351105  68.4770432
  25.3289948   8.5320969  62.1536980  25.1775608   9.6721706  62.5254059
  24.8633995   8.1089611  60.9580002  24.8789425   7.1721969  60.5807343
  24.0539074   8.9960032  60.1153908  24.5387516   9.9717216  60.1470261
  24.1881065   8.4502115  58.7305756  25.1825905   8.6145535  58.3157310
  24.0436440   7.3699117  58.7440834  23.1787529   9.0693130  57.8434410
  23.2118454  10.2653790  57.5258179  22.3913841   8.2480221  57.2704048
  22.6356621   9.0844736  60.6275177  21.8672905   8.2037373  60.3480339
  22.3020706  10.1357718  61.3953285  23.1005974  10.6638250  61.7172165
  20.9269638  10.4580708  61.9003105  20.1859760  10.3892612  61.1038780
  20.5212040   9.4645004  63.0092659  20.4152164   8.4827871  62.5476303
  21.4763393   9.2839813  64.2453690  21.1870270   8.4343491  64.8638611
  22.4489498   9.0749493  63.7999115  21.6297646  10.2043676  64.8087997
  19.2684097   9.7787561  63.6216469  18.5744553   9.7671003  62.9584045
  20.8024960  11.9356432  62.5018044  21.8293781  12.4380684  62.8984680
  19.6666279  12.5265360  62.6251640  18.8399067  12.0729866  62.2633247
  19.5036697  13.8394909  63.2702675  20.2703762  14.5084438  62.8794174
  18.0792427  14.3643150  63.1350098  17.3836441  13.7033234  63.6520500
  18.0307045  15.3245897  63.6484451  17.6016273  14.6223803  61.6884880
  18.0232906  15.5851879  61.3998680  17.9285851  13.7458544  61.1291122
  16.0733795  14.7651443  61.5057411  15.6304665  14.8701782  60.3529320
  15.3136787  14.7918682  62.5068665  19.9512100  13.9088678  64.7180862
  20.5127831  14.9485350  65.1466446  19.8114891  12.8244982  65.5080490
  19.4379082  11.9576569  65.1487122  20.1864166  12.8632574  66.9473572
  19.5206432  13.5887451  67.4148102  19.9053288  11.4445791  67.5053101
  20.5199509  10.6756258  67.0372772  20.2778530  11.3343763  68.5237274
  18.4290867  11.0144348  67.4924393  18.0885868  10.9215603  66.4611664
  18.2611256  10.0277996  67.9242325  17.5326576  12.0491829  68.1716919
  16.5391350  12.4639711  67.5905304  17.7641830  12.5294781  69.2763977
  21.6368122  13.1968174  67.3018417  21.8195534  13.7732115  68.4063721
  22.5719395  12.8802605  66.3587189  22.2769547  12.2902870  65.5938492
  23.9623222  13.2345896  66.3179932  24.3321152  13.4119453  67.3278885
  24.7866917  12.0785713  65.6828232  24.4738255  12.0532589  64.6389999
  25.8494339  12.2538433  65.8500519  24.5027657  10.6553974  66.3027267
  23.4945354  10.4126301  65.9671173  25.2831783   9.9893560  65.9347000
  24.4930859  10.5582180  67.8124695  25.2038097  11.2588358  68.5628357
  23.7276516   9.7123623  68.3098297  24.1843529  14.5619068  65.4569321
  24.8105469  15.5648565  65.8774719  23.7149067  14.5283709  64.1713715
  23.0673733  13.8085556  63.8838501  24.2642078  15.3150330  63.1904793
  25.3521843  15.2735853  63.1385918  23.7813129  14.8611355  61.7500992
  22.7028427  14.7031918  61.7577820  24.0832634  15.8128271  60.5354576
  23.8968201  16.8569450  60.7867661  25.1526318  15.7654295  60.3297615
  23.4102554  15.7466879  59.6805954  24.3389778  13.4733877  61.3183632
  25.4155922  13.5321827  61.1585350  24.2419701  12.6764479  62.0556412
  23.7847500  12.9968338  60.0242577  22.6993294  12.9575109  60.1160126
  24.0709763  13.5592318  59.1355057  24.0496578  11.9559135  59.8387604
  23.8669357  16.7267723  63.4889717  24.6897526  17.6374969  63.3624420
  22.6136265  16.9467850  63.8402061  21.9990501  16.2718620  64.2724991
  22.1751785  18.3379173  64.1988907  22.5995579  19.1086712  63.5555115
  20.6252861  18.3072300  64.3004608  20.2865314  17.7237778  65.1565781
  20.3974438  19.3504066  64.5194778  19.9417439  17.8924789  62.9015388
  19.9027863  16.8070602  62.8096199  18.4632988  18.4020691  63.0131531
  18.0722141  17.9952869  63.9457207  18.2586040  19.4725800  62.9988861
  17.9005566  18.0180283  62.1623077  20.6048431  18.5006714  61.6632423
  20.6252804  19.5856457  61.7658043  21.5296669  18.0153217  61.3514099
  19.9688187  18.3282738  60.7949944  22.7717533  18.6585083  65.5440140
  23.3003254  19.7705956  65.7490082  22.6815434  17.7359333  66.5478210
  22.2777920  16.8217506  66.4016953  23.1122131  18.0119705  67.9275742
  22.4811954  18.7834110  68.3689346  22.8951263  16.7311993  68.7838821
  21.8590736  16.4424400  68.6069412  23.4008255  15.8786030  68.3306198
  23.1495838  16.7899399  70.3083954  23.0507927  15.7736607  70.6898651
  24.1994877  17.0534973  70.4362183  22.2706451  17.7874355  71.0800247
  22.7335930  18.5008335  71.9105911  20.9749222  17.8835049  70.8210602
  20.5180855  17.2110291  70.2217484  20.5117798  18.5395527  71.4335938
  24.6182804  18.4079609  68.0213394  24.9521446  19.2573357  68.8666992
  25.4472580  17.8389664  67.1236420  25.0744858  17.1289101  66.5096741
  26.8646450  18.1176491  67.0892792  27.2003803  18.3243713  68.1054688
  27.5938988  16.8679008  66.6117783  27.2754574  16.5427094  65.6213531
  28.6653900  16.9931431  66.7677155  27.4389801  15.6090059  67.5239334
  26.3714905  15.4457912  67.6720276  27.8620949  14.8269701  66.8934631
  28.2104664  15.7734995  68.8975754  29.2463150  15.9348936  68.5991287
  27.9238434  16.6744385  69.4400253  27.9204292  14.5829229  69.8272400
  26.9024487  14.5356112  70.2140045  28.1006279  13.6684675  69.2620850
  29.0225315  14.5709419  70.8745270  28.9493294  15.4615278  71.3452682
  28.8022423  13.9078894  71.6038666  29.9981289  14.4398489  70.6484146
  27.0829620  19.4004211  66.2998428  27.8520813  20.2657719  66.7704926
  26.2902451  19.6597729  65.2180557  25.5343552  19.0350266  64.9763412
  26.2827244  20.9408607  64.4713669  27.2593136  21.0511646  63.9999733
  25.3253384  20.9802818  63.2744980  24.2600269  20.8450909  63.4614143
  25.3866444  22.3745003  62.5856400  24.7002525  22.4505062  61.7423248
  25.2477703  23.2531490  63.2155495  26.3830452  22.5277424  62.1711388
  25.7775974  20.0977936  62.2258987  25.4371700  19.2307301  62.4580879
  26.1527958  22.0815048  65.4827423  27.0309525  22.9245167  65.4771423
  25.1011829  22.0653172  66.3983383  24.4170895  21.3251305  66.3332443
  24.9785786  23.1511974  67.4246597  24.6443882  24.0777092  66.9577637
  23.8602943  22.6824665  68.3984375  23.3084469  21.9003201  67.8770828
  24.3427830  22.2084579  69.2532043  22.8776970  23.7599964  68.8773193
  22.8488083  24.5354614  68.1118622  21.9184246  23.3760223  69.2243958
  23.4476967  24.3841019  70.1548538  23.6109848  23.6337757  70.9284515
  24.4033947  24.8741455  69.9688416  22.5546322  25.4940033  70.5312271
  22.8651371  26.4070683  70.0232925  21.5192127  25.2973423  70.2531357
  22.6418571  25.9984417  71.9132080  21.9533596  26.6688213  72.2241135
  22.4767170  25.2234268  72.5394516  23.4965115  26.4997406  72.1090775
  26.2907372  23.4127388  68.1877060  26.8702335  24.5013695  67.9967499
  26.8685570  22.3855114  68.8519821  26.4420452  21.4751568  68.7547836
  28.0371571  22.5540905  69.7736664  27.7718163  23.3327465  70.4887772
  28.3312492  21.3178520  70.6604996  28.6367512  20.4311008  70.1051254
  29.1483631  21.5111046  71.3555450  27.0092010  20.9862976  71.4046173
  26.8941574  21.6598511  72.2538452  26.1230602  21.1028538  70.7807007
  27.0399837  19.5542469  71.9101028  27.8147717  19.2469444  72.8189316
  26.2374115  18.7042675  71.3197098  26.4119015  17.7111721  71.3782120
  25.6560879  19.0559044  70.5723724  29.3143902  23.0163689  69.0253677
  30.0764370  23.7400112  69.6706009  29.5069942  22.7290344  67.7173767
  28.7703781  22.1789742  67.2991257  30.4852333  23.2982731  66.7178726
  31.4641666  23.2253170  67.1916504  30.4983463  22.4975929  65.4875031
  30.9686508  21.5459156  65.7349472  29.5045242  22.2528114  65.1126709
  31.3542500  23.0285912  64.3024597  31.0568581  24.0576019  64.1004715
  32.8442421  22.9861317  64.5609055  33.3280602  23.0296192  63.5851288
  33.1527214  23.7357597  65.2896042  33.0968246  22.0083008  64.9709625
  30.8592892  22.2428455  63.1243629  29.7837849  22.1109161  63.0061302
  31.2982502  22.6178284  62.1998062  31.3808270  21.2919960  63.2338333
  30.3165073  24.7873363  66.4612732  31.2035561  25.5614395  66.8767700
  29.1278934  25.1191940  66.0708008  28.3784885  24.4728203  65.8690796
  28.7917366  26.4949055  65.7323761  29.6003456  26.9018097  65.1251907
  27.5035496  26.7377987  64.9033661  26.6873207  26.3604107  65.5193634
  27.4357471  27.8149719  64.7510529  27.3788567  26.0547161  63.5714798
  27.5919704  24.9962368  63.7208176  26.1273308  26.2542095  62.7292557
  26.0114212  27.3276424  62.5795860  26.2543564  25.8960094  61.7076607
  25.2497559  25.7624893  63.1489868  28.5520630  26.5104809  62.5901413
  28.6954498  25.6353416  61.9563675  28.2652645  27.2868843  61.8808861
  29.5004177  26.6779728  63.1007042  28.8642120  27.4570980  66.8944321
  29.6358452  28.3960781  66.8225021  28.1301937  27.1873589  67.9814911
  27.6271229  26.3233624  68.1247787  28.1945114  28.1147194  69.1244202
  27.8381042  29.1138039  68.8736191  27.0798206  27.7068672  70.1572342
  27.0673752  28.3912582  71.0055008  26.1264439  27.7086658  69.6288681
  27.2254276  26.2525368  70.6980972  26.7289028  25.4954777  70.0911179
  28.2754726  25.9765339  70.7946701  26.5913582  26.1578236  72.1080475
  25.3782997  26.4818840  72.3347626  27.4290848  25.8782024  73.0099640
  29.5057487  28.1961384  69.8217239  29.7708817  29.2324524  70.4222336
  30.3687286  27.1323814  69.7573700  30.0090008  26.3138218  69.2876358
  31.7694817  27.2084885  70.2199478  31.7970219  27.5066700  71.2680054
  32.4614525  25.7879353  70.2428741  32.0145340  25.0834675  70.9443665
  32.4792633  25.2203693  69.3124695  33.9577255  25.8110275  70.6128922
  34.3029594  24.7807026  70.6985931  34.5142479  26.2968674  69.8114319
  34.3306541  26.4560585  71.9712067  35.4190025  26.5049534  71.9364853
  33.9044647  27.4577312  72.0271301  33.8628006  25.6144524  73.1856003
  32.7799606  25.7246685  73.2440796  34.2247810  24.5961018  73.0440598
  34.3883247  26.2264481  74.3753281  35.3961830  26.2523975  74.4357224
  34.2054672  27.2100372  74.5139771  33.8835030  25.7876854  75.1321259
  32.6490021  28.1575165  69.4444046  33.4609718  28.8762894  70.0404968
  32.3750153  28.2698364  68.1737671  31.8881435  27.5567226  67.6498184
  33.1824989  29.2367401  67.3875275  34.2412987  29.1159878  67.6165771
  32.9342079  28.8675632  65.9412613  31.9018307  28.5578423  65.7788773
  33.1695290  30.0538864  65.0009232  33.2470627  29.7859039  63.9472275
  32.3216286  30.7372818  65.0471497  34.0627365  30.6241131  65.2561188
  33.9231262  27.6613522  65.5501251  34.9046211  28.1034527  65.3789215
  33.8812904  26.9320145  66.3590851  33.4300995  26.8744030  64.3278885
  34.0746002  26.0617218  63.9928246  32.4574699  26.4532070  64.5822220
  33.1454201  27.6234493  63.5889740  32.8406181  30.7204475  67.7129211
  33.6564865  31.6301422  67.9722137  31.5489082  30.8918324  67.7289276
  31.0762863  30.0451393  67.4463730  30.8465309  32.1688080  68.0258865
  31.1763840  32.8156967  67.2129745  29.2925434  31.8758240  67.8428116
  29.1094475  30.9831581  68.4409180  28.4439659  33.0081215  68.4729156
  28.7073517  33.8486252  67.8308258  27.3977108  32.7156410  68.3839722
  28.7094326  33.1062393  69.5255280  28.9749546  31.6884346  66.3774719
  29.1756077  32.6342430  65.8741989  29.7140331  30.9882698  65.9880676
  27.5732517  31.2201118  65.8940048  27.2844334  30.2736454  66.3510437
  26.7634258  31.9208183  66.0972061  27.5615158  30.9850330  64.8297195
  31.3164349  32.8030052  69.3030548  31.5174599  34.0442581  69.4831696
  31.7342606  32.0060654  70.3285599  31.7368240  31.0023575  70.2160110
  32.2317047  32.5547409  71.6325684  31.7703247  33.4909630  71.9467545
  32.0124474  31.3751545  72.6288986  30.9901066  31.0348988  72.4641342
  32.6980667  30.5647926  72.3812408  32.2148094  31.8387909  74.1284180
  32.3304100  30.8806973  74.6351776  33.1986084  32.3071632  74.1579056
  31.0656128  32.6607208  74.6331253  30.1068554  32.0317268  75.1708679
  31.1474571  33.9130821  74.5695190  33.6957359  32.8634491  71.6664810
  34.1095085  33.8530426  72.2632980  34.4833832  31.9893894  71.1190796
  34.0739021  31.1057110  70.8516159  35.9067039  32.2671242  70.8789673
  36.3188515  32.5246506  71.8546295  36.4562302  31.0089359  70.2148361
  35.8347664  30.7388058  69.3610764  37.3635216  31.2977333  69.6842499
  36.6149216  29.7371445  71.1498642  35.5950432  29.3879337  71.3111115
  37.2383003  29.0723515  70.5519028  37.3295021  29.9219074  72.4053574
  38.4112473  30.5256329  72.3766632  36.8568726  29.4353962  73.4111328
  36.1242294  33.4848824  69.8979187  37.0743256  34.2636757  70.0540771
  35.3402634  33.7238083  68.8074341  34.6476326  32.9905853  68.7549973
  35.3966179  34.8481102  67.8699875  36.3958397  35.2824249  67.8380051
  35.3000526  34.3511429  66.4644547  34.2810822  33.9715843  66.5401840
  35.5695877  35.1859894  65.8175507  36.2925949  33.2365913  66.1090088
  37.4032249  33.5907402  65.8111801  36.0660286  32.0165939  66.5522995
  36.7593002  31.3110046  66.3482971  35.1251526  31.7381115  66.7916794
  34.4498177  36.0366058  68.1431961  34.4641304  37.0055504  67.4483948
  33.6314850  35.9564247  69.2033234  33.6971970  35.1325951  69.7839203
  32.7580452  36.9772339  69.7347870  32.0887680  36.3820419  70.3560028
  33.4958000  38.0189209  70.6484299  34.0711517  37.5511513  71.4473343
  34.2126694  38.6286430  70.0984802  32.6371307  38.9863739  71.4547882
  31.5180225  38.6680260  72.2395477  31.3191833  37.7599068  72.6343613
  31.0367966  39.7900391  72.7389832  30.2409630  39.8424568  73.4672089
  31.6717587  40.8385124  72.1437073  31.3085117  41.7807808  72.1606903
  32.7110481  40.3289642  71.3374939  33.2649651  40.8029823  70.5406952
  31.7581215  37.5297775  68.7087860  31.3312683  38.6745262  68.8281631
  31.4689331  36.6752396  67.7193604  31.8999138  35.7618370  67.7120285
  30.6290417  36.9981728  66.5420074  31.0221863  37.8664742  66.0132446
  30.6363735  35.6586571  65.7029343  30.4554501  34.7661324  66.3019028
  29.6844101  35.7820015  64.5712738  29.7321033  36.7093925  64.0005035
  29.9309216  35.0194092  63.8325005  28.6351719  35.5298958  64.7250519
  31.9422798  35.5829468  65.0884857  32.2122803  36.4512444  64.7806549
  29.2436352  37.4293823  66.9810410  28.6257114  36.7783966  67.8255463
  28.6516685  38.3651352  66.2095337  29.2241898  39.0234299  65.7006454
  27.2482376  38.7305756  66.2877731  26.8050728  38.0940018  67.0535889
  26.9917831  40.0978813  66.9291382  25.9745255  40.1201096  67.3200302
  27.7145748  40.1822243  67.7406616  27.4082203  41.3312302  66.0193558
  28.4849548  41.3588867  65.8520966  27.0085106  41.2253151  65.0108337
  26.8135700  42.5949745  66.7345810  25.7526131  42.4450836  66.9346008
  27.3577728  42.8216133  67.6514130  26.9340076  43.8550415  65.8286285
  26.8563671  43.5168419  64.7953339  26.0510426  44.4498215  66.0625229
  28.2305088  44.5472679  66.0227661  28.4063377  45.2406349  65.3097229
  28.3405342  44.9740486  66.9315262  28.9941902  43.9413643  65.7586212
  26.5995178  38.5235481  64.9338226  27.2327061  38.9379578  63.9997826
  25.3332634  37.9891701  64.8601074  24.4640331  37.9048843  65.9698792
  24.4679756  38.9020767  66.4099884  24.7483463  37.1536865  66.7067413
  23.0308914  37.6223793  65.5013046  22.4906578  38.5655136  65.4191284
  22.5389385  36.7768135  65.9820404  23.2487221  37.1081848  64.0816650
  22.5612679  37.5200920  63.3428535  23.2507877  36.0204086  64.1512680
  24.6739635  37.5828133  63.6558228  25.1412983  36.6627998  63.3047142
  24.5373631  38.6038361  62.4672737  24.6607418  38.2415352  61.2906647
  24.3870869  39.8840179  62.7552261  24.4179764  40.0789719  63.7457504
  24.4307365  41.0393219  61.8003159  23.8564854  40.7361488  60.9248581
  23.7979794  42.3037376  62.3606300  23.7745361  43.1421394  61.6644783
  22.7319508  42.0925941  62.4449806  24.3689480  42.7774200  63.7436409
  25.3562202  42.3385353  63.8877754  24.3170090  43.8622971  63.8355446
  23.4197445  42.2110596  64.8129425  22.2883415  42.7494545  65.0265121
  23.7577686  41.2763252  65.5443497  25.8185616  41.2013741  61.2687759
  25.9493923  41.3873329  60.0555840  26.9599705  41.1374321  62.0341568
  26.8222828  41.0473404  63.0306664  28.3063297  41.1248436  61.4547005
  28.4022942  41.9474106  60.7459869  29.2788792  41.3136864  62.6197472
  29.0822334  40.6156883  63.4335213  30.2915974  41.3845673  62.2229118
  29.0468273  42.6880150  63.1898766  28.4034634  43.5450592  62.5309525
  29.7001152  43.0220909  64.2398987  28.5826626  39.8885727  60.6017036
  29.5652428  39.9679070  59.9104538  27.7842350  38.7712440  60.5443687
  26.8760052  38.7651634  60.9861641  27.9739799  37.7156525  59.6385498
  29.0209961  37.4466972  59.4988174  27.2757759  36.4010735  60.0120850
  26.1986065  36.5623779  60.0544815  27.3581085  35.2108803  58.9880180
  26.9227257  35.4584351  58.0198975  28.4193859  35.0098495  58.8417969
  26.8342934  34.3518944  59.4073753  27.8120041  35.9368210  61.3667717
  27.6321640  36.7817917  62.0314331  27.2457237  35.0728035  61.7144814
  28.8629112  35.6710777  61.2523994  27.5900269  38.0840263  58.2301674
  26.4790974  38.4937897  57.9354668  28.5084591  37.8224068  57.2512856
  29.3805904  37.3950653  57.5285339  28.2135639  38.0071449  55.7667809
  27.6671486  38.9312363  55.5781479  29.5007362  38.0702209  54.9716148
  30.1027260  37.2074585  55.2568359  29.4233551  38.1233444  53.4654999
  30.3450069  37.9630661  52.9060745  28.6921291  37.4168320  53.0727539
  29.2122116  39.1628914  53.2147827  30.2397976  39.3191452  55.3867607
  31.3119564  39.3325310  55.1908340  29.7718182  40.2581787  55.0912781
  30.2623291  39.4626579  56.4670372  27.3412266  36.8297577  55.2822914
  26.2449684  37.0713158  54.8950729  27.7939720  35.5731735  55.5733032
  28.6509762  35.5557709  56.1074753  27.0628605  34.2978516  55.2485008
  26.0766048  34.2810097  55.7123032  27.0403976  34.1665077  53.6885147
  26.6514206  33.2056923  53.3514175  26.4410992  34.9817314  53.2831116
  28.4483528  34.3033791  53.0381927  29.0167160  35.0902176  53.5341339
  29.0014057  33.3734398  53.1702538  28.3634300  34.6394348  51.5099945
  27.5046043  35.3387337  50.9931564  29.2799644  34.0294266  50.7363243
  30.1200275  33.6518936  51.1508942  29.1968403  34.1702843  49.7396584
  27.9032784  33.0732880  55.6482544  29.0431499  33.2537460  56.1176605
  27.3537903  31.8519630  55.6075478  26.3891888  31.8132038  55.3106651
  27.9900532  30.6148491  55.9533424  29.0755901  30.6769238  56.0299416
  27.4233856  30.1839256  57.4002876  27.6198597  30.9487209  58.1516762
  26.3396797  30.2492924  57.3032837  27.7531452  28.8549786  57.9136848
  26.9875050  28.1511936  57.5872116  28.7128391  28.6072884  57.4601059
  27.8988953  28.7635307  59.7239265  26.1872463  28.8229122  60.2467880
  26.1564846  29.0643883  61.3092613  25.7645302  29.6859188  59.7323647
  25.7544060  27.8681164  59.9482651  27.6816196  29.4203053  55.0450249
  26.5642853  29.2882442  54.6283531  28.6497555  28.5546551  54.8795471
  29.5552979  28.7211666  55.2947197  28.5113144  27.3505535  54.0862999
  27.4521980  27.1212711  53.9688148  29.2360115  27.6683064  52.7659836
  28.7693386  28.5285454  52.2860832  30.2743950  27.8948231  53.0079575
  29.2583523  26.6513844  51.5826111  29.5909557  25.7253113  52.0515060
  27.8365326  26.4901752  51.0023460  27.1987019  26.3469181  51.8745575
  27.5497990  27.3926678  50.4625397  27.7797642  25.6113491  50.3600540
  30.1349335  27.1917706  50.4435196  29.6947994  28.0679760  49.9674301
  31.0902538  27.5348625  50.8407021  30.1624298  26.4596767  49.6364365
  29.0269718  26.1118259  54.9235992  30.0866451  26.0954227  55.5051804
  28.0992546  25.1223507  55.1269646  27.1520920  25.2365952  54.7954063
  28.4061337  23.8472462  55.7696915  29.1874180  24.0191135  56.5100670
  27.2661209  23.3042850  56.5898705  26.4440994  22.9705925  55.9566002
  27.5849781  22.4943180  57.2459068  26.6399822  24.4216881  57.5796165
  26.1376171  25.1970425  57.0012016  25.5347443  23.7836571  58.4568825
  25.0006142  24.5743923  58.9837189  24.8608761  23.2458439  57.7899818
  25.9788055  23.1277866  59.2057152  27.6691856  24.9071064  58.5526390
  28.4957085  25.4620266  58.1087570  27.1482258  25.6597042  59.1445007
  28.0984192  24.0721226  59.1064072  28.8495789  22.8457832  54.6684799
  28.2793255  22.8052330  53.5445518  29.6709003  21.9410248  54.9961395
  30.1657104  21.9437599  55.8766289  30.0749416  20.8571968  54.0405579
  29.2486324  20.6523228  53.3598671  31.2756519  21.3947124  53.2244682
  31.5421944  20.8257427  52.3337784  31.1158104  22.4065571  52.8520012
  32.4512825  21.5419483  54.0962753  33.1559181  21.0460453  53.6729851
  30.3373127  19.4888172  54.7161713  30.8634892  19.3448067  55.7862434
  29.8048038  18.4805031  54.0457077  29.3085899  18.7527084  53.2091827
  29.6086597  17.1805992  54.6897392  30.1125946  17.0968819  55.6526222
  28.0601158  17.0868359  54.7818604  27.8048439  17.8604317  55.5060768
  27.5578671  17.1976070  53.8208313  27.8909340  16.1293278  55.2744598
  30.1013222  16.0810375  53.7999344  30.3887844  16.2605877  52.5634308
  30.3431320  14.8470907  54.3279419  30.1359711  14.6657457  55.2996941
  30.9466171  13.7110271  53.5475731  31.4187450  14.2216415  52.7082481
  31.9976406  12.9556313  54.4012299  32.4354706  12.1095734  53.8715172
  33.1090088  13.9612846  54.7942810  33.3605804  14.5583677  53.9177475
  32.7649422  14.7761326  55.4312592  33.9404068  13.3622818  55.1658745
  31.4461956  12.5287724  55.6130943  31.1447010  11.6499281  55.3715668
  29.8697853  12.7847672  52.9398384  28.8188801  12.7128315  53.5009918
  30.0512943  12.1356325  51.7502556  31.3202801  12.1068058  51.1031609
  32.1998062  12.1101427  51.7469940  31.4345837  12.9842539  50.4666672
  31.3925209  10.9128017  50.2705231  31.6979961  10.0512857  50.8642998
  31.9813538  11.1129675  49.3753624  29.9158096  10.8708801  49.7617455
  29.5555058   9.8685045  49.5303917  29.6934605  11.6246881  49.0064735
  29.0790634  11.3759813  50.9721565  28.3404713  12.0322189  50.5117874
  28.3764706  10.1924915  51.6486702  27.6071167   9.5072241  50.9879494
  28.7843838   9.8170385  52.8395119  29.5431023  10.3497038  53.2404060
  28.1576290   8.7664976  53.6747627  27.6652908   8.0014200  53.0744667
  29.2690086   8.0979013  54.5433617  28.8181591   7.3773532  55.2257423
  29.8536701   7.4528842  53.8874435  30.2813492   8.9446440  55.2378006
  31.1700535   8.3945599  55.9060249  30.3828583  10.2104521  55.0057869
  26.9965248   9.3092127  54.5817642  26.1335793   8.6053085  55.0507545
  26.9638233  10.6050587  54.8465958  27.7819061  11.1002359  54.5215607
  25.8731327  11.2792759  55.4665642  25.5373974  10.7541456  56.3607826
  26.3314228  12.6281929  56.1232834  26.8182907  13.1454029  55.2965126
  25.4923992  13.1198721  56.6156158  27.4045830  12.4969406  57.1996880
  28.2084389  11.9519682  56.7047882  27.9183693  13.9237576  57.4608955
  28.7246399  13.8863525  58.1934471  28.2219467  14.4389725  56.5495834
  27.1097927  14.5073843  57.9009895  26.9079399  11.7444077  58.4577446
  27.7650318  11.4923124  59.0822029  26.1931133  12.2499542  59.1070099
  26.4998531  10.7671642  58.1997414  24.6657143  11.3258305  54.5052910
  24.9446430  11.6239119  53.3246994  23.4742050  10.8786325  54.8961906
  23.4586430  10.5082130  55.8356819  22.3127060  10.6274643  54.0044022
  22.4062328  11.4138660  53.2554550  22.2968349   9.2551279  53.3460960
  22.3731594   8.4953451  54.1239166  21.3587666   9.1075163  52.8109932
  23.3644276   8.9266262  52.3200836  23.6269112   9.7370129  51.2312660
  23.0909443  10.5405025  50.9358940  24.5397949   9.1631031  50.4424400
  24.7008419   9.4134254  49.4042664  24.9783115   8.0753298  51.1057358
  25.4610348   7.3311467  50.6227570  24.2005920   7.8527904  52.2568398
  24.3000412   7.0952997  53.0202026  20.9275703  11.0352345  54.6462059
  19.9992428  11.4291220  53.9764061  20.9825096  11.0026188  55.9891396
  21.8330860  10.7231312  56.4565887  19.8384113  11.3391037  56.8776627
  19.0353756  10.6956196  56.5182724  20.2107811  10.9380035  58.2718506
  21.1096706  11.4524260  58.6116562  19.3563957  11.0996342  58.9291153
  20.5497208   9.9069605  58.1709824  19.4322834  12.8358555  56.8179741
  18.2519112  13.0880318  56.7214966  20.3383369  13.7643776  56.8886452
  21.3049412  13.5575218  57.0959969  19.9196148  15.1887121  56.9424286
  19.0783577  15.3707361  56.2736588  19.5330162  15.4231825  58.3866577
  19.0112362  14.5370464  58.7480507  20.6602554  15.5980253  59.4219627
  21.2435303  14.6774817  59.3997688  21.3081398  16.4413204  59.1827927
  20.3423023  15.7639933  60.4512672  18.5454063  16.5913486  58.4298019
  18.9365139  17.5212517  58.0169907  17.6439571  16.2605076  57.9140205
  18.4297581  16.7980938  59.4937477  20.9744320  16.1834717  56.5394669
  22.1294041  15.9095268  56.7110901  20.4678097  17.3423882  56.0878944
  19.4759636  17.5276890  56.1326828  21.3149452  18.5480537  55.9243164
  22.2053890  18.3360405  55.3324890  20.4886799  19.6933212  55.2378616
  19.5762024  19.8964787  55.7984085  21.1196041  20.5821629  55.2386017
  20.2866840  19.3829002  53.7807274  18.9856186  19.1659374  53.3705673
  18.1576710  19.3905659  54.0266533  18.5956783  18.8474483  52.0958443
  17.5594864  18.8110371  51.7935524  19.5742989  18.7006817  51.1494331
  19.2605171  18.4038754  50.1595573  20.9651871  18.8453579  51.4776764
  21.7939949  18.6940327  50.8019714  21.3307018  19.1919041  52.7985764
  22.3338699  19.3044815  53.1824799  21.6723633  19.1587219  57.2752762
  20.7662487  19.4584103  58.0351715  22.9910164  19.3918800  57.6790466
  24.1960983  19.2657909  56.8498459  23.9689636  19.4883900  55.8072701
  24.5990162  18.2595062  56.7351570  25.3118515  20.0434914  57.5138550
  25.2753754  21.0441780  57.0832787  26.3081417  19.6218357  57.3807678
  24.9717331  19.9706573  58.9723206  25.3421154  20.8722610  59.4602089
  25.3427029  19.0491505  59.4209938  23.3599415  20.0171947  58.9524460
  23.0054779  19.4166470  59.7901764  22.8817596  21.4569130  59.1587181
  22.6292973  21.8593292  60.2919350  22.6338882  22.2109928  58.0492821
  22.7741432  21.8254261  57.1263733  22.0756435  23.5793571  58.1163406
  22.7133942  24.2240810  58.7210770  22.0922565  24.2443790  56.7198563
  21.7929306  25.2875538  56.8212547  23.0774136  24.1656761  56.2601089
  21.3598480  23.8670197  56.0062218  20.7071896  23.7128887  58.8888397
  20.3446217  24.7800426  59.2819786  19.9499226  22.6548443  58.9868622
  20.2375870  21.7985096  58.5351562  18.7295437  22.6469383  59.7253265
  18.0409126  23.3828144  59.3101501  18.0734215  21.2148781  59.6561584
  18.0718002  20.9269218  58.6048813  18.6907883  20.4699478  60.1581917
  16.6425018  21.2842751  60.1605301  16.6572971  21.4908428  61.2306786
  16.0744152  22.0427513  59.6219292  15.9674597  19.8878803  60.0630951
  16.2585258  19.2684383  59.2147636  16.2452354  19.3422050  60.9648628
  14.4338217  19.9120960  60.1108360  14.2385359  20.3805256  61.0754814
  14.0414982  20.5521641  59.3205872  13.8287067  18.6076927  59.9340172
  14.2714138  18.1330585  59.1601677  13.9090004  17.9898300  60.7289391
  12.8568459  18.6645184  59.6650238  18.9358025  23.0189362  61.2149277
  17.9908943  23.5950241  61.6793213  20.0654602  22.7447701  61.8249130
  20.8708324  22.4581757  61.2870064  20.3754539  23.0826530  63.2123756
  19.6468735  22.6012783  63.8647156  21.7001476  22.3931179  63.6842079
  22.5376949  22.7512093  63.0855446  21.9104443  22.5667019  64.7395477
  21.4546604  21.3344955  63.5996284  20.3456650  24.5743694  63.4642220
  20.1808453  24.9272938  64.6649933  20.5332012  25.5136681  62.5714149
  20.5540657  25.1801472  61.6182938  20.6921673  26.9181824  62.8423958
  21.5850220  26.8341579  63.4619522  21.0102634  27.6519165  61.5136414
  20.2033939  27.5534420  60.7874413  21.1559448  29.1333256  61.7785416
  21.6000156  29.6911278  60.9540672  20.1728115  29.5261879  62.0377846
  21.7708588  29.4058285  62.6362839  22.3187256  27.0774021  60.9360619
  23.1631317  27.1875057  61.6164742  22.3068428  26.0306644  60.6322517
  22.5210705  27.5516644  59.9757347  19.6005402  27.5881252  63.6290779
  19.9689522  28.3530846  64.5441742  18.3070011  27.1264019  63.5434341
  18.1045265  26.5649319  62.7286606  17.1755867  27.5007858  64.4442520
  16.8387833  28.5096245  64.2057037  16.0639458  26.4762440  64.1447220
  15.1996517  26.7920208  64.7290039  15.7812948  26.5981541  63.0990868
  16.3895531  24.9802437  64.5565796  17.3325043  24.6685982  64.1073303
  16.5478001  25.0066051  65.6347122  15.3301134  23.9823017  64.1857300
  14.5284252  24.2931862  64.8556137  14.9232616  24.1886139  63.1957779
  15.7628756  22.5840569  64.2863007  16.6732388  22.3099957  64.6272278
  15.0600510  21.5143566  63.9573822  13.9779634  21.5029755  63.2308922
  13.5716076  22.3789520  62.9348488  13.4066734  20.6727486  63.1641731
  15.5457792  20.3629742  64.2887039  14.8966131  19.5892410  64.2940521
  16.2973080  20.3634243  64.9634628  17.4981937  27.5001469  65.9419250
  16.8685493  28.2226143  66.7615662  18.4572926  26.6702728  66.3729553
  18.9462662  26.1742477  65.6415405  18.9026680  26.5968819  67.7343216
  18.1128044  26.6675606  68.4821320  19.4316826  25.2098694  68.0794601
  20.5116138  25.1838818  67.9339676  19.2718849  25.0450096  69.1450119
  18.6561985  23.9886227  67.4831848  18.7060661  23.9784260  66.3943710
  19.1500587  23.0869770  67.8454514  17.1682224  23.8390827  67.8657074
  16.6089592  24.8144550  68.3383865  16.6287918  22.7459507  67.5965424
  19.9252987  27.6280060  68.2002945  20.2067833  27.8018208  69.3761368
  20.5700588  28.3535557  67.2910004  20.4769974  28.1301594  66.3104248
  21.4634838  29.5146751  67.5458221  22.0790443  29.4014320  68.4382095
  22.4674149  29.8714142  66.3361130  21.8335075  30.0918713  65.4772415
  23.0832348  30.7019863  66.6811066  23.4046612  28.7082939  66.0096664
  22.9858627  27.7490692  65.7053680  24.3348370  29.1492786  64.9356461
  25.2316666  28.5340061  64.8631973  23.7934818  29.0468731  63.9951401
  24.6842518  30.1537437  65.1745148  24.2268486  28.3120708  67.2141876
  25.0005913  27.5773125  66.9915695  24.6998749  29.2017937  67.6298065
  23.6397457  27.8211899  67.9903641  20.5935860  30.7803154  67.7818451
  19.4961128  30.9154491  67.2973633  21.1217880  31.7590752  68.5760574
  21.9311142  31.4780445  69.1109543  20.3139496  32.8746490  69.1408615
  19.2849751  32.5253716  69.2264099  20.9005089  33.1695251  70.5293579
  20.8246326  32.2624092  71.1289291  21.8940182  33.5485535  70.2898254
  20.2387295  34.2227173  71.1225204  19.3269730  33.9332237  71.0419312
  20.3593102  34.0395775  68.1389923  21.4416447  34.6654396  67.8449402
  19.1804428  34.4602509  67.7196732  18.3296967  33.9664726  67.9488297
  19.1134491  35.6648216  66.8292465  18.1112766  36.0924644  66.8588486
  19.8525314  36.3825188  67.1852875  19.4613991  35.3615875  65.3726349
  19.2168446  36.1856003  64.5303192  20.0189381  34.2252159  65.1101761
  19.9586258  33.5452423  65.8545532  20.6840153  33.8130836  63.8123055
  21.3319511  34.6716270  63.6357155  21.4871941  32.5547523  64.0513000
  21.1503887  32.1555939  65.0080338  21.3056870  31.7910519  63.2950516
  22.9343147  32.8395500  64.1560822  23.6767883  33.4130363  65.1127625
  23.2920170  33.6562386  66.0921555  24.9534225  33.5106125  64.7121277
  25.6775932  33.9182281  65.2861710  25.1836586  32.8844719  63.5190048
  26.2989845  32.6306686  62.7529182  27.2349548  33.0295792  63.1151848
  26.1458683  32.0513992  61.4717979  27.0192337  31.8744240  60.8616219
  24.8970356  31.6561413  60.9815483  24.6395988  31.2708378  60.0060120
  23.8309155  31.8394203  61.8017731  22.8477383  31.5918579  61.4296417
  23.9090405  32.5345955  63.0515099  19.7273998  33.6365547  62.6358871
  20.2672443  33.3127098  61.5497093  18.4680996  33.9314690  62.7444267
  18.1525307  34.3835144  63.5906944  17.3434525  33.5728951  61.8331680
  17.5041409  32.5322952  61.5513268  16.0410595  33.5810127  62.5832787
  15.2112999  33.3288689  61.9229584  16.1449795  32.8423538  63.3780708
  15.8786469  34.9616966  63.1042290  16.5891399  35.1266899  63.9142151
  16.1331749  35.6880226  62.3323708  14.3899431  35.2862663  63.5698280
  13.4376516  34.7973480  63.0482750  14.1948528  36.0125542  64.6780090
  14.9588957  36.5691681  65.0336990  13.2664585  36.1812515  65.0381851
  17.3561535  34.4137154  60.5475655  16.7734547  33.9539833  59.5642624
  18.1572857  35.4896278  60.4342880  18.8168221  35.7220535  61.1630440
  18.2692604  36.2548065  59.2427902  17.4529705  35.9915390  58.5701370
  17.9299908  37.7721939  59.4787598  18.7435608  38.1215057  60.1145172
  17.9853897  38.3061523  58.5301208  16.6192589  37.9333115  60.1887131
  15.4017296  37.8923988  59.4526291  15.3996201  37.5917702  58.4153137
  14.2045088  38.1458206  60.1955872  13.2858543  38.0275955  59.6401634
  14.2397776  38.4460869  61.6202164  13.0739479  38.6178055  62.2344742
  12.4230947  37.9633560  61.9704933  15.5220203  38.5849800  62.2221031
  15.4886103  38.8639679  63.2649117  16.6962051  38.3041077  61.5318985
  17.6637306  38.4205208  61.9974518  19.6172733  36.0860214  58.5321388
  19.6154137  36.5009956  57.4029198  20.6360741  35.5260429  59.1109238
  20.4982300  34.9881325  59.9545746  21.8361721  35.1650620  58.3672142
  22.2740326  36.0851021  57.9800415  22.9094048  34.5079308  59.2477875
  22.4833069  33.5462799  59.5337410  24.1517773  34.1227570  58.3759346
  24.5969944  35.0505371  58.0166206  24.7759495  33.5201721  59.0357819
  23.8056564  33.3680496  57.6697350  23.4662743  35.1767082  60.5296364
  23.7545547  36.1375122  60.1031990  22.6613674  35.3008957  61.2540703
  24.3447914  34.7561150  61.0189323  21.4197121  34.1945343  57.1767311
  20.5856647  33.2969780  57.4448700  21.9666500  34.3253670  55.9463234
  22.7845860  35.4608421  55.4834633  23.6889782  35.6459579  56.0630417
  22.1622372  36.3553352  55.4577255  23.2557869  35.0925674  54.0910301
  24.2956505  34.7659416  54.1010551  23.2649250  35.9953270  53.4802589
  22.1958733  34.1196518  53.5886002  22.6277580  33.4148064  52.8781281
  21.4008636  34.7286758  53.1583138  21.7867584  33.3738327  54.9037323
  20.7448902  33.0538330  54.8892021  22.6788177  32.1352959  55.0185471
  23.8786945  32.2127113  54.9592361  22.1959229  30.9144745  55.2378540
  21.1902809  30.8680744  55.1564217  23.0032578  29.6875019  55.2921143
  24.0490341  29.8998890  55.0699806  23.0333710  29.1914635  56.7863579
  22.0304623  28.8254147  57.0060959  24.0489082  27.9983501  57.0327263
  23.9966850  27.5940132  58.0436096  23.8413486  27.2357502  56.2820854
  25.0300636  28.4443684  56.8699379  23.2119961  30.3103848  57.8848000
  23.2181129  29.8122177  58.8542786  24.1970654  30.7725544  57.8204460
  22.3857307  31.0203266  57.8477631  22.5926533  28.6130505  54.3083954
  21.4619083  28.5449524  53.9192924  23.5040741  27.6908360  53.8879318
  24.4477901  27.8776188  54.1955223  23.3092899  26.5751534  52.9054413
  22.3489170  26.1349506  53.1737785  23.1476383  27.1475849  51.4815216
  22.3706417  27.9110126  51.4419441  24.4934483  27.6061344  50.8358040
  24.9909058  26.6997166  50.4907722  24.3068504  28.2657852  49.9883728
  25.1248856  28.0524330  51.6040535  22.7206230  26.1222401  50.6532822
  21.8283978  25.8437157  50.8722725  24.3845119  25.5386524  53.0634842
  25.2534256  25.6244545  53.9539452  24.3138256  24.4117012  52.3367767
  23.5955715  24.2995148  51.6356163  25.3164444  23.2703667  52.5299416
  26.1019783  23.5957336  53.2119789  24.7269192  22.0034065  53.2410812
  24.0954323  22.3095379  54.0751152  24.1451054  21.4776058  52.4840317
  25.9813480  20.7813568  53.9205551  26.6716290  20.5578003  52.7987518
  25.9299870  22.8914680  51.1562042  25.2739983  23.0668030  50.1616058
  27.0765991  22.2706909  51.0810051  27.6465492  22.2601452  51.9147606
  27.5450974  21.4376659  49.9286118  26.6303997  21.2090607  49.3816490
  28.5477715  22.2855968  49.0326538  28.7471733  21.8002033  48.0772858
  28.2121181  23.3120537  48.8849106  29.8363533  22.4407711  49.8688316
  29.6684704  22.8200436  50.8768349  30.3057270  21.4651546  49.9951668
  31.1749058  23.4810905  49.1885796  32.2998352  23.1759415  50.5166245
  33.3223152  23.3849773  50.2020645  32.1426163  23.7948570  51.3999825
  32.2156219  22.1528893  50.8831902  28.1105461  20.0614796  50.4185677
  28.1673088  19.7245140  51.6283112  28.5530663  19.2397137  49.4088669
  28.3130474  19.4783382  48.4572601  29.4516296  18.1163101  49.6117439
  29.1674290  17.7140732  50.5841331  29.0974445  17.0224476  48.5532417
  28.0291996  17.1071243  48.3537827  29.5386009  17.1944809  47.5714645
  29.5051880  15.5867329  48.8504372  29.4621582  14.9433756  47.9716110
  30.4287510  15.6197186  49.4284096  28.4242172  15.0026560  49.6543541
  27.5254078  14.3877192  49.1466331  28.3536701  15.2184553  50.9417763
  29.1839314  15.5835333  51.3861771  27.6281719  14.7127218  51.4296150
  30.9602318  18.5409470  49.5016098  31.3687477  19.3274345  48.6279716
  31.7617512  18.1733875  50.5415192  31.2338924  17.7021904  51.2622375
  33.2662201  18.2673931  50.4998283  33.5433388  19.2636909  50.1552887
  33.7110252  18.1502495  51.9412575  33.0359840  18.6428261  52.6411057
  33.6877708  17.0783539  52.1377296  35.2183304  18.4948063  52.1737785
  35.5491676  17.9476490  53.0565414  35.9431305  18.1416740  51.4402466
  35.4090118  19.9962654  52.4625053  36.5329666  20.5799065  52.3999977
  34.4200592  20.6948109  52.8066711  33.8845520  17.1855545  49.5415421
  33.3051872  16.0867462  49.4525833  35.0983810  17.4583263  49.0021324
  35.4267082  18.4130764  49.0295906  35.8050575  16.5714703  48.1540909
  35.1425056  16.3301563  47.3228912  37.1260681  17.1811695  47.5707283
  36.8861923  18.2338142  47.4207191  38.0505219  16.9914303  48.1161499
  37.3152313  16.4600658  46.2450180  37.4113388  15.3766336  46.3159866
  36.5011444  16.7589951  45.5847092  38.8115005  16.9983139  45.4037514
  40.0988846  15.7630367  45.8912659  39.6195183  14.8080158  46.1062889
  40.7179642  15.6447763  45.0019646  40.6427956  16.1803284  46.7386932
  36.1500893  15.1581554  48.7540741  36.7482224  15.0649490  49.8406143
  35.7868080  14.0157890  48.1767044  35.1061554  14.0497007  47.4312744
  36.1154251  12.6181822  48.5997391  36.0728416  12.6072369  49.6888504
  35.1047630  11.5898514  48.0407867  34.0713844  11.8084688  48.3099251
  35.1254082  11.5936804  46.9509926  35.2070656  10.1745148  48.5477371
  35.0600357   9.1886568  47.8027687  35.5875206  10.0145388  49.7445946
  37.5314751  12.3100672  48.2143898  37.9813004  12.5132608  47.1102905
  38.3281097  11.7257652  49.1152802  37.8584061  11.5372219  49.9893112
  39.7405014  11.6119471  49.1465378  40.1443596  11.6126823  48.1341133
  40.4186821  12.6689196  49.9764328  39.8821983  12.7555437  50.9213028
  41.8943329  12.4018898  50.3685646  42.5674782  12.1438036  49.5510216
  42.1313553  13.3977690  50.7429237  41.9292679  11.6368961  51.1442375
  40.4856300  13.9047279  49.0520477  39.5230598  14.3385582  48.7812157
  41.0854836  14.6832170  49.5234604  41.1009865  13.6603527  48.1861839
  40.0385437  10.2075901  49.5832253  39.3488426   9.6238728  50.4667854
  40.9497108   9.4457417  48.9155312  41.4283867   9.8981171  48.1498070
  41.2425461   8.0778370  49.2563553  40.4039383   7.3883667  49.1590462
  42.2803688   7.4699802  48.3242302  43.1321449   8.1299582  48.4885712
  42.6642609   6.0203471  48.4614105  43.3954544   5.9494066  49.2666588
  41.7569008   5.4163628  48.4615822  43.2438011   5.6391063  47.6206398
  41.8645248   7.5759516  47.0010147  42.6211739   7.6340075  46.4130402
  41.7263374   8.0427008  50.6887207  42.8020935   8.5876989  51.0541801
  41.0170135   7.4877214  51.6243362  40.3033791   6.8351912  51.3327370
  41.4300041   7.3097806  53.0362167  40.9902267   6.4069705  53.4600296
  42.5067062   7.1600494  53.1162033  41.1934433   8.6158371  53.8213387
  41.6624413   8.7090082  54.9580650  40.3782463   9.5430660  53.3109932
  39.7413368   9.3182249  52.5600624  40.0751648  10.7882900  54.0306740
  41.0119400  11.1729984  54.4338455  39.6798553  11.5858259  53.4015694
  39.0727081  10.5433941  55.2422752  38.2620468   9.5995102  55.2360306
  38.9918633  11.4571323  56.1807899  39.5593948  12.2924824  56.1948776
  38.0750008  11.3736582  57.3473434  38.4473228  10.5624418  57.9729729
  38.3017616  12.6423302  58.2289047  39.3503456  12.7092609  58.5188980
  38.0244827  13.5520420  57.6963272  37.4765053  12.6247931  59.5319595
  36.4490547  12.6811924  59.1724281  37.6529808  11.4089384  60.4442825
  37.0670013  10.5956469  60.0161705  38.6812935  11.0513716  60.3911324
  37.3273506  11.5156212  61.4790230  37.7707176  13.8630333  60.4063911
  37.3845024  13.7202072  61.4156189  38.8352165  14.0722818  60.5120354
  37.4527092  14.8295116  60.0153770  36.6391258  11.1384010  56.9592896
  36.0840302  11.8355465  56.1049309  36.0261345  10.1090517  57.6079483
  36.6039314   9.7108841  58.3343887  34.6098518   9.6877813  57.3120193
  34.2996712   9.9563217  56.3021812  34.6072998   8.1714020  57.3974419
  34.9583549   7.8506274  58.3782387  33.5649338   7.8527112  57.3948669
  35.4888763   7.3304081  56.4381027  35.4802704   7.6706567  55.4026031
  36.5199966   7.2702651  56.7863503  35.0444794   5.8684754  56.4998093
  35.7413139   5.3895707  55.8119316  35.3630371   5.5142698  57.4801941
  33.6222229   5.2967000  56.2017632  33.7629089   4.2381325  55.9832573
  33.0788307   5.5420332  57.1142502  32.9997749   5.9274364  54.9962654
  32.2074852   5.3427081  54.7715988  32.7744446   6.9019504  55.1364441
  33.5945930   5.7652311  54.1962776  33.6251602  10.3681774  58.2323761
  34.0904694  10.7701712  59.2884674  32.2919922  10.3294048  57.9556618
  32.0106239   9.8932838  57.0892143  31.1911354  10.9075747  58.7794762
  30.2984390  11.0768299  58.1773567  30.7516575   9.9351091  59.8523293
  31.5255623   9.8468113  60.6148109  29.7991180  10.1681252  60.3282242
  30.4241886   8.5269060  59.3092880  29.8796749   8.6422997  58.3721161
  31.3430004   8.0445337  58.9758186  29.7268696   7.6567264  60.3407707
  30.1898251   7.7194061  61.3255806  28.8046379   8.2214136  60.4775848
  29.4152279   6.2964463  59.8817635  28.9186554   6.3271446  58.9119301
  30.3913269   5.8591900  59.6716728  28.8392677   5.4433212  60.9904594
  27.9010983   5.7429528  61.2144203  28.8015556   4.5120153  60.6014252
  29.4729385   5.2845502  61.7607536  31.5713921  12.3133631  59.3674889
  31.4199352  12.5751820  60.5732956  32.0068169  13.2311811  58.5247612
  31.8852978  13.0198746  57.5446129  32.5074425  14.5167561  58.8799400
  32.6155014  14.4436064  59.9621010  33.8957596  14.7215557  58.2214279
  34.5372314  13.8589287  58.4016685  33.9203987  14.7719803  57.1328735
  34.6274719  16.2457981  58.9795227  34.4798927  15.8801641  60.2560120
  31.5071526  15.6900053  58.4685173  30.8790703  15.7061167  57.3951187
  31.5520782  16.6896667  59.3350830  32.2210159  16.6156158  60.0881691
  30.7789536  17.9069252  59.1683502  30.4915009  17.8586388  58.1180458
  29.6863365  18.0000629  60.2799034  30.1028252  17.9124851  61.2833786
  28.8248692  19.3374424  60.2329903  28.3247852  19.5984936  59.3003197
  28.2107716  19.3928661  61.1318283  29.5800972  20.1202316  60.3034821
  28.6113987  16.8680649  60.0182304  27.5696220  17.1621628  60.1459236
  28.5772991  16.5989990  58.9625130  28.8554306  15.5777941  60.8305092
  29.6680050  14.9805098  60.4168854  29.0103798  15.9242144  61.8523140
  27.9068718  15.0449600  60.7640114  31.7225151  19.0494804  59.3017921
  32.4456825  19.1552258  60.2573433  31.6022224  20.0574551  58.3583984
  30.9645920  20.0410633  57.5752907  32.4567642  21.2660446  58.4598351
  33.0659332  21.3554134  59.3592949  33.2834854  21.2124043  57.1856689
  32.5493622  21.0674934  56.3931007  33.7684021  22.1793613  57.0516777
  34.3621407  20.0521603  57.2451248  34.9836311  20.1681881  58.1330338
  33.8514748  19.0981560  57.3762665  35.2846260  20.1152096  55.9846573
  34.6609612  19.6756535  55.2062378  35.5732231  21.1531620  55.8189201
  36.5416870  19.3554707  56.1132088  37.3286438  19.9546356  56.3176575
  36.7651825  18.1010303  56.0192451  35.8932381  17.1457825  55.8838501
  34.9881134  17.5249500  55.6449165  36.1373940  16.1704407  55.7879562
  37.9385300  17.7032223  56.2228775  38.7459030  18.3065090  56.2883759
  38.1434479  16.7187557  56.1283569  31.6672306  22.5778313  58.4739723
  30.4673252  22.6610222  58.0561409  32.3152847  23.7114697  58.6840782
  33.2524223  23.6411953  59.0541420  31.7806549  25.0472717  58.4266663
  30.9084110  24.8878708  57.7927208  31.2222900  25.6677780  59.7289200
  30.2778530  25.2075310  60.0192871  32.0574455  25.4662819  61.0036736
  31.5676498  25.9217682  61.8643303  32.2657471  24.4109516  61.1797180
  33.0238419  25.9270744  60.7990799  30.8625793  27.1612034  59.5380783
  30.3026772  27.5179443  60.4025688  31.7237816  27.8030987  59.3526077
  30.1895638  27.2320614  58.6836014  32.8428192  25.9650078  57.7905464
  34.0016365  25.9911690  58.2444839  32.4085464  26.7656059  56.8345718
  31.4618168  26.6402645  56.5058060  33.0567513  27.9235973  56.2707863
  33.9998703  28.0768452  56.7953377  33.4493675  27.7062511  54.7870026
  34.2736588  27.0071049  54.6461601  32.5745811  27.3392391  54.2501984
  34.0119057  29.0300636  54.0930901  33.9481506  28.9089661  53.0117149
  33.3079491  29.8501244  54.2346840  35.6847954  29.4564381  54.6077766
  36.5897636  28.2645798  53.5715218  37.6696854  28.2110004  53.7093658
  36.2709389  27.2482891  53.8030396  36.4264145  28.4163723  52.5045700
  32.1031189  29.0964756  56.4779587  31.3031235  29.4141350  55.5956993
  32.2701378  29.7849503  57.5805473  33.0621529  29.4797878  58.1279907
  31.5569401  31.0204773  58.0221710  30.5421848  31.0423603  57.6248093
  31.6031818  31.1414070  59.5747795  31.7387581  30.1527462  60.0132637
  32.3895416  31.8842030  59.7089119  30.3317509  31.7622185  60.1877823
  30.2158890  32.6870232  59.6226196  29.4963169  31.1338329  59.8791046
  30.1671162  32.1447144  61.9549484  30.4582119  30.4678307  62.5700951
  30.0403709  30.4760342  63.5767937  30.1232471  29.6577587  61.9222679
  31.5305119  30.2971954  62.6657944  32.3269653  32.2230339  57.3691902
  33.5714188  32.0218124  56.9664383  31.6940479  33.3720284  57.2929115
  30.7483959  33.3972168  57.6467667  32.2571068  34.6421318  56.8523979
  33.3171692  34.5400429  57.0846710  31.9001980  34.8663025  55.3765831
  30.8526268  35.1445808  55.2614594  32.6990013  35.9796143  54.7270203
  32.8352966  36.8854790  55.3177338  33.6994324  35.5548782  54.6443253
  32.1679001  36.1453819  53.7897110  32.2416306  33.6419449  54.6821289
  31.5215607  33.0732117  54.9643402  31.6600933  35.8307610  57.7630348
  30.4441910  35.9349861  57.8907890  32.5606232  36.7659721  58.2670746
  33.5256691  36.4898987  58.1549759  32.2145996  37.8901939  59.1556511
  31.1656609  38.1557579  59.0240936  32.3456383  37.4583359  60.6404953
  33.3847542  37.5384178  60.9597626  31.5200863  38.3178749  61.5992393
  31.6779709  38.0655327  62.6478081  31.7222366  39.3725929  61.4126854
  30.4900360  38.0879288  61.3268166  31.9257355  35.9724998  60.9407616
  30.9178886  35.7461700  60.5927353  32.6527290  35.2955894  60.4920158
  31.8599873  35.9087715  62.0269089  32.9938469  39.2023544  58.8110085
  34.0457878  39.1181068  58.2246284  32.4546013  40.3982124  59.1339264
  31.5286465  40.4477692  59.5342407  33.3192024  41.5454369  59.3212471
  34.1048927  41.4591827  58.5706787  32.6083412  42.8750610  58.9565277
  33.2693901  43.7392426  58.8909302  32.1314507  42.7974815  57.9794579
  31.4412575  43.1791573  59.9627647  30.7116394  42.3695679  59.9807358
  31.9047890  43.4630318  60.9075661  30.6336250  44.4164314  59.6267776
  30.9207249  45.1860046  58.7445755  29.6058731  44.7135887  60.3549118
  29.2471199  44.0587425  61.0350418  29.1189861  45.5961418  60.2905807
  33.9929619  41.5370598  60.6938820  33.3893394  41.2979012  61.7107468
  35.3542862  41.7695312  60.6772995  35.7958565  42.0222549  59.8048058
  36.1367874  42.1150551  61.8716698  35.5098228  42.6779823  62.5631371
  36.5292511  40.8087196  62.6107941  35.6090240  40.2322350  62.7053871
  37.4839859  39.9558601  61.7015877  38.5334091  40.2503700  61.6927338
  37.6001282  38.9779510  62.1688232  37.0517349  39.8563080  60.7059212
  37.1437607  41.0680962  63.8680687  36.9873848  40.2624741  64.3661880
  37.3900185  42.9120331  61.6057549  38.0289307  42.8116760  60.5195236
  37.9079361  43.6594963  62.5757256  37.4463196  43.7003593  63.4731331
  39.2822304  44.2308617  62.4622231  39.3932648  44.3988190  61.3909798
  39.3365974  45.6329536  63.1275864  40.3010750  46.1110115  62.9563026
  38.6691818  46.3331108  62.6251640  39.0502014  45.6897392  64.6376648
  38.2379837  44.9332771  65.2118378  39.6642761  46.6240158  65.1856689
  40.4334450  43.2731972  63.0241127  41.5796242  43.6672134  63.0967979
  40.1752281  42.0641212  63.5267258  39.2151756  41.7518044  63.4974403
  41.1478882  41.1016159  64.0517807  41.7608681  41.7497864  64.6780624
  40.4680862  39.9891129  64.8351974  39.6511154  39.6641312  64.1909561
  41.2902412  38.7712784  65.2618332  42.0691376  39.1635284  65.9157104
  40.6762886  38.0481873  65.7987671  41.6490746  38.2586975  64.3693008
  39.7431984  40.5931587  66.0665436  39.0826302  39.8281631  66.4746246
  40.4555893  40.8736877  66.8423691  39.1033478  41.4171638  65.7507858
  42.0230522  40.4975433  62.9415016  41.4851685  40.0985527  61.9262199
  43.3589058  40.4765167  63.1289330  44.1651611  41.1140213  64.1726151
  44.1418762  40.4888229  65.0651932  43.7516518  42.0737801  64.4824142
  45.5522957  41.2915573  63.6238480  46.3022118  41.4157639  64.4050674
  45.5000763  42.1419640  62.9440079  45.7306480  40.0002213  62.7969513
  45.7898941  39.1326065  63.4540939  46.5974197  40.0048256  62.1360588
  44.2923470  39.8563728  62.1936302  44.1429558  40.4159546  61.2702408
  43.9832573  38.3753090  61.8403206  43.6746597  37.6000710  62.7596664
  44.3183670  37.9078789  60.6436501  44.6235008  38.5379295  59.9156189
  44.0084991  36.5409470  60.1153450  42.9216652  36.5124741  60.0373306
  44.7739182  36.4517479  58.7804146  44.7623787  37.4488525  58.3402481
  45.8489952  36.3619423  58.9361458  44.3469467  35.3865280  57.8099747
  44.5815620  34.4433670  58.3034363  43.2693863  35.4280586  57.6511116
  45.0195312  35.4496040  56.3955994  46.1573105  35.0504990  56.2609291
  44.3628540  35.8124313  55.2907143  43.4548988  36.2546501  55.3035393
  44.9184456  35.7476120  54.4497490  44.4452248  35.3672867  61.0431633
  43.8229332  34.3321342  61.3252792  45.6282921  35.6004372  61.5581436
  46.0626488  36.4922028  61.3679237  46.3969803  34.6844025  62.4657555
  46.2870865  33.6352043  62.1915016  47.8582878  35.1232491  62.4500809
  48.3786850  34.3337479  62.9922791  48.2282791  35.0748901  61.4259377
  48.1892700  36.4895439  63.0223274  48.7705269  36.4795227  64.1399002
  47.9203568  37.5299149  62.3925629  45.7931366  34.7021065  63.9007988
  46.1717148  33.9118042  64.7351608  44.8032990  35.5349998  64.2065582
  44.5257187  36.1844101  63.4845352  44.2289162  35.6637497  65.5476913
  44.6530914  34.8730354  66.1665192  44.4935608  37.0091095  66.1406174
  44.2089157  37.7598915  65.4034576  43.9883842  37.0562096  67.1053314
  46.0573044  37.1616058  66.4813080  46.3813667  36.7630730  67.4426956
  46.6285439  36.5024185  65.8276596  46.5243530  38.6197548  66.2377167
  46.1865654  39.5913391  66.9120712  47.4194603  38.7215233  65.3188477
  47.7382812  37.9287338  64.7803879  47.7873306  39.6580544  65.2312088
  42.7673683  35.2166252  65.6185760  42.1261444  35.1402283  66.7210388
  42.2138214  34.8155212  64.4942017  42.8448029  34.7514343  63.7081680
  40.9327316  34.2316551  64.3379135  40.1513939  34.7963333  64.8465881
  40.4371605  34.3288612  62.8925629  41.2487564  33.9884262  62.2495079
  39.1384544  33.5651894  62.6418495  38.9103966  33.6118889  61.5769958
  39.3335762  32.5324516  62.9307785  38.4145546  33.9932213  63.3352928
  40.3296471  35.9019318  62.6219025  39.5962753  36.2569275  63.3459473
  41.2927818  36.3484612  62.8690643  39.9823723  36.2821236  61.1978798
  40.7736435  35.9048386  60.5500679  38.9743195  35.9232635  60.9901733
  39.8252602  37.3587036  61.2641487  40.9538002  32.8667221  65.0202255
  41.8279343  32.0532074  64.6156082  40.0732460  32.4842453  65.8583908
  39.3600273  33.1611214  66.0891724  39.8703690  31.1704731  66.3813934
  40.8441544  30.6852474  66.3150940  39.3892479  31.2971268  67.8234863
  38.5628586  32.0078583  67.8298264  39.1283455  30.3019104  68.1834564
  40.4114685  32.0539284  68.6777725  41.4023209  31.6452560  68.4795303
  40.3934898  33.1072693  68.3980484  40.1569939  31.9702244  70.2023697
  39.0775414  31.9451199  70.3515320  40.6294327  31.0530491  70.5540619
  40.7020798  33.1518631  70.8115158  41.6588669  33.3469200  70.5534286
  40.3045349  33.7555161  71.9173965  39.3397980  33.2866173  72.6559525
  39.0417900  33.8973770  73.4031219  39.0362473  32.3296852  72.5453415
  40.8849564  34.8280945  72.3007126  40.4550629  35.3265343  73.0667725
  41.6437378  35.2287598  71.7679596  39.0341301  30.2063427  65.5486374
  37.8175163  30.0728168  65.7354050  39.6393471  29.5885239  64.5554962
  40.6306877  29.7733250  64.4990234  39.0938835  28.3562050  63.8696671
  38.0723686  28.5373516  63.5353127  40.0209961  27.9092712  62.6798096
  40.9383469  27.5081329  63.1106911  39.5282707  27.0767479  62.1775818
  40.2907753  29.0892124  61.7089195  39.6227798  29.4227467  60.5344315
  40.0276985  30.6129971  60.1773529  39.7846489  31.1083641  59.2489433
  40.8962898  31.0443916  61.0238228  41.4500542  31.8783817  60.8900032
  41.0800858  30.1469994  62.0264702  41.7844315  30.2061119  62.8430481
  38.9565468  27.2111664  64.8049622  39.7729797  27.1795406  65.7354813
  37.9467773  26.3477230  64.7071838  37.4621925  26.4166107  63.8237038
  37.6972237  25.2536716  65.6943893  38.6230774  25.2340908  66.2692871
  36.6522064  25.7267456  66.6781387  35.8726234  26.0860901  66.0064087
  35.9812393  24.7308502  67.5999451  36.6716881  24.2647190  68.3028793
  35.3153992  25.2359352  68.2996902  35.3019600  24.0163498  67.1350021
  37.1069183  26.9153500  67.5352478  36.2914581  27.2931976  68.1519775
  37.8105431  26.7425079  68.3495789  37.4872093  27.6453094  66.8206635
  37.3941612  23.8923702  65.1234894  36.4491425  23.6088104  64.3819351
  38.1177559  22.8102169  65.5919647  38.8359756  22.9825191  66.2808533
  37.9435616  21.4086647  65.1670990  37.0568810  21.3390217  64.5369873
  39.1860657  20.9114227  64.3888474  40.1390190  21.0014973  64.9102631
  39.1055031  19.8382587  64.2158432  39.3592529  21.6951427  63.0610542
  39.7622108  23.0817738  62.9606514  40.0556564  23.6332169  63.8416748
  39.8299789  23.7109241  61.6829567  40.2083130  24.7170658  61.5783081
  39.6623154  22.8837891  60.5512199  39.8681221  23.3951912  59.3365173
  39.9928246  22.8333683  58.5681381  39.3692513  21.5132065  60.6319427
  39.2335663  20.9451866  59.7234573  39.2763138  20.9199486  61.8928299
  39.1245918  19.8584862  62.0219841  37.6872673  20.4693527  66.4223938
  38.3361778  20.6451340  67.5116119  36.6298256  19.6915226  66.4101181
  36.0461464  19.6475143  65.5870209  36.1057930  19.0136108  67.6106491
  36.6174889  19.2899265  68.5325546  34.6161079  19.4945869  67.7930679
  34.0174408  19.1516666  66.9492111  34.0933723  18.8701820  68.5176163
  34.3865395  20.9825077  68.1010513  34.9013329  21.5630856  67.3355331
  32.9375191  21.2541351  68.2716522  32.7565346  22.3282471  68.3119736
  32.3694344  20.8152370  67.4514389  32.5196915  20.7324543  69.1326828
  35.1175041  21.3299217  69.3749847  34.8581009  20.7161140  70.2375717
  36.1838417  21.2085400  69.1844788  35.0100441  22.3835621  69.6326599
  36.0975266  17.4507008  67.4675369  36.1811638  16.9636154  66.2893524
  35.7468033  16.6630001  68.5141754  35.6632385  17.1376190  69.4017868
  35.5086517  15.2151146  68.3612595  35.3945732  14.9815092  69.4198074
  34.1377945  14.9138546  67.7475815  34.2091522  15.1103296  66.6778107
  33.9517174  13.8401251  67.7716599  32.8913155  15.5840759  68.2518921
  33.0199471  16.6662388  68.2738037  32.1823463  15.3191462  67.4674988
  32.5049515  15.0189209  69.6481476  31.6876240  15.6812677  70.3824463
  33.1081047  14.0572195  70.1468277  36.6830101  14.5009813  67.7060165
  37.8237457  14.7953949  68.0810165  36.4959145  13.5458393  66.7502213
  35.5514450  13.2221327  66.5976028  37.5449562  12.9609251  65.9886932
  38.4120674  12.8566408  66.6408844  37.1574287  11.5560637  65.4231491
  36.3146400  11.6166849  64.7345810  37.9446335  11.1937819  64.7619705
  36.9389343  10.5577364  66.5504074  37.9154091  10.1498737  66.8116455
  36.4362030  11.0389948  67.3893127  36.0143471   9.3633242  66.2574463
  35.0471458   9.7196760  65.9029999  36.4295769   8.7301273  65.4733887
  35.9796524   8.4133883  67.4172440  36.9757538   8.0453701  67.6630936
  35.5209885   8.7384624  68.3510818  35.1081848   7.2587028  67.0856628
  35.5873375   6.5684838  66.5252151  34.8260307   6.7703767  67.9235382
  34.2150459   7.4385428  66.6497040  38.0793991  13.8535461  64.8321762
  39.1062202  13.4714708  64.2458878  37.4342690  14.9893188  64.5287476
  36.5928001  15.2030735  65.0448227  38.0541115  15.9110832  63.5830727
  38.3160133  15.2730064  62.7390556  37.1143837  16.9651108  63.0408974
  37.5762978  17.2996521  62.1120186  36.0794792  16.6406326  62.9323311
  37.0918846  17.8790951  63.6343918  39.4378624  16.5387459  64.0425797
  40.1605759  17.1321640  63.1814995  39.7681656  16.5158424  65.3150787
  39.0827827  16.1109982  65.9367294  40.9194450  17.0972099  65.8802643
  40.8831902  18.1853008  65.8269501  40.9596786  16.7240334  67.4193573
  40.0146599  16.9824219  67.8971405  41.2680359  15.2535725  67.6781158
  40.6968231  14.6085691  67.0104370  42.3178596  15.0180931  67.5034332
  41.1092567  15.0104752  68.7287292  42.0922279  17.5083408  68.1436920
  43.0706711  17.3026943  67.7095642  41.8863106  18.5784168  68.1184616
  42.1328468  17.2362251  69.1984024  42.1857147  16.6229687  65.1600952
  43.1082268  17.4802303  65.1770096  42.2300835  15.4337425  64.5377731
  41.4237213  14.8621941  64.7456665  43.2339935  14.8924246  63.6564980
  44.0905724  14.6101818  64.2686386  42.7580223  13.5822039  63.0368919
  42.2620811  13.0543184  63.8514328  41.8826561  13.5870829  61.7817955
  41.4470558  12.5920506  61.6908340  41.0876274  14.2918539  62.0253716
  42.3269806  13.8972950  60.8360481  43.9214897  12.6510096  62.7174606
  44.4370308  13.0142088  61.8284111  44.5377045  12.5044107  63.6045303
  43.5069885  11.6805077  62.4446602  43.7244377  15.8661842  62.5410233
  44.8947067  15.8010216  62.1877327  42.8041077  16.6739483  61.9668350
  41.8853645  16.7431087  62.3806305  43.0384903  17.4648857  60.7752914
  43.4699097  16.8133869  60.0153313  41.6854134  18.1097927  60.1839447
  41.1256256  18.7554245  60.8606262  41.8832359  18.7278233  59.3081551
  40.5765724  17.0907536  59.8138275  40.3216286  16.4747353  60.6761665
  39.2855835  17.7892227  59.4661674  38.9384689  18.2469349  60.3925095
  39.3346138  18.5137348  58.6532822  38.6091690  16.9872761  59.1704559
  40.9549255  16.1165504  58.6172218  41.3374557  16.7400112  57.8090897
  41.7574539  15.5188084  59.0493698  40.1613541  15.4186058  58.3503532
  44.0576248  18.6350536  60.8787994  44.3970718  19.1468410  59.8419647
  44.3671265  19.0645905  62.1270561  44.1434021  18.4861279  62.9241943
  44.9539452  20.3879356  62.2568932  45.4178467  20.7334728  61.3330421
  43.9486504  21.3916245  62.6570702  43.4201927  21.0123711  63.5317116
  44.5207825  22.2446690  63.0218697  42.7655334  21.7678432  61.6766014
  42.0244675  20.9977951  61.4622307  42.2711220  22.6333847  62.1176186
  43.3728905  22.2552223  60.3380051  44.0761681  21.5981827  59.8263397
  42.5709534  22.3729649  59.6092148  44.0957336  23.4600754  60.5835800
  45.0421982  23.4962788  60.9342804  43.6087456  24.6199417  60.4108849
  42.4886627  24.8764553  59.7678719  42.1804810  25.8334045  59.6710472
  41.9919243  24.0741062  59.4078903  44.3006020  25.6549034  60.8021965
  43.9461670  26.5507870  60.4990959  45.2435760  25.4644146  61.1097946
  46.1325493  20.3435993  63.2781410  46.0456200  20.8568382  64.3956146
  47.2317543  19.5746746  62.9226723  47.3647728  18.8507271  61.7359390
  47.4846039  19.4748650  60.8503952  46.5761490  18.1269054  61.5303879
  48.7197418  18.1197681  61.9008522  49.3842659  18.4298763  61.0944176
  48.4925461  17.0636082  61.7558784  49.4035187  18.4451332  63.2469864
  50.3988266  18.8657131  63.1035156  49.3785706  17.5623589  63.8858795
  48.4170380  19.4978085  63.7907906  48.0324669  19.1900482  64.7631531
  49.0377808  20.8775597  63.8955994  49.8480644  21.1621952  64.7941666
  48.7347450  21.8222351  62.9442482  48.3049164  21.4566975  62.1065559
  49.1402054  23.2035427  63.0517731  50.2028236  23.2546177  63.2891312
  48.9136238  23.9413013  61.6838379  49.3834534  24.9052715  61.8791046
  49.4148788  23.3490868  60.9182510  47.4332390  24.0311203  61.2435684
  46.8192215  22.9934254  61.0200806  46.9154282  25.1974907  61.2067223
  48.5779686  23.8436298  64.2643127  49.1244240  24.7727890  64.8778000
  47.3697433  23.4438610  64.6702042  46.9049072  22.6848488  64.1927872
  46.6726837  23.9170628  65.8586273  47.0861206  24.8967438  66.0982056
  45.1654625  24.0969734  65.5434875  44.6927795  23.1372871  65.3344955
  44.6948738  24.4993134  66.4405746  44.9215317  25.0473328  64.3558731
  45.3506813  24.6388187  63.4409676  43.4094048  25.1566696  64.1945267
  42.7904549  24.2913017  63.9575729  43.1226616  25.6056614  65.1454620
  43.2400513  25.9123363  63.4274597  45.4421692  26.4554787  64.6236420
  46.5320892  26.4556808  64.6373444  45.0618706  27.1597748  63.8837471
  45.0213089  26.7565250  65.5829849  46.9091911  23.1183777  67.1890106
  46.2048073  23.3228054  68.1194687  47.9417267  22.2482300  67.2240219
  48.4248276  22.1630058  66.3411560  48.2600441  21.3519077  68.3594360
  47.4677544  21.5648651  69.0770874  48.2688522  19.9323864  67.8797455
  47.3413544  19.6370792  67.3891907  49.0770645  19.8258991  67.1561737
  48.4427109  18.9402332  68.8636780  49.1036682  18.3345642  68.5203171
  49.5564232  21.6305447  69.0166702  50.5106468  22.0181255  68.3431549
  49.7086487  21.3535767  70.3106918  48.9293098  20.9939365  70.8430328
  50.9121933  21.6007652  71.1362686  50.4819717  21.5028381  72.1329727
  51.9227943  20.4566441  70.8499374  52.1656113  20.3861084  69.7896729
  52.8914261  20.8094788  71.2040024  51.5844231  18.9621239  71.1687317
  50.6570206  18.6326714  70.7002411  52.7109222  18.0271416  70.6810608
  53.5812073  18.2051620  71.3127365  52.3279457  17.0084114  70.7412109
  53.0624390  18.2617302  69.6763153  51.4426422  18.7464619  72.7113800
  51.9358864  19.5752926  73.2191772  50.3632774  18.8145046  72.8471680
  51.9149284  17.8245449  73.0506592  51.4619408  23.0008411  70.9590836
  52.6890640  23.2249660  71.1212234  50.6401596  23.9594917  70.6181335
  49.6437683  23.7950840  70.6016006  51.0586548  25.2850494  70.1654434
  51.7971649  25.1664658  69.3725739  49.9824638  25.9085255  69.4026947
  49.8006516  25.2643223  68.5424347  48.6814766  26.2566204  70.2279663
  48.6547470  27.2786140  70.6060257  47.7621918  26.2041626  69.6446457
  48.4835663  25.5907764  71.0679626  50.3785973  27.2078972  68.9439621
  50.0351830  27.3073959  68.0530243  51.6488800  26.1888218  71.2713013
  51.0881004  26.3443890  72.3827286  52.6771660  26.9560661  70.8867035
  53.0979271  26.7249889  69.9980774  53.1005211  28.0733242  71.7781906
  52.8143120  27.7827873  72.7890167  54.6298218  28.3102531  71.6578522
  54.8852501  28.7148361  70.6784821  54.9542046  29.0653610  72.3738785
  55.5131531  27.0699081  72.2048340  54.9619675  26.6047115  73.0220795
  55.6633759  26.3288288  71.4197617  56.8465614  27.4252167  72.8234558
  57.3972015  28.0239258  72.0978928  56.6759644  28.1558208  73.6141663
  57.6016350  26.1045437  73.3651657  57.2119522  25.2535744  72.8065033
  58.6287537  26.1363354  73.0016937  57.5847893  25.9680443  74.7977448
  58.1882133  26.6128464  75.2878571  56.6430473  26.0510197  75.1531830
  58.0127487  25.0903301  75.0557404  52.3427200  29.4141655  71.5571518
  52.6256638  30.3016205  72.3905792  51.3789635  29.5777283  70.6229858
  51.0993958  28.7592201  70.1014633  50.5780792  30.7980156  70.3759308
  51.2506981  31.6527634  70.4472656  49.9317017  30.6852665  69.0021896
  50.5583878  30.3848495  68.1624756  49.2065506  29.8752689  69.0806885
  49.2065544  31.9039688  68.6034927  48.6399612  32.6713295  69.3316345
  49.1919098  32.1631699  67.3539963  49.5785866  31.5655823  66.6374283
  48.4957199  32.8621635  67.1375961  49.5068016  30.9533348  71.4378204
  48.5683250  30.1611691  71.5838928  49.6482964  31.9812984  72.3071136
  50.4258690  32.6191864  72.2144852  48.7359314  32.2049828  73.4969330
  48.7190895  31.3166027  74.1282806  49.2773857  33.2847366  74.4096756
  48.7133865  33.4054146  75.3345871  50.7114410  33.1404533  74.9782639
  51.4751205  33.1658821  74.2009277  50.8875732  33.9434242  75.6940231
  50.7456398  32.2358894  75.5854721  49.3548012  34.5608063  73.7660294
  48.5344772  34.9839592  74.0298691  47.3045578  32.6135063  73.1022491
  46.3499756  32.5596886  73.9153290  47.0241241  32.8319702  71.8158340
  47.8436966  32.9221039  71.2324982  45.7761917  33.4037323  71.3713684
  45.3996849  34.1866341  72.0297012  45.9367943  33.9902649  69.9548721
  46.7636147  34.6864433  69.8141556  46.1003036  33.1836243  69.2402344
  44.6895790  34.6681938  69.4066772  44.9756317  35.2182007  68.5101547
  43.9078903  33.9604416  69.1307297  43.9994011  35.6780930  70.3043747
  42.7437553  35.4939842  70.5133667  44.6400642  36.7268143  70.6958466
  44.6468582  32.3153038  71.3977737  43.4678688  32.6455498  71.3202057
  44.9986725  30.9975948  71.4110336  45.9837532  30.7746944  71.4171295
  44.0872269  29.9127102  70.9413300  43.1828766  30.3022385  70.4738693
  44.7455482  29.2163963  69.7159348  45.4656029  28.5129662  70.1340332
  44.0597305  28.5085831  69.2503586  45.4245071  29.9982700  68.5445786
  46.0102577  30.7759933  69.0346222  46.2973747  29.0792313  67.7179031
  45.6261444  28.2891579  67.3812332  46.7190933  29.6517601  66.8917847
  47.1332893  28.6796284  68.2920685  44.2955017  30.7040195  67.7457657
  43.8338013  31.4162464  68.4296265  44.8530998  31.2508430  66.9853897
  43.5312653  30.0493774  67.3268509  43.5650215  28.9088497  72.0033646
  44.0130959  27.7398014  72.0826721  42.7024002  29.2899704  72.7698364
  26.5190582  50.4214478  54.8314362  25.8156071  49.9597893  55.3901253
  27.2675438  50.4855118  55.5065422  26.1263294  51.3068695  54.5452614
  27.0167503  49.6362801  53.6433907  26.1150684  49.2525215  53.1661072
  27.8797760  50.5627823  52.6533966  27.2424831  51.4016800  52.3737297
  28.7965641  50.9260902  53.1177292  28.1742821  49.7555695  51.3794670
  28.9366741  50.1983223  50.7385063  28.5105858  48.7639618  51.6823044
  26.7462349  49.4175987  50.2970772  26.6882515  50.9917831  49.3124809
  26.6451054  51.8635788  49.9653244  27.5946140  51.0179596  48.7075653
  25.7880993  50.9742813  48.6980515  27.8215885  48.4945221  54.2007027
  28.9940720  48.7361794  54.6370544  27.3313217  47.3429756  54.1115913
  26.4804058  47.2502785  53.5754471  27.8970718  46.1151657  54.6580124
  28.9298019  46.3269348  54.9350014  27.0227737  45.7808952  55.8837395
  27.2615280  46.4317627  56.7248497  25.9700718  45.9100189  55.6322556
  27.2382412  44.3919334  56.3912735  26.6648502  44.3090935  57.3145599
  26.6250401  43.6797447  55.8391151  28.9259129  43.7172890  56.5896416
  28.6997757  42.1018372  57.4561729  29.6211224  41.5251999  57.3742561
  28.3119164  42.3869629  58.4341164  27.9332294  41.5237961  56.9400597
  27.9325352  45.1576195  53.5004921  26.9838791  45.1294823  52.7062569
  28.9491882  44.3651276  53.2853317  29.7617531  44.2799644  53.8791161
  28.8098240  43.1833572  52.4282265  28.3704491  43.4602051  51.4698944
  30.2295361  42.7336998  52.1146736  30.7788467  42.6746635  53.0542908
  30.2854557  41.4185791  51.2781525  29.8226585  41.5424728  50.2990913
  31.2782860  40.9970245  51.1210518  29.6330681  40.7103958  51.7890053
  30.8868008  43.7750473  51.1627655  30.3919182  43.9218788  50.2027473
  30.9518490  44.7164650  51.7083015  32.3940086  43.3854408  50.9048157
  32.8336525  43.0648766  51.8493004  32.5172043  42.5652542  50.1975555
  33.0078316  44.2013206  50.5231552  27.9776859  42.1119537  53.0684509
  28.1345539  41.7851295  54.2518616  27.0391254  41.5485992  52.2891960
  26.9650536  41.9694977  51.3740692  26.0396080  40.5735550  52.6741219
  26.5083809  40.1922226  53.5812798  24.7320633  41.2759018  53.1093521
  24.3138714  41.8982430  52.3182030  24.0841370  40.4234848  53.3134880
  24.8253918  42.1794014  54.3794250  25.5112495  41.6737480  55.0591393
  25.4030113  43.0476151  54.0621338  23.5415554  42.5786552  55.1446686
  22.9725533  43.3122101  54.5734978  22.9394951  41.6812477  55.2871208
  23.7705135  43.0931320  56.5325775  23.4341087  44.0450745  56.5054550
  24.3130283  42.5545731  57.5844955  24.7270699  41.3652039  57.5652237
  25.2027016  41.1450844  58.4286041  24.7532825  40.7754478  56.7457123
  24.3864594  43.2090302  58.7368202  23.8328152  44.0519981  58.7914124
  24.6715164  42.7629700  59.5969810  25.9339027  39.3705521  51.7582016
  26.2784634  39.5851593  50.5859528  25.4058723  38.2146645  52.1183357
  25.1931763  38.2726784  53.1039810  24.8175278  37.1440125  51.2691383
  25.3666649  37.2575722  50.3344460  24.9977531  36.1656036  51.7144890
  23.3382339  37.3523102  50.8776054  22.5218296  37.7673988  51.6785278
  22.9916477  37.0262833  49.6885757  23.7499008  36.9544144  49.0252609
  21.5738449  36.9008789  49.2027397  20.9608669  37.0659676  50.0887985
  21.1499233  38.0465736  48.1697426  21.7198849  37.9765816  47.2432709
  19.6577511  38.0444069  47.9068985  19.1599827  38.3972244  48.8101425
  19.4958153  38.6567802  47.0198364  19.3080559  37.0531158  47.6185379
  21.6493034  39.4262581  48.6512756  21.5600891  39.5384331  49.7318115
  22.7089481  39.4782677  48.4011612  20.9645901  40.6130905  48.0168419
  21.6263123  41.4173775  47.6953583  20.6660480  40.3162498  47.0114250
  20.0585175  40.9483223  48.5215721  21.4218540  35.4993248  48.6173859
  22.3415260  34.9924240  47.9844398  20.2245197  34.9330826  48.7387276
  19.5000839  35.5019531  49.1530724  19.9785137  33.4820709  48.4518661
  20.8579235  33.0608521  47.9647141  19.7530689  32.6779823  49.7499046
  19.0980663  33.1870117  50.4569817  19.2779789  31.7099400  49.5908775
  21.0534687  32.2742691  50.4853935  21.6937923  31.7848663  49.7515221
  21.4987659  33.2223244  50.7870560  20.7684536  31.1937675  51.6178436
  21.6179047  31.2530003  52.2983017  19.8712845  31.4824600  52.1654243
  20.6457691  29.8378067  50.9860191  21.2648830  29.5404758  50.2454872
  19.7054939  28.9461746  51.1553497  19.0367851  28.7859001  52.2518425
  19.0566807  29.4349823  53.0254021  18.2401276  28.1650734  52.2487144
  19.6254730  28.0576954  50.2172585  20.0936661  28.2122440  49.3357735
  19.0755272  27.2387619  50.4340744  18.7522144  33.1968842  47.5564575
  17.6663017  33.7961311  47.7142563  18.8666439  32.1803207  46.6933098
  19.7731228  31.7598267  46.5464058  17.6992702  31.5042801  46.1663322
  16.8269806  31.5241547  46.8196449  17.5750275  32.1158600  45.2726669
  18.0004520  30.0342388  45.8124847  19.1050415  29.5353851  45.9144363
  16.9519978  29.4057884  45.2948914  16.0653954  29.8880196  45.2562866
  16.9575958  28.1216469  44.5445900  17.8496857  28.1691322  43.9200706
  16.8350716  27.0465717  45.5817223  17.1223087  26.0873566  45.1510239
  17.5748234  27.1617928  46.3739281  15.8860283  27.0445156  46.1178398
  15.8106775  28.0704861  43.4213028  14.7469950  28.7559032  43.5474777
  15.9596577  27.1609726  42.5620995  16.8360825  26.6611519  42.6085587
  15.0775881  26.7287045  41.4310951  14.0184612  26.9201660  41.6034164
  15.2471113  27.5661850  40.2070541  15.3778648  28.6190243  40.4571266
  16.3927288  27.1098957  39.3036957  17.2719307  26.9955750  39.9377518
  16.0550690  26.1570148  38.8961372  16.5147190  27.8144169  38.4809761
  14.0268459  27.3746147  39.4219589  14.0061941  28.2060680  38.9425201
  15.1938267  25.2677193  41.1836090  16.1686592  24.6611328  41.6759338
  14.1897840  24.7723465  40.4111977  13.4310913  25.3467674  40.0727806
  14.2141829  23.3589821  40.0891647  15.2344284  22.9836845  40.1688538
  13.2972498  22.5126877  41.1101608  13.2193537  21.4938068  40.7307892
  13.6202021  22.4661293  42.5413284  14.6207809  22.0749512  42.7254944
  13.4025316  23.3975964  43.0639038  12.9676094  21.6657944  42.8901634
  11.9787455  23.0631428  41.2292747  11.3653164  22.4453773  40.8247108
  13.8910780  23.0568905  38.6783257  13.1933460  23.8348427  37.9402161
  14.2650156  21.9011917  38.1184502  14.9790459  21.4710979  38.6887817
  13.9234524  21.3959885  36.8166237  13.3980751  22.1731949  36.2616196
  15.2262526  21.0802479  35.9940987  14.8972454  20.9052811  34.9697762
  16.0576019  22.3690414  36.1320686  16.4818802  22.4130344  37.1351471
  16.8846092  22.3066902  35.4247665  15.4704809  23.2764568  35.9906998
  16.1612644  19.9771957  36.5218544  16.2227802  20.1408405  37.5977478
  15.6188812  19.0419159  36.3834000  17.1011410  19.9297791  35.9718704
  13.0966387  20.1508179  36.9931602  13.2922449  19.3533707  37.9937515
  12.2546148  19.7836533  36.0568848  12.2072535  20.3641357  35.2317200
  11.7404404  18.4042530  35.9265671  11.7900267  17.9317131  36.9075623
  10.3038645  18.4429207  35.4149666  10.1884470  18.8446045  34.4082756
   9.8791103  17.4419479  35.4907227   9.4489603  19.2541943  36.3897552
   9.7081814  20.3128986  36.3969536   8.4194174  19.1591263  36.0446434
   9.5567369  18.8251419  37.8232803   9.9250631  17.6878395  38.2125053
   9.0704641  19.5805874  38.6681671  12.6209335  17.5008736  35.1494064
  12.4677677  16.2618523  35.2817192  13.5058451  17.9839249  34.2567101
  13.5938864  18.9863586  34.1702347  14.3263254  17.2249393  33.3331413
  14.1878767  16.1825542  33.6201286  13.7208309  17.4624424  31.9810791
  13.7435389  18.5388908  31.8112469  14.2738657  17.0831394  31.1217880
  12.2301922  16.9831867  31.7566910  12.1674252  15.9108715  31.9419003
  11.6129608  17.4744320  32.5088921  11.7338915  17.2910156  30.3930092
  12.3409786  16.7789383  29.6464710  10.6933146  16.9746017  30.3210182
  11.7399082  18.7130375  30.2013016  11.4125376  19.2338600  31.0023460
  12.0695267  19.4170208  29.2194633  12.2172489  18.9907036  28.0285244
  12.2966366  17.9917564  27.9024162  12.1032438  19.6918316  27.3105278
  12.1631613  20.6777477  29.3436985  12.1610603  21.1396484  30.2418880
  12.2805653  21.2778015  28.5397987  15.7774858  17.6195259  33.4617577
  16.0604458  18.8040562  33.4915047  16.6804543  16.6596375  33.4619370
  16.2934628  15.7359457  33.5928230  18.0935841  16.9926586  33.3664742
  18.2607021  17.8547688  34.0121803  18.8990936  15.8218174  34.0859108
  18.5575237  15.6863098  35.1121025  18.6819096  14.8792477  33.5834236
  20.4021568  15.9972839  34.1018410  20.8292866  17.1957378  34.0227509
  21.1527767  14.9758120  34.2564049  18.4843369  17.3014183  31.9793625
  18.9255695  16.4514122  31.1831551  18.4142380  18.5638351  31.5508900
  18.3499718  19.2486610  32.2904739  18.6209812  19.0816975  30.2043152
  19.4927883  18.5991306  29.7625217  17.3267326  18.8411732  29.4284992
  16.9871521  17.8133049  29.5560932  16.1352520  19.7045670  29.9692612
  16.3639011  20.7686520  30.0287800  15.3416033  19.5621490  29.2358170
  15.7678480  19.3560848  30.9344959  17.5458946  19.1243916  28.0401134
  18.1977596  18.4983444  27.7164822  19.0715694  20.5131493  30.1740017
  18.6204910  21.3383102  30.9895592  19.9159050  20.8537979  29.1796589
  20.2394791  20.1591721  28.5217113  20.3840275  22.2493744  28.9333668
  20.8487473  22.6526337  29.8330994  21.5955887  22.2148476  27.8902893
  22.2192669  21.3734627  28.1922741  21.1605015  21.9668350  26.9221458
  22.3562508  23.5616837  27.8586559  21.6558075  24.3000717  27.4684467
  22.7059708  23.7240944  28.8781757  23.5012150  23.5629120  26.8458786
  23.4602318  22.7476082  25.8505878  24.3508549  24.4850712  26.9249592
  19.3346386  23.2781029  28.5681572  19.3944778  24.4070339  29.0266476
  18.2618561  22.7726078  28.0074501  18.3141575  21.8240242  27.6645908
  17.0350628  23.5444412  27.6605930  17.2428913  24.4207573  27.0466061
  16.0840034  22.5860596  26.8362732  15.9454508  21.7406254  27.5101757
  15.1186810  23.0653801  26.6734734  16.8437443  22.0176182  25.5682850
  17.2105236  22.8509617  24.9690266  17.6575851  21.3634548  25.8810673
  15.8828945  21.2836494  24.7173939  14.7944403  21.7623405  24.4187088
  16.1190033  20.0995350  24.3232384  16.2650414  24.0451069  28.9645004
  15.5822754  25.0790272  28.9544849  16.4396458  23.4058361  30.1110821
  17.0970325  22.6402111  30.0691166  15.7336760  23.7008305  31.4174747
  15.1470222  24.5920830  31.1947517  14.7158146  22.5919456  31.7325764
  14.2160778  22.3285904  30.8003693  15.2451754  21.6793118  32.0063972
  13.7006826  23.0017090  32.8114815  14.1421022  22.9217396  33.8048859
  13.2644215  23.9835033  32.6274796  12.4749298  22.0907593  32.6867371
  11.8219185  22.1146927  31.6425152  12.1891022  21.2491245  33.6056137
  16.6620426  24.2146034  32.5331841  16.3051529  25.1995144  33.1565361
  17.8957806  23.7687588  32.6296577  18.1391182  22.9165916  32.1451988
  18.8052959  24.2057495  33.7061119  18.2320232  24.1660080  34.6323280
  20.0095806  23.1418915  33.8815308  20.5123348  23.0446434  32.9193039
  21.0363903  23.5361137  34.9454460  21.9010773  22.8789787  34.8527489
  21.5233574  24.4819069  34.7078819  20.5902615  23.4692078  35.9377136
  19.3711662  21.7778778  34.2853928  19.0929489  21.9023819  35.3319054
  18.4525681  21.5458260  33.7464752  20.2296181  20.5938759  34.0980759
  19.8019295  19.6296730  34.3728256  20.6352882  20.6774197  33.0898323
  21.1026764  20.6237049  34.7499809  19.2974358  25.5711708  33.4461288
  19.4404087  26.4007759  34.3347054  19.7354450  25.9161320  32.2571640
  19.6393147  25.2123756  31.5391197  20.3011169  27.2650375  31.9679298
  21.0195255  27.5240479  32.7456856  21.0210018  27.3401756  30.5766258
  20.3210106  27.1400051  29.7654266  21.2591190  28.3954506  30.4432354
  22.3867168  26.5944633  30.4122047  22.2442303  25.5151176  30.3591385
  23.0295410  27.0109711  29.0813541  22.2835541  27.0073318  28.2866364
  23.5297871  27.9773426  29.1444378  23.7060871  26.2130013  28.7753620
  23.4220695  26.9662685  31.4631100  23.1219501  26.6404896  32.4590492
  24.3391876  26.4258366  31.2287445  23.5705395  28.0434361  31.5390091
  19.0660000  28.2934093  32.0049438  19.2186527  29.4058876  32.5448799
  17.8745098  27.9082203  31.5440521  17.6734982  26.9517593  31.2893410
  16.7508621  28.8308945  31.4592304  17.1435471  29.7911396  31.1248188
  15.6532078  28.4072857  30.4740410  15.4304399  27.3565578  30.6596317
  14.6370525  28.7553272  30.6595001  15.9354744  28.4722099  28.9670391
  16.9495182  28.1320896  28.7569618  15.2259398  27.8578339  28.4127808
  15.7225618  29.8770905  28.4691525  15.0895805  30.7446518  29.0841942
  16.1794319  30.2156792  27.2757225  16.7164192  29.5136223  26.7869892
  15.9957018  31.1894016  27.0802574  16.2328625  29.1648178  32.9183311
  16.0615520  30.3383331  33.2513618  15.9254646  28.1319809  33.7011261
  16.0917683  27.2266712  33.2853661  15.4455357  28.1772594  35.0450859
  14.5944519  28.8388882  35.2063522  15.0613327  26.7842274  35.5777016
  15.7967949  25.9825878  35.5100975  14.7459288  26.8563938  36.6185722
  13.8417196  26.1826935  34.9417114  13.8727579  26.3246880  33.8614464
  13.9691439  25.1139526  35.1139145  12.4612303  26.6049728  35.3184776
  12.2105083  26.4389248  36.3661728  12.2974005  27.6554527  35.0781593
  11.4628134  25.7868404  34.4809685  11.5669403  26.0033798  33.4177742
  11.4791985  24.7390709  34.7809830  10.1443787  26.3766899  34.6433067
  10.2016134  27.3553429  34.4002800   9.4603109  25.9110088  34.0642586
   9.8692312  26.2329540  35.6044159  16.4306583  28.9018841  36.0177917
  16.0954399  29.7898064  36.7954559  17.6906357  28.6247616  35.9466362
  18.0058899  27.8774853  35.3447266  18.8061638  29.3490524  36.6012726
  18.6758556  29.2831249  37.6814461  20.1776829  28.6476269  36.4618530
  20.5439129  28.7792358  35.4436874  21.1897850  29.1498737  37.5365181
  21.5286217  30.1086807  37.1441193  20.6194191  29.2467594  38.4603195
  22.0929356  28.5482826  37.4340096  20.0006046  27.2925510  36.7994614
  19.7916813  26.8035374  36.0002022  18.8773994  30.8681812  36.2302513
  19.0258846  31.7806435  37.0860367  18.8158455  31.1530800  34.8785858
  18.8537521  30.4032478  34.2030029  18.7059460  32.5039062  34.2843437
  19.5578194  33.1018028  34.6082764  18.6116352  32.5404091  32.8094788
  19.2869225  31.7871666  32.4036293  17.6157188  32.3158493  32.4276009
  19.0661011  33.9132271  32.2511063  18.4072475  34.6995125  32.6195831
  20.1127529  34.0005264  32.5426483  19.0543900  33.9824257  30.7423019
  19.6299038  33.1134796  30.4232159  18.0528278  33.7283630  30.3952808
  19.6741791  35.3078079  30.1916389  19.3654995  36.1376190  30.8274288
  20.7293835  35.0468864  30.2726479  19.1079426  35.6114693  28.8699360
  19.0506516  34.7022705  28.4338474  18.1360855  35.8726120  28.9559898
  19.6129284  36.2711868  28.2955990  17.5647888  33.2515106  34.9623604
  17.7740135  34.3397865  35.4375496  16.4042816  32.6018677  34.9614868
  16.3620358  31.6706219  34.5727768  15.1676292  33.2134781  35.5036545
  14.8654985  34.1199379  34.9791069  13.9486704  32.2618446  35.4401970
  14.3435907  31.3300381  35.8450165  13.2129059  32.6580124  36.1400566
  13.4748421  32.1269684  34.0221634  13.8449306  32.9184380  33.3704605
  13.7527132  31.1503906  33.6256981  11.9430523  32.2245140  33.9565239
  11.2166166  31.4669647  34.6269035  11.3987360  33.1549263  33.1974487
  11.9043512  33.9161644  32.7673607  10.4160051  33.0894585  32.9737244
  15.3509560  33.6025810  36.9668007  15.1619892  34.7254868  37.4071770
  15.9131203  32.6910095  37.8033524  16.2469597  31.8283768  37.3977432
  16.1691246  32.9284973  39.2417831  15.2594652  33.1116867  39.8136749
  16.6846848  31.6001472  39.6953163  15.8902540  30.8544235  39.7249641
  17.4547672  31.2494736  39.0082207  17.3967838  31.5797768  41.0480194
  18.2303391  32.2803879  40.9987183  16.5600052  32.0165443  42.2626915
  15.6483240  31.4314423  42.3834648  17.2402267  31.9470844  43.1115570
  16.2273712  33.0522919  42.1941566  18.0429897  30.2579842  41.3008575
  18.5390358  29.9740162  40.3727455  18.6612720  30.2867413  42.1980743
  17.2891712  29.5295143  41.5995026  17.1018372  34.1695900  39.3956032
  16.7900085  34.9473228  40.3041000  18.1787586  34.3345947  38.6074295
  18.4604301  33.6197090  37.9519196  19.0008907  35.6246376  38.7186852
  19.3701420  35.7912865  39.7306023  20.1778908  35.4067764  37.7944908
  19.8366508  35.2812080  36.7669258  20.7883854  36.3000145  37.9268570
  21.0441742  34.2293320  38.0869827  20.3044415  33.4451866  38.2482719
  21.9154835  33.7746353  36.9403496  22.5539856  32.9532547  37.2655334
  21.3399734  33.3977966  36.0948486  22.4672737  34.6600075  36.6245155
  21.9493942  34.4527550  39.2249222  22.3169079  33.5320969  39.6781578
  22.7033615  35.2106705  39.0123215  21.3268795  34.9265976  39.9839020
  18.2658539  36.8665237  38.3343430  18.4239521  37.8548241  38.9505043
  17.3793583  36.7663307  37.4099350  17.1063080  35.8608589  37.0554504
  16.6747646  37.9440765  36.8779793  17.4186897  38.7406731  36.8884010
  16.1702271  37.7611732  35.4283066  15.5910187  36.8431931  35.5279846
  15.5467405  38.5980682  35.1137085  17.3280201  37.6173439  34.4507904
  18.2241173  37.1646385  34.8752518  17.0618668  37.0159569  33.5815430
  17.7503948  38.9966660  33.9174309  17.6993256  39.2378769  32.6810188
  17.9757938  39.9116859  34.6676598  15.5163450  38.4207573  37.8355942
  15.2690954  39.6424599  37.8391190  14.9609575  37.5542107  38.7005882
  15.1662483  36.6081352  38.4126625  14.3608599  37.8935318  39.9361916
  13.7042894  38.7502174  39.7841530  13.5118990  36.6709404  40.4443283
  14.1139145  35.7636337  40.3945503  13.2543077  36.8477783  41.4885864
  12.1803093  36.5243187  39.6705551  12.3086386  36.7359581  38.6090279
  11.7537479  35.5261116  39.7691689  11.2138262  37.5872307  40.2628555
  11.1069956  37.5655327  41.3473892  11.5882597  38.5757217  39.9967880
   9.7991657  37.4039726  39.6679764   9.8864679  37.3002548  38.5864410
   9.3150730  36.4994431  40.0361824   8.8901815  38.5571709  39.9734230
   9.2871084  39.4717865  39.8120956   7.9743829  38.5142860  39.5496559
   8.6772871  38.5776939  40.9605179  15.2401447  38.4444160  41.0569801
  14.8712091  39.4363098  41.5937538  16.4381142  37.8346901  41.3438339
  16.6848793  36.8906593  41.0830536  17.3586044  38.4887123  42.3367081
  16.8773212  38.5818024  43.3102608  18.6461086  37.5920105  42.5555458
  18.8792076  37.2855759  41.5358086  19.8994656  38.3448410  43.0539207
  20.1883869  39.1335297  42.3592339  19.7866611  38.9492798  43.9539375
  20.7675762  37.6864395  43.0854874  18.2899342  36.4130783  43.4939842
  18.2790031  36.6110573  44.5657997  17.3074017  36.0684624  43.1715393
  19.2197895  35.1554413  43.2863464  20.2227802  35.4863968  43.5557594
  18.9749012  34.3420715  43.9693985  19.0669651  34.7186432  42.2994537
  17.7274685  39.8700562  41.9615860  17.9616661  40.7088242  42.8308754
  17.9151268  40.1094246  40.6400948  17.8319626  39.3103447  40.0279999
  18.3798103  41.4228973  40.0710678  19.1888390  41.8493843  40.6640968
  18.8418217  41.1710014  38.6346359  18.1113014  40.4803963  38.2133217
  19.0044327  42.4859581  37.8276443  19.4907856  42.5234108  36.8528824
  18.0761127  43.0467720  37.7189674  19.6105461  43.1364708  38.4581680
  20.2061157  40.5211182  38.8584785  20.9114342  41.1739769  39.3726768
  20.1757870  39.7543297  39.6325684  20.7516441  39.8666496  37.6449814
  21.2949295  40.5997543  37.0487442  21.3705463  39.0076447  37.9041748
  19.8647594  39.5454369  37.0987587  17.2850304  42.4773369  40.1487465
  17.6347141  43.5543633  40.5887794  16.0405388  42.1270294  39.7501411
  15.8638992  41.2066154  39.3736610  14.9136343  42.9690475  39.8450623
  15.2247667  43.9811668  39.5863724  13.7102852  42.4735336  38.9771919
  14.1002684  42.5642738  37.9633942  13.5990067  41.4104195  39.1905098
  12.3814001  43.2052269  39.1217537  11.6676588  42.6795998  38.4874153
  12.0273514  43.1356812  40.1503029  12.3779316  44.7072792  38.8250504
  11.4173088  45.4497566  39.2081223  13.3855305  45.2818489  38.3764038
  14.5129604  43.2039490  41.2800064  14.0978861  44.2925415  41.5487633
  14.5130348  42.1681290  42.0738869  14.7907057  41.2534676  41.7477036
  14.2021904  42.3219299  43.4862213  13.2774878  42.8901405  43.5870323
  14.0897846  41.0143776  44.2985802  14.9692764  40.3753052  44.2199631
  14.1471977  41.2690506  45.3568573  12.8507538  40.2537270  43.9320450
  12.5485764  40.3801727  42.8924294  13.1293192  39.2116318  44.0887032
  11.6333418  40.5079765  44.7945442  11.4086657  41.6601448  45.1737671
  10.7929926  39.5859032  44.9911995  15.2918634  43.1315079  44.2023697
  14.9692945  44.2717590  44.5663567  16.5231056  42.6797600  44.3598900
  16.7111111  41.8383484  43.8337860  17.6267834  43.3913574  44.9891129
  17.2127285  43.9370079  45.8370056  18.5922642  42.3554878  45.5972595
  19.0749874  41.8890762  44.7384567  19.3328667  42.9349670  46.1484566
  17.8985462  41.3828468  46.4124947  17.4403172  41.5874863  47.4961510
  17.7252827  40.1945267  45.8733253  17.5135517  39.5202827  46.5948944
  17.9724369  39.9821777  44.9173317  18.3293037  44.4926720  44.2574196
  19.3321857  44.9640465  44.7246971  17.6739769  44.9747505  43.1257362
  16.8007374  44.5631256  42.8288879  18.1744308  46.0834084  42.1788101
  17.6136360  46.0479889  41.2448120  17.7632103  47.3889198  43.0548897
  18.3913059  47.4153290  43.9453354  17.9954700  48.2481689  42.4257202
  16.2724628  47.4676247  43.4122391  15.2144661  47.4496536  42.5835991
  15.2410955  47.2871246  41.5871162  14.1352587  47.8767548  43.2884674
  13.1519032  48.0962524  42.8995819  14.4810286  48.0229073  44.5891342
  13.8667870  48.3865662  45.3036690  15.8491449  47.7440071  44.6478920
  16.5647030  47.8734474  45.4464035  19.7487507  46.0203857  41.9570351
  20.4372749  47.0496445  41.9169617  20.3399334  44.8616219  41.8536873
  19.6844788  44.0951500  41.9085312  21.8270092  44.5884361  41.8213844
  22.2732048  45.2101898  42.5975494  22.0172863  43.1034012  42.1546936
  21.5620804  42.4920158  41.3755226  23.4454193  42.7973061  42.3713837
  23.9305458  43.3809776  43.1537361  23.5672951  41.7569084  42.6727486
  24.0086784  42.9182243  41.4460640  21.4640865  42.7342567  43.3867149
  21.7816505  43.3537331  44.0477753  22.4370670  45.0112457  40.4969597
  21.7645454  45.0008049  39.4573631  23.7223206  45.3448563  40.4842644
  24.1181145  45.3852654  41.4126015  24.6359386  45.3935051  39.3335342
  24.0489349  45.0090218  38.4994507  24.9475555  46.8787155  38.8994980
  25.4453659  46.9013329  37.9300804  23.9880047  47.3903503  38.8247147
  25.7131729  47.7036476  39.9426651  25.2497654  47.5492783  40.9170990
  26.6861553  47.2233315  40.0461349  26.0434494  49.0406799  39.4470825
  26.6601543  49.0446129  38.5483284  25.0844498  49.5082512  39.2239304
  26.8936424  49.8435516  40.4321365  27.8430958  49.3120995  40.4969406
  26.9862270  50.7012520  39.7658958  26.2952137  50.2384987  41.7615471
  25.3297997  50.4721298  41.5785332  26.3348217  49.4010849  42.3248138
  26.7714615  51.0714607  42.0769272  25.8854713  44.4925613  39.4830399
  26.3256626  44.2204323  40.6131325  26.5369244  43.9660187  38.4467506
  26.2111626  44.0613022  37.0057335  26.2322903  45.0864029  36.6358299
  25.2099133  43.6571541  36.8565178  27.2521229  43.1793213  36.2087135
  27.6933002  43.8591270  35.4797897  26.6968040  42.3647842  35.7436867
  28.2021847  42.5709953  37.2269821  29.2014961  42.9913406  37.1138916
  28.1039352  41.4874763  37.2935905  27.6811466  43.0197029  38.6456337
  27.3234921  42.2127571  39.2851868  28.8828163  43.5811768  39.4688950
  29.5270901  42.9568214  40.3066139  29.2038765  44.9058228  39.3642578
  28.7091007  45.4833870  38.6996422  30.3645096  45.5375671  39.8903389
  31.2525120  44.9750595  39.6020088  30.4644871  46.9691505  39.3345642
  30.3159256  46.9021606  38.2568130  29.8114433  47.5940285  39.9437981
  31.8943977  47.4792290  39.3773575  32.1560020  47.4908600  40.4354362
  32.5493240  46.7843323  38.8517189  32.0942726  48.8961296  38.8759842
  32.9997444  49.6018867  39.2486610  31.3952217  49.2297173  37.8919678
  30.2942638  45.6759415  41.4355125  31.2598763  45.9498405  42.1642189
  29.1201611  45.4653397  42.0297470  28.3686523  45.2618561  41.3863716
  28.9071827  45.3718414  43.4593697  29.7552319  45.8955536  43.9005508
  27.6000252  46.0384865  43.8809204  26.7880936  45.4338417  43.4768486
  27.5857620  45.9752884  44.9689903  27.5424900  47.4805336  43.4198303
  28.5848560  48.1287804  43.3108559  26.4445629  48.0868530  43.3166122
  28.8965244  43.9093704  43.9914207  28.8976383  43.7612724  45.2400932
  29.0439987  42.9823151  43.0925446  29.1279926  43.2397079  42.1195107
  28.9050617  41.5578537  43.4794884  28.3943501  41.3432426  44.4182205
  28.1513290  40.7668648  42.4233818  28.4662094  40.9164429  41.3906288
  28.0807648  39.3054543  42.8490868  27.7065372  38.5581245  42.1494026
  29.1017189  38.9307632  42.9223289  27.7083969  39.1730652  43.8649139
  26.6984558  41.2063904  42.4566002  26.1464138  40.7205849  41.6520271
  26.2099628  40.9723740  43.4024925  26.6248875  42.2822990  42.2981339
  30.3441010  41.0849762  43.5787239  31.1402225  41.2525330  42.6676445
  30.7168198  40.3634720  44.6092491  30.0547504  40.2604904  45.3650017
  32.1050186  39.8822746  44.8853149  32.7701187  40.6248512  44.4444847
  32.2825356  39.8641090  46.4272194  31.5524483  39.1407776  46.7903595
  33.6980934  39.4649582  46.7969894  34.3360863  40.3370018  46.6534309
  33.6900749  39.0049820  47.7851486  34.0952568  38.6829491  46.1498260
  32.0907478  41.1735687  47.2258415  32.4496574  41.2069397  48.2545166
  32.6581535  41.8990402  46.6428833  31.0582771  41.4852333  47.0678215
  32.4146805  38.5679512  44.2815933  33.4299049  38.5096016  43.6213989
  31.5290813  37.5881920  44.5291786  30.6701260  37.9347153  44.9319420
  31.3827667  36.3045731  43.8607330  31.6767540  36.3748169  42.8134766
  32.3044281  35.3146667  44.5788803  32.2250786  34.3838615  44.0172729
  33.2693253  35.8216629  44.5841408  31.8664684  34.9517326  46.0174179
  30.9491978  35.5066795  46.2142677  31.5809727  33.9006653  45.9743919
  32.7587090  35.2674980  47.1737061  33.9289818  35.4770699  47.0542412
  32.2877159  35.4232292  48.3493996  32.9350433  35.5437965  49.1152496
  31.3375092  35.3298607  48.6787796  29.9042263  35.8001060  43.8231049
  29.0299015  36.3027420  44.5536270  29.7406597  34.7558899  43.0616417
  30.5550270  34.5650482  42.4955292  28.5368481  33.9936562  43.1436882
  28.1100235  34.1587830  44.1329613  27.4932976  34.5096397  42.1219711
  27.6160564  35.5824356  41.9731827  27.7170792  34.0573654  41.1558113
  26.0155048  34.1783447  42.5276756  25.9922562  33.1077080  42.7308846
  25.7097588  34.7044601  43.4320145  24.7365856  34.4045906  41.2870522
  24.6019516  36.1641426  41.2515945  25.5641727  36.5495338  41.5887871
  24.2940311  36.4951591  40.2597694  23.9071522  36.4095840  42.0547829
  28.7249241  32.4988937  43.2068138  29.6563988  31.9475994  42.6516418
  28.0078659  31.8298283  44.1470108  27.1787605  32.3070641  44.4709435
  28.1382294  30.4421539  44.4336929  28.9916973  29.9931164  43.9257011
  28.2678223  30.1850052  45.9194450  27.3855247  30.6267529  46.3826027
  28.3217449  29.0994854  46.0021400  29.4366531  30.9241409  46.6202698
  30.3365078  30.9289455  46.0051765  29.2379303  32.4121552  46.9836998
  28.2079449  32.4845085  47.3329811  30.0040474  32.7470627  47.6829872
  29.3685455  32.9912033  46.0695038  29.7730103  30.1826820  47.8730049
  30.6871548  30.6776962  48.2007370  28.9380093  30.3053722  48.5628014
  29.9908218  29.1374779  47.6534500  26.8902893  29.7415485  43.8169403
  25.7626038  30.2059002  43.9494171  27.0843754  28.6926479  43.0962448
  28.0331249  28.4034290  42.9056473  25.9877510  27.8666897  42.5061150
  25.0038948  28.0957832  42.9155655  26.0174561  27.8731956  40.9617310
  27.0521526  27.6551399  40.6972389  25.2587528  27.1536484  40.6539612
  25.5915813  29.2801552  40.3586807  24.9885521  29.8286381  41.0823021
  26.7803841  30.1796551  40.0208626  27.2273083  29.9626942  39.0506668
  26.5914612  31.2456532  39.8941536  27.4070225  30.1658192  40.9126205
  24.7778053  29.1445370  39.0565071  23.8577423  28.5735035  39.1810112
  24.5677948  30.1235123  38.6256905  25.3812237  28.5698414  38.3538589
  26.2143040  26.3976784  43.0688095  27.2943134  25.8865986  43.0232620
  25.0621490  25.8258324  43.4286308  24.2310944  26.3405437  43.6826401
  25.0203724  24.4093151  43.7140961  25.9560680  23.8614635  43.6025963
  24.7907219  24.1999397  45.1951599  25.5855732  24.7581959  45.6897926
  23.8364754  24.6573544  45.4564743  24.9318199  22.8759174  45.6502609
  24.3561783  22.8077221  46.4154968  23.9117508  23.6809292  42.9337234
  22.9014168  24.3660679  42.5600090  24.1275597  22.4037952  42.6207542
  24.9942036  21.9860268  42.9281616  23.2072277  21.5168610  41.9063835
  22.1907272  21.9089146  41.8728867  23.7214222  21.3614559  40.4403763
  24.7911491  21.1565800  40.4830742  23.2676907  20.4638309  40.0202599
  23.4081631  22.2373581  39.8722534  23.1843414  20.1186180  42.5323448
  24.1793976  19.6266651  43.1062965  21.9839783  19.4933510  42.5717468
  21.1328163  19.7695694  42.1034241  21.8844566  18.0949364  43.0553169
  22.3227272  18.0460072  44.0521240  20.4426823  17.6938934  43.2797661
  20.3120499  16.6119175  43.2605057  19.7721272  18.2017918  44.5456772
  19.8762856  19.2866383  44.5265961  18.6888008  18.1112919  44.4662209
  20.1651745  17.8009911  45.4800110  19.6474113  17.9743309  42.1463814
  19.6576118  17.1870995  41.5970497  22.6881351  16.9809875  42.2479477
  22.6366291  17.0595703  40.9997787  23.1397018  15.9012060  42.9084740
  23.4119072  15.8231497  44.3950348  22.5554104  16.1345882  44.9929619
  24.2859631  16.4302349  44.6307755  23.8682919  14.4083757  44.6133118
  23.0630608  13.7093277  44.8392220  24.5564175  14.5281010  45.4501228
  24.5413189  14.0820265  43.3592873  24.5111427  13.0138865  43.1441917
  25.6095428  14.2945166  43.4022865  23.9759369  14.9534998  42.2309723
  24.8612995  15.3840971  41.7631912  23.2167988  14.0944281  41.1956520
  23.7255630  13.1692610  40.6624718  21.9524994  14.4028206  40.9806137
  21.5707283  15.1056366  41.5973816  21.1168308  13.8534431  39.9445076
  21.5313911  12.9213686  39.5604782  19.6853180  13.4470243  40.4309311
  19.2379322  12.9401855  39.5759087  19.7520046  12.6885118  41.2108727
  18.7963543  14.5537481  40.9611626  19.2756538  15.6660519  41.1996765
  17.6241302  14.3028536  41.3011856  20.9916325  14.7107706  38.6458626
  20.1566772  14.3380537  37.7561722  21.8961582  15.7157536  38.5584679
  22.3453522  15.9849472  39.4221001  21.9344196  16.6416264  37.3871422
  21.1537991  16.4713554  36.6456947  21.7061138  18.0369682  37.9533348
  22.5577888  18.2899952  38.5847855  21.7520409  18.6892166  37.0812340
  20.3361511  18.4815502  38.5952721  20.2852993  18.0454845  39.5929489
  20.2240143  20.0409317  38.7919121  21.2136593  20.3750896  39.1034279
  19.7904758  20.4443092  37.8767967  19.4633484  20.2317257  39.5489349
  19.1607761  18.0602875  37.7574425  18.2469807  18.5559177  38.0852165
  19.2961121  18.3281746  36.7095795  18.9373226  17.0021839  37.8937721
  23.3119373  16.6125813  36.7631836  24.2606106  16.8145828  37.5718117
  23.3799038  16.5828342  35.3662376  22.5008488  16.3932190  34.9064445
  24.6318054  16.2865868  34.7187042  25.5063515  16.6227455  35.2757301
  24.7731953  14.7463150  34.6289749  23.8884659  14.4461451  34.0675011
  25.7248440  14.4741621  34.1724701  24.7791576  13.9929752  35.9855652
  25.6798306  14.0931377  37.0536880  26.2993450  14.8877163  37.1240196
  25.2544155  13.3289614  38.0966148  25.5435963  13.5275621  39.1180496
  24.1656342  12.6864767  37.7394638  23.6178741  12.1579638  38.4033394
  23.8183270  13.0528784  36.4256554  22.9929161  12.8126945  35.7718849
  24.6616001  16.8343773  33.2695732  25.7477798  16.7013226  32.6345901
  23.5435276  17.2973804  32.7550774  22.7540531  17.4410820  33.3684120
  23.4870720  17.8693180  31.4140453  23.7768631  17.1671753  30.6323051
  22.0755196  18.3028488  31.2803688  21.4608517  17.4043522  31.3350449
  21.8835468  18.8786983  32.1857109  21.8764725  18.9001446  30.3905849
  24.4059639  19.0960693  31.0784302  24.8813877  19.1566048  29.9767590
  24.5829926  20.0238171  32.0742722  24.2628651  19.9283237  33.0274239
  25.2023487  21.3333378  31.8495750  26.1819744  21.1687546  31.4008617
  24.3149090  22.2401447  31.0127239  23.9841385  21.7129192  30.1178856
  23.0208149  22.5920448  31.7318859  22.2957802  23.1432724  31.1330681
  22.6486473  21.6079350  32.0167007  23.1733265  23.2112980  32.6158333
  25.0589886  23.5236301  30.5874939  25.2900963  24.1803913  31.4261551
  26.0147057  23.2023640  30.1733704  24.4526634  24.0011616  29.8177948
  25.5432396  22.0309772  33.1489067  24.8162212  21.9177036  34.1343651
  26.6754112  22.7057266  33.2364731  27.2769012  22.8564415  32.4392281
  27.0722504  23.5943584  34.3543587  27.0149612  23.0658817  35.3059502
  28.4828072  24.0929527  34.1050529  28.5053596  24.7245102  33.2169533
  28.7033405  24.8495502  34.8580627  29.5630302  23.1152458  34.2355270
  29.5743160  22.0934238  35.2021332  28.8050041  22.0467472  35.9586945
  30.6265430  21.1688900  35.2462769  30.7372532  20.4652157  36.0580597
  31.7239799  21.2674656  34.3098335  32.6068916  20.6472054  34.2635651
  31.7074661  22.3739624  33.4581413  32.5251541  22.3884125  32.7527504
  30.6499500  23.2410374  33.3566742  30.6690369  23.8773327  32.4842224
  26.1680222  24.8566036  34.4676933  26.1236591  25.6723843  33.4879646
  25.4167786  25.1494045  35.5570641  25.3303738  24.1687508  36.7029686
  26.1868324  24.3285027  37.3579941  25.1973953  23.1522732  36.3325768
  23.9641914  24.5023899  37.3406448  24.0424423  24.2888680  38.4066582
  23.2733879  23.8648205  36.7889214  23.7800331  26.0157242  37.0678177
  24.3847580  26.4488716  37.8645554  22.7577286  26.3399582  37.2624092
  24.3773460  26.2526646  35.6463852  23.6198235  26.0592022  34.8868942
  24.9928570  27.6284142  35.4578438  24.3495731  28.5860004  35.1357460
  26.2707806  27.7740879  35.9065590  26.6180172  26.9804382  36.4258347
  27.1235428  28.9486198  35.8059692  26.5856533  29.7106876  36.3699074
  28.4510403  28.5724659  36.4680672  28.2332592  28.1628761  37.4544258
  28.9788055  27.8653488  35.8281021  28.9573383  29.5243759  36.6281509
  27.2849712  29.5809174  34.4261665  27.5836391  30.7585697  34.2432213
  27.1017380  28.8184910  33.4015656  27.0189266  27.8330059  33.6066551
  26.9251690  29.2055645  32.0132751  27.8056774  29.8033600  31.7778091
  26.8467884  27.9243984  31.1991234  27.7991657  27.3976994  31.2597370
  26.1374416  27.2082119  31.6138573  26.5664463  28.1449394  29.7698193
  25.5680122  28.5576820  29.6253452  27.1805725  28.9446430  29.3557777
  26.7659740  26.8582516  28.8730888  27.7624149  26.4199467  28.9287434
  26.0215855  26.1319160  29.1993103  26.6025620  27.2636261  27.4513397
  25.6562424  27.8041153  27.4300632  27.4152050  27.9119854  27.1237125
  26.5392437  26.0717735  26.6132145  26.2826977  26.3577003  25.6791191
  27.3092690  25.4483547  26.8094616  25.7407513  25.5974998  27.0101719
  25.7994576  30.2310371  31.7543430  25.9318523  31.2058086  30.9949398
  24.7734337  30.2158279  32.6463089  24.8044300  29.5048218  33.3629761
  23.7129898  31.2466984  32.8614845  23.2745018  31.5384083  31.9071617
  22.5467911  30.6302223  33.6630211  22.4974041  29.5510654  33.5178223
  22.6727524  30.8664150  34.7196426  21.6028519  31.0876198  33.3665886
  24.2390270  32.5472946  33.4637756  23.7025852  33.6282463  33.1765556
  25.4103298  32.5720367  34.1242104  25.8019295  31.6789112  34.3870354
  26.0069866  33.8822403  34.6524048  25.2120056  34.5811920  34.9123497
  26.8022461  33.6114464  35.9151764  27.6700211  32.9631691  35.7934952
  27.3826733  34.9815025  36.4328995  28.1304779  35.4130745  35.7675934
  26.4868717  35.6015930  36.4665146  27.7311974  34.9222260  37.4639778
  26.0306702  32.8065796  36.9278221  25.2436295  33.4196815  37.3668747
  25.6081142  31.8872871  36.5222969  26.6219273  32.6510429  37.8302231
  26.7964211  34.5436707  33.5345383  26.4415913  35.6891518  33.2419052
  27.7632923  33.8886986  32.9092789  27.8249683  32.9164581  33.1758156
  28.5030251  34.5853043  31.8606205  28.9435959  35.5510979  32.1080971
  29.7429123  33.7316589  31.5607681  29.5044041  32.7766418  31.0926285
  30.3391838  34.1663322  30.7585106  30.8082542  33.4273148  32.6547623
  31.3146400  34.3621025  32.8952866  30.3126831  33.0091629  33.5309258
  31.8840179  32.5105209  32.1449318  31.4406261  31.5701332  31.8175449
  32.3154068  32.8562202  31.2055149  32.8953629  32.1642342  33.0718498
  32.8114586  32.5317001  34.0088806  33.8925400  31.2564888  32.8782272
  34.1134987  30.7087421  31.6804295  33.4909973  30.9547958  30.9240913
  34.7792854  29.9547615  31.5891037  34.6277924  30.9332008  33.8908081
  35.3526077  30.2323017  33.8317413  34.5155144  31.4912605  34.7251129
  27.5599823  34.9596214  30.6157570  28.0696011  35.6812630  29.7781105
  26.3018837  34.4511299  30.5689449  25.9877567  33.8498039  31.3171673
  25.2556763  34.9141579  29.6333256  25.6524925  34.9856110  28.6206398
  24.1856899  33.8030777  29.5243206  24.7805309  32.9678078  29.1547356
  23.8474312  33.6291351  30.5458031  22.8843727  34.0884705  28.6547451
  22.1985378  33.2434387  28.7151642  22.3986416  34.9677277  29.0779209
  23.1806908  34.3846016  27.1941204  24.0176315  33.6766968  26.5730457
  22.5911140  35.2890892  26.5690861  24.6673794  36.2916985  29.9858074
  24.2011662  36.9576073  29.0351944  24.6880722  36.7759781  31.2607536
  25.0530949  36.1800194  31.9899254  24.1069279  38.0283203  31.5836391
  23.2928677  38.3112526  30.9162827  23.4962101  37.9594765  33.0039101
  24.3151779  37.6526031  33.6544647  23.2101498  38.9648628  33.3128891
  22.3337841  36.9890442  33.2731667  22.5953922  35.9713707  32.9833412
  22.0798798  37.1231880  34.8104401  21.3592949  36.4099083  35.2105560
  23.0335999  36.8534470  35.2640419  21.8230534  38.1527290  35.0598145
  21.0939522  37.5340652  32.4783516  20.2684612  36.9589310  32.8977509
  20.8730907  38.5892487  32.6393166  21.3081951  37.5058060  31.4099884
  25.1462994  39.1172714  31.5997982  26.2550907  39.0178604  32.1553192
  24.7743263  40.3142815  31.1053066  23.8843842  40.3930626  30.6342411
  25.6838646  41.4924011  30.8694630  26.3829384  41.1240540  30.1186504
  24.8914890  42.5820923  30.0802116  24.4466972  42.1133041  29.2024307
  24.0614128  42.9505196  30.6829872  25.8032341  43.6531715  29.7528572
  26.5193462  43.4060593  29.1631794  26.4541531  41.9629021  32.0549431
  25.8971653  42.2212257  33.1068573  27.7844296  41.8541679  31.9041786
  28.0860825  41.1707802  31.2244072  28.7674313  42.2968559  32.8780098
  29.6321354  42.5432281  32.2618217  28.5080185  43.2354927  33.3676643
  29.2155514  41.1760941  33.8774261  30.2723389  41.1446724  34.5179939
  28.3655128  40.2304993  34.1298752  27.5453835  40.2323265  33.5403938
  28.5632153  39.1751060  35.0671768  28.8820114  39.5875092  36.0244560
  27.2463379  38.4138298  35.2612839  27.0616951  37.9872894  34.2753448
  27.4753704  37.5726662  35.9155655  26.0867138  39.2143211  35.8189735
  25.1336212  39.9028511  35.0906029  25.1307144  40.0670891  34.0231667
  24.2086964  40.4293404  35.9599304  23.3547707  40.8720398  35.6518288
  24.5721722  40.2684174  37.2929688  23.9771919  40.6695557  38.4793282
  23.2046051  41.4218407  38.5391884  24.2777405  39.9753265  39.6252632
  23.8549786  40.2044106  40.5923157  25.3932152  39.0215073  39.6622505
  25.6228294  38.5334091  40.5979004  26.1262913  38.7383347  38.4604301
  26.9365292  38.0243645  38.4477806  25.6487522  39.2960052  37.2286415
  29.6384201  38.1308670  34.7089767  29.9440365  37.2761574  35.5063705
  30.3021278  38.2443352  33.5390587  29.9076672  38.9057426  32.8855743
  31.5821323  37.6335907  33.1442757  31.6114998  36.5440178  33.1524696
  31.8110142  38.1025162  31.7426281  32.6621246  37.5323105  31.3703671
  30.9611988  37.7340317  31.1680527  32.0791893  39.6000595  31.3500462
  31.2840843  40.1993637  31.7936001  32.9739304  39.8684082  31.9117641
  32.2640381  39.9460411  29.8751259  32.6665764  39.1728210  28.9997959
  31.9496193  41.1961021  29.4713039  31.9252815  41.9756927  30.1129837
  32.1561127  41.4025841  28.5044384  32.7503700  38.1107788  34.0501404
  33.7833176  37.4001656  34.1121178  32.6770172  39.2415733  34.6345520
  31.8269081  39.7864151  34.6582413  33.6788330  39.8454170  35.6118431
  34.6455688  39.4638824  35.2832794  33.6114311  41.3974190  35.4805603
  32.5788307  41.5426407  35.7979660  34.3114014  41.7915268  36.2173233
  33.7895088  41.9220734  34.1238213  34.8893280  41.4865570  33.3681068
  35.5576019  40.7491341  33.7876549  35.1525497  42.1875038  32.1611748
  36.0398407  41.9756737  31.5830383  34.2206078  43.1540413  31.6569977
  34.4397202  43.8169823  30.5040588  35.2248077  43.6752548  29.9700603
  33.0995598  43.5360031  32.4569473  32.4304161  44.3347740  32.1730118
  32.8953171  42.9215012  33.6618156  31.9767342  43.0301857  34.2193031
  33.5114136  39.3454361  37.0347862  34.4355927  39.4012756  37.8810349
  32.3321381  38.7647667  37.3809929  31.5594921  38.7748146  36.7305946
  32.0928993  38.2209053  38.7016220  32.5653877  38.8021469  39.4934616
  30.5468445  38.2171783  38.8951530  30.2066078  37.6742477  38.0133553
  30.0828457  37.4189034  40.1840057  29.2533932  37.8073387  40.7749596
  29.6752968  36.4487610  39.8997002  30.9242287  37.3443184  40.8729286
  29.8899879  39.6828842  38.7082481  28.8220501  39.5502510  38.5349808
  30.0569363  40.2929420  39.5959778  30.3310471  40.2389832  37.8810120
  32.6398582  36.7665405  38.6599007  32.2155914  36.0755959  37.7359734
  33.5597115  36.3557854  39.5787125  34.0781784  37.2131386  40.6288223
  33.2877464  37.5927849  41.2762642  34.6364326  38.0297699  40.1710396
  34.9689865  36.3175774  41.4789619  34.4690552  36.1218147  42.4275627
  35.8975029  36.8676147  41.6319847  35.0737877  34.9577751  40.7947311
  34.9082832  34.1548462  41.5130692  36.1242065  34.9094887  40.5076828
  33.9790840  34.9429321  39.7261314  34.3789062  34.5716705  38.7825203
  32.7987785  34.1118202  40.2903595  32.1314316  34.5200768  41.2602463
  32.4188805  33.0592422  39.6030426  32.7818184  32.9280853  38.6696777
  31.4533386  32.0930023  40.0357399  31.1517391  32.3636780  41.0476036
  30.1043625  32.1136208  39.1669083  29.5067902  31.3234463  39.6214790
  29.4282322  33.3961258  39.1349144  29.5618858  33.9600830  40.0580521
  29.8559246  34.0593567  38.3830452  28.3598156  33.4065437  38.9193230
  30.2411232  31.6797485  37.6989822  30.4482994  30.6096668  37.7096977
  29.2353973  31.6717777  37.2787971  30.9871674  32.2335777  37.1290779
  31.9677811  30.6690178  40.1285782  32.9008789  30.2746716  39.4414673
  31.3232899  29.7891426  40.8795242  30.5731335  30.0518723  41.5026932
  31.7116261  28.3711205  40.9944153  32.2091904  28.1485844  40.0504799
  32.8442879  28.2361717  41.9910507  33.6435013  28.9490528  41.7881737
  32.4863167  28.4781761  43.4795036  31.7713890  27.7228947  43.8058968
  33.3965187  28.5242958  44.0774231  31.9363804  29.4055595  43.6395988
  33.4494591  26.9870949  41.9220848  33.1162186  26.4845276  42.6690636
  30.4799156  27.5623093  41.2512016  29.7293377  27.8279648  42.1334991
  30.3396873  26.5690327  40.3850021  30.8638268  26.6203747  39.5231743
  29.5020180  25.4712334  40.6645660  28.4879055  25.8225098  40.8550453
  29.3790531  24.5308304  39.4799576  30.3830185  24.1343937  39.3283195
  28.6053104  23.7807560  39.6436920  28.8295326  25.4015636  37.9920845
  30.0344753  25.6728611  37.4827652  30.1129436  24.6812592  41.8435860
  31.3416328  24.5358639  41.9626465  29.2006378  23.9594078  42.5402451
  28.2722855  24.3568764  42.5235596  29.5506210  22.8374653  43.4125290
  30.4146175  22.2691116  43.0681648  29.9474106  23.2899914  44.8125076
  30.2552929  22.4434109  45.4261932  30.7692928  23.9567375  44.5516014
  28.8113136  24.0568886  45.4828606  28.1879559  24.4884319  44.6997299
  28.1642971  23.3276577  45.9703979  29.3424969  25.2917805  46.7100639
  29.9742107  26.6027889  45.5387001  30.5743828  27.3014870  46.1215515
  30.6611042  26.0479279  44.8996315  29.0826836  26.9910221  45.0462036
  28.4830208  21.7282238  43.4214592  27.4864941  21.9738846  42.8229637
  28.6467800  20.5645580  44.0425911  29.4781590  20.4099522  44.5948677
  27.5625267  19.4945354  44.2080154  26.7110653  19.6654186  43.5492935
  28.2470150  18.1227570  43.8444862  28.5875721  17.9864159  42.8180656
  29.1297455  18.0321922  44.4774818  27.2840919  16.9791279  44.0396004
  26.5164890  17.3339634  44.7273331  26.8313980  16.7125683  43.0845490
  27.8684673  15.7139034  44.6432648  28.4286938  14.8556852  44.0114136
  27.6073341  15.5372601  45.8901634  27.8233967  14.6369009  46.2936172
  26.9719200  16.1750221  46.3479958  27.0328407  19.6326141  45.6317940
  27.7501678  19.7452221  46.6324806  25.6946526  19.7356167  45.6781540
  25.2773571  19.7670460  44.7589264  24.9014511  19.5084991  46.8954735
  25.1525192  20.3307056  47.5655823  23.3341675  19.6148548  46.5379066
  23.1660328  20.6097374  46.1255493  23.0899830  18.9340038  45.7224770
  22.2423401  19.2564392  47.5464821  21.6029186  18.4807892  47.1250420
  22.7196617  18.9517746  48.4778481  21.4029369  20.4741306  47.8848267
  20.1709080  20.3803711  47.6117859  21.9409676  21.3954754  48.5510826
  25.1298618  18.0808182  47.5620728  25.3906288  17.0667591  46.8753471
  25.1212502  18.0764580  48.8695946  24.8759632  18.9951973  49.2099609
  25.0749092  16.8944550  49.7688370  26.0407887  16.3897591  49.7903061
  24.7136860  17.3236084  51.1880188  25.2143059  18.2590523  51.4378395
  23.6571388  17.5878639  51.1435432  24.9905739  16.3144474  52.3020706
  24.3486557  15.4413033  52.1851921  26.0011005  15.9222021  52.1876945
  24.7528610  17.0355072  53.9112244  25.0490723  15.5336771  54.8459778
  25.2846088  15.8901129  55.8487663  24.1310101  14.9460878  54.8468666
  25.8777409  15.0655174  54.3147202  23.9498787  15.8713980  49.3088188
  22.8094730  16.2782326  49.0687943  24.1692410  14.5114679  49.2451820
  25.1359062  14.2234669  49.1931000  23.2406025  13.4677486  48.9122200
  22.5171394  13.7467566  48.1461525  23.9391327  12.1735401  48.4219742
  24.5762672  12.5688410  47.6308365  24.5096722  11.8319731  49.2856369
  22.9834290  11.1078577  47.8809357  21.7793255  11.4291725  47.5974617
  23.4834652  10.0124474  47.6154366  22.2645969  13.2934189  50.1233063
  22.1606464  12.1835632  50.6409111  21.4096642  14.2691765  50.4710350
  21.5248871  15.2213030  50.1543694  20.4544373  13.9546328  51.5434074
  20.8761806  13.2861748  52.2940063  20.2479935  15.1990156  52.3615990
  19.8985405  15.9961987  51.7054863  19.1350994  15.0745678  53.3224945
  19.1731644  15.9958124  53.9038391  18.1994820  15.0036564  52.7677956
  19.2303085  14.2130260  53.9833908  21.5273666  15.6270227  53.1531906
  21.2835102  16.5923176  53.5968513  21.7015572  14.8746443  53.9223976
  22.4162102  15.8599596  52.5668488  19.1872025  13.3807640  50.9180984
  18.5046902  14.0135241  50.1641045  18.7878246  12.2377539  51.5255547
  19.3493938  11.8406458  52.2651787  17.4752979  11.6058397  51.2972221
  17.4002876  11.4252138  50.2249107  17.3876514  10.2453251  52.0441017
  16.4418125   9.7951965  51.7426453  18.5079041   9.3111649  51.5975151
  19.4821014   9.7946138  51.6704369  18.4092255   8.3660183  52.1314316
  18.4052963   9.0651560  50.5406075  17.3709793  10.4679461  53.4588394
  18.2009239  10.8832006  53.7045135  16.3091640  12.4966459  51.8263397
  16.4144630  13.0934429  52.8876839  15.2002487  12.6277399  51.0656853
  15.1174593  12.0902901  50.2145691  14.1819067  13.6818037  51.2647629
  13.3589287  13.2860050  50.6696587  13.7679548  13.7010546  52.2729149
  14.4840775  15.0162048  50.7560425  13.5628138  15.8538971  50.6352043
  15.8002720  15.3504028  50.4726410  16.5130730  14.6382704  50.5425072
  16.1142941  16.7087994  50.0126381  15.7563810  17.4739056  50.7015610
  17.2018433  16.6983776  49.9403343  15.6028633  17.0274124  48.6663589
  15.3988361  16.1365089  47.9164581  15.2993574  18.3125362  48.3563194
  15.2978201  18.9518909  49.1381912  14.4923115  18.6465435  47.1805191
  13.5706701  18.0695000  47.1050301  13.9034958  20.0713711  47.2952118
  13.1851110  20.0536594  48.1147995  14.6988831  20.7050743  47.6874886
  13.2212324  20.6407051  46.0211716  13.7580662  20.4412670  45.0937347
  11.8460331  19.9996204  45.6761398  11.3477383  20.4262371  44.8056259
  11.9469004  18.9191284  45.5738525  11.1762190  20.1962128  46.5132790
  12.9517603  22.1358681  46.1045914  12.3240967  22.3216763  46.9761505
  13.9001360  22.6374321  46.2972565  12.5068483  22.4175320  45.1502228
  15.4187689  18.3575211  45.9665108  16.4136600  19.0874557  45.6578484
  15.1269503  17.2452145  45.1952133  14.3111210  16.6831837  45.3917961
  15.8537979  16.6800652  43.9969902  16.9012260  16.5487041  44.2685356
  15.3738260  15.2646332  43.6669159  14.3596878  15.0437984  43.9998627
  15.4329185  15.0439653  42.6011200  16.2506218  14.2875099  44.4319229
  17.3032246  14.1505260  44.1842041  16.1215305  14.5380840  45.4848480
  15.5606737  12.8951502  44.4109192  16.0872955  12.1688032  45.0299454
  14.6054554  12.9449272  44.9335861  15.5315609  12.1385298  43.0696793
  15.0007725  11.1872597  43.1077576  14.9861012  12.7777958  42.3754807
  16.9117393  11.9778843  42.4694977  16.9512043  11.2176867  41.8056908
  17.2701378  12.8659420  42.1485481  17.6056519  11.7308064  43.1605415
  15.7562943  17.6105938  42.8146248  14.9488621  18.5181427  42.8351707
  16.5321693  17.4377251  41.8040314  17.2484341  16.7535686  42.0015221
  16.6079636  18.2119083  40.5784264  17.6055183  17.9746056  40.2087326
  15.4889622  17.8563957  39.5329857  14.5747547  18.2130165  40.0074844
  15.7415295  18.3470840  38.5930214  15.2750416  16.4199085  39.1303101
  16.1147919  15.8697872  38.7057076  15.1172152  15.9005032  40.0755157
  14.1483269  16.2528343  38.1844330  13.3399200  16.9029236  38.5190430
  14.5117140  16.6119576  37.2215843  13.8036795  14.7423973  38.2589607
  14.6547956  14.1115694  38.0025253  13.5372095  14.5465508  39.2975845
  12.6856813  14.4734325  37.2848358  11.7150631  14.6638222  37.4891701
  12.8404922  14.8865891  36.3763008  12.6304483  13.4787445  37.1185646
  16.7020950  19.7193203  40.8701134  16.1981773  20.5550079  40.1545601
  17.4465828  20.0353107  41.9421005  17.9581261  19.2891159  42.3911209
  17.5531139  21.3623562  42.4624672  16.7622890  21.9428101  41.9873123
  17.1846428  21.3519459  43.9366074  16.3552132  20.6718655  44.1306038
  17.9835739  20.9512482  44.5605125  16.6253529  22.8994923  44.7714081
  15.5314760  23.1350994  44.0414619  18.9144840  21.9960785  42.1165810
  19.9494953  21.4037991  41.9590225  18.8042450  23.3338127  41.8164024
  17.9469967  23.8307533  41.6207581  19.9251194  24.2125721  41.6441994
  20.9216785  23.7717819  41.6701660  19.7911415  24.9012222  40.2411156
  18.8341217  25.4122391  40.1358833  20.8692379  26.0176620  40.1644821
  20.7102680  26.7095451  40.9916077  21.8191566  25.4832878  40.1786041
  20.7222137  26.5494328  39.2244301  19.8931866  23.9296379  39.0325089
  19.8949108  24.6235199  38.1918983  20.7754536  23.2969151  39.1293221
  18.7369900  23.0408974  38.6091614  18.6177368  22.1712780  39.2554169
  17.8676548  23.6983624  38.5993996  19.0259018  22.4782429  37.7214394
  19.7566776  25.2949772  42.8040466  18.7583637  25.9867744  42.7923622
  20.7719250  25.4983921  43.6621361  21.5848999  24.9312267  43.4684792
  20.7832050  26.6047440  44.6739616  19.8274765  27.1150799  44.5546341
  20.8224144  26.0784531  46.1080742  21.8708229  25.8509235  46.3008690
  20.5582504  26.9204941  46.7478371  19.8773212  24.8668461  46.4286194
  18.9039192  25.0923882  45.9930496  20.2844296  24.0248833  45.8687401
  19.7499199  24.5065651  47.9285583  20.7203865  24.5565071  48.4223213
  19.1411457  25.2315159  48.4688797  19.1804581  23.1837502  48.0311317
  19.7661819  22.4756298  47.6120987  18.2674274  22.7347488  48.8319855
  17.4637222  23.4605885  49.6000519  16.8558846  22.9207516  50.1993980
  17.7238903  24.4035282  49.8516083  18.1732368  21.4514236  49.0648270
  17.3858604  21.2323265  49.6582336  18.9095917  20.8419228  48.7386475
  21.8549290  27.7126465  44.2948837  22.8472652  27.4501934  43.6009941
  21.5990601  28.9050217  44.7350998  20.6868401  29.0754356  45.1337433
  22.3598881  30.0845394  44.3512344  23.3566093  29.8038464  44.0108528
  21.6643524  30.9452629  43.2269478  20.6091995  31.1035595  43.4498711
  22.3657761  32.2926407  42.9311066  22.2749844  32.9339409  43.8077965
  23.4068661  32.0869789  42.6822357  21.8564014  32.8080521  42.1168671
  21.6029472  30.2289295  41.8204651  20.8051510  30.6696072  41.2226143
  22.5881996  30.2795448  41.3569832  21.3031864  29.1954575  41.9941902
  22.5520267  30.9490433  45.5234756  21.6086006  31.3405209  46.2289047
  23.7878647  31.4977322  45.6856308  24.4741974  31.2277813  44.9955788
  24.1690998  32.4567871  46.7126617  23.2251282  32.9376869  46.9690857
  24.8285599  31.7604752  47.9390450  24.1549911  30.9212627  48.1126213
  25.7801609  31.3097000  47.6573448  24.9298630  32.7060547  49.1513329
  25.7352715  33.4381943  49.0931740  24.0088673  33.2881660  49.1831169
  25.0035610  31.8024120  50.7133751  26.6671104  30.9855804  50.5388794
  27.4484138  31.7456245  50.5399551  26.9609528  30.3329601  51.3609772
  26.7164707  30.4207306  49.6079559  25.0654526  33.5389175  46.1846313
  26.1015625  33.3245163  45.5845337  24.6541920  34.7772141  46.3610840
  23.8916149  34.9289780  47.0057106  25.3876648  36.0199966  45.8654518
  26.1620827  35.7214203  45.1588898  24.3359432  36.8282814  45.0343475
  23.9156933  36.1666603  44.2768860  23.5168896  37.1173668  45.6928902
  24.7803211  38.1607513  44.4412613  24.7897511  38.9125748  45.2304230
  25.7989616  38.0367508  44.0737076  23.6433544  38.8222275  43.0965309
  22.4967327  39.8022728  44.1969147  23.1228542  40.6002769  44.5959854
  21.6921501  40.2659988  43.6262093  22.1585846  39.0236359  44.8806458
  25.9470005  36.8879776  47.0005836  25.1734123  37.3055916  47.8530312
  27.2629681  37.1840286  46.9300728  27.8336086  36.5604553  46.3772392
  27.9621124  37.9603348  48.0124245  27.2915440  37.9897079  48.8712463
  29.1936855  37.3344040  48.3745422  30.0003567  37.4589348  47.6521339
  29.7288513  37.7671852  49.7488441  28.9419022  37.5261993  50.4634972
  30.6950264  37.2983818  49.9354744  29.7704868  38.8525505  49.8402748
  28.9769344  35.9647293  48.6353493  28.2807751  35.9890556  49.2959328
  28.1451454  39.4034004  47.5797806  28.9197044  39.6879539  46.6948318
  27.2233086  40.3033218  47.9368668  26.7678699  40.0858955  48.8117371
  26.9389172  41.6207962  47.3309135  27.7241230  41.8758736  46.6192284
  25.6375656  41.7038536  46.6048203  25.7913761  41.1748543  45.6642876
  24.5336971  40.9970322  47.3366585  24.8439217  39.9575920  47.4435349
  24.3583450  41.4092827  48.3303413  23.6809406  41.0724907  46.6619644
  25.1206970  43.1070709  46.3571777  25.9015083  43.6494560  45.8240242
  24.2664547  43.0244522  45.6852074  24.8702393  43.7009087  47.2362328
  27.1837769  42.6685066  48.4523735  26.9071579  42.4722519  49.6564903
  27.6946468  43.8616142  48.0341187  27.8685322  43.9701881  47.0451393
  27.8566036  45.0692139  48.8606148  28.0186405  44.7439499  49.8882561
  29.1717682  45.8396034  48.4285088  29.8873863  45.0204582  48.3578453
  28.9994011  46.3877068  47.5022392  29.6612244  46.9431496  49.3719292
  28.8680515  47.6907883  49.3755646  29.9196167  46.4597435  50.3140831
  30.9064922  47.6737556  48.7805939  31.8389854  47.8233910  49.5196915
  31.0696659  48.0921860  47.5403633  31.9190426  48.4883919  47.1639519
  30.3611183  47.9212418  46.8411903  26.5384560  45.8931198  48.8439445
  26.0801888  46.2999573  47.7227783  26.0146255  46.2308311  50.0658875
  26.4750881  45.9984360  50.9342575  24.5837059  46.6557541  50.2007866
  24.4919434  47.3793373  49.3907814  23.5531883  45.5885162  49.9607277
  23.7722874  45.0039787  49.0671883  23.2814941  44.6568336  51.1352997
  22.9096737  45.1711540  52.0214806  22.4552631  43.9870758  50.8968277
  24.1524105  44.1282768  51.5229149  22.3018570  46.2118759  49.6974297
  21.7638798  45.7453232  49.0536079  24.3078995  47.4595909  51.5164757
  24.6728668  47.1298561  52.6498528  23.5347004  48.5223274  51.2991180
  23.2636757  48.7105789  50.3445473  22.9597549  49.3048439  52.3268661
  23.6905212  49.3522758  53.1342278  22.7319469  50.7834740  51.8780899
  22.3376122  50.8000793  50.8620567  21.9919014  51.2141685  52.5525818
  23.9609756  51.6853371  52.0185242  24.7440777  51.4542351  52.9020844
  24.0851212  52.6746902  51.2830811  21.7724800  48.7181244  53.0930328
  21.4813480  49.0790558  54.2301102  21.0790901  47.7024498  52.5019684
  21.3350792  47.5571327  51.5358124  19.8651161  47.1266556  53.0536232
  19.1677742  47.8899536  53.3988571  19.1292057  46.3412666  51.9737320
  19.7882652  45.5847816  51.5477371  17.8451500  45.6192055  52.5710411
  18.1398602  44.7918205  53.2165489  17.2989826  46.4230461  53.0646439
  17.2232933  45.2584534  51.7517433  18.5736103  47.4085960  51.0224495
  17.9632969  46.9487267  50.2451820  17.9845486  48.0902290  51.6360321
  19.4001045  47.8359222  50.4546432  20.0765610  46.2507553  54.3083000
  21.0348148  45.4685097  54.3040886  19.3081512  46.4832153  55.3504105
  18.4101124  47.6102562  55.6265182  17.4141483  47.3170433  55.2945862
  18.6217651  48.5998840  55.2216110  18.4485588  47.6913872  57.1508331
  17.5904598  48.1208153  57.6678963  19.4085693  48.1178322  57.4417381
  18.5522594  46.2267303  57.5614777  17.5684013  45.8155441  57.3355331
  18.8274956  46.1000099  58.6085167  19.4850235  45.7029419  56.5727119
  20.5199203  45.7648964  56.9092445  19.3452435  44.1645088  56.4131927
  18.7558632  43.7614365  55.3527679  19.8215179  43.3772621  57.3461647
  20.3198261  43.6648712  58.1762695  19.9469681  41.9466400  57.0613022
  20.4933720  41.7176247  56.1463776  20.7439632  41.2826347  58.1451912
  21.5251465  41.9733658  58.4625931  20.1106186  41.1920815  59.0276718
  21.1785736  39.8618431  57.9667664  20.3453693  39.2142754  57.6937714
  21.8624573  39.8256531  57.1187744  21.8758373  39.1380768  59.1222153
  21.2312984  38.8751526  60.1171875  23.1554260  38.8494377  59.0408630
  23.5699787  38.6170197  59.9320641  23.8144131  38.9017792  58.2772560
  18.6109791  41.2665634  56.8668098  18.4615612  40.3734894  56.0162926
  17.5241241  41.6762543  57.5001526  17.5471973  42.3932648  58.2111168
  16.1569920  41.0502930  57.2933578  16.3481274  40.0679398  56.8614273
  15.4389343  41.0002289  58.6781197  14.5183277  40.5009422  58.3759689
  16.0786095  40.3840103  59.3099403  15.0449915  42.3844833  59.2954330
  14.4705238  42.4497108  60.4513321  15.5054245  43.4569969  58.7626991
  15.2439699  41.6621895  56.1908379  14.2472658  41.0724106  55.7850189
  15.6964607  42.8410454  55.6289444  16.4925041  43.3487625  55.9876060
  14.9809046  43.5023842  54.5754585  13.8951607  43.4592972  54.6615067
  15.4130259  44.9972534  54.5283127  16.4898357  45.1383629  54.6214371
  15.1871080  45.5432739  53.6123848  14.8134832  45.8232460  55.7167091
  15.5135860  45.6179161  56.5265236  14.9074631  46.8685913  55.4225616
  13.4712706  45.3779755  56.1452675  12.3947086  45.6320457  55.5190773
  13.4230919  44.7187347  57.2822266  14.2713795  44.3959312  57.7252922
  12.5222511  44.3856697  57.5947342  15.3272648  42.9027100  53.1942749
  14.5047159  42.9264336  52.3330917  16.5579033  42.2720947  53.0025101
  17.1573315  42.3617401  53.8104362  17.0858002  41.6338692  51.7945900
  17.2785606  42.3725243  51.0165596  18.4620266  40.9727669  52.0933533
  18.2949524  40.3842087  52.9954529  18.8417244  39.9603424  51.0145721
  18.0539150  39.2532234  50.7548752  18.9563465  40.5772896  50.1233139
  19.8192196  39.4959831  51.1448212  19.5712662  42.0573807  52.2783051
  19.5521278  42.8404198  51.5202942  19.3250809  42.5242081  53.2320137
  20.9548988  41.4859238  52.5245628  21.4679317  41.0560036  51.6642914
  21.6027012  42.2223320  53.0001221  20.8680286  40.6933975  53.2678337
  16.0288506  40.6895676  51.2154427  15.2696257  40.0483627  51.9463043
  15.8929148  40.6135902  49.8958435  16.4507637  41.1026764  49.2104950
  14.8497496  39.7171478  49.1842346  14.0655212  39.4542427  49.8941422
  14.1772175  40.3087845  47.9427910  14.9525957  40.9193420  47.4800758
  13.8758259  39.5517464  47.2188034  13.0497704  41.1510162  48.3694382
  13.4522877  41.7677803  49.1729851  12.7587042  41.8544350  47.5893211
  11.8134785  40.3781624  48.8744354  12.1871080  39.5050583  49.4094048
  11.2664375  41.0786247  49.5054665  10.8386459  39.8772354  47.8562546
  11.1901159  39.8434219  46.9099846   9.6108599  39.4480019  48.0008354
   9.0215998  39.2959900  49.1368675   8.0423985  39.0491676  49.1182632
   9.4651442  39.6512985  49.9718056   8.9798317  38.9445190  46.9514389
   7.9893856  38.7561951  47.0119400   9.4542961  39.0888252  46.0715790
  15.5243931  38.3550529  48.7281227  16.4056091  38.3148003  47.8702316
  15.0485191  37.2626266  49.3259773  14.3130989  37.3921967  50.0060272
  15.4958954  36.0087051  48.9453049  16.4715862  36.0383186  48.4602776
  15.6849613  35.2254486  50.2423096  14.7468014  35.1146622  50.7860756
  15.9920235  34.1909256  50.0887527  16.8110580  35.8656693  51.1082039
  18.1705685  35.8724937  50.7153854  18.7990189  36.5979881  51.6220589
  19.8536091  36.7873421  51.7576904  17.9303799  37.0136642  52.5966034
  18.2084923  37.5423775  53.4109840  16.6972828  36.5371895  52.3306770
  15.8317013  36.7645988  52.9352036  14.4814386  35.4744606  47.9629135
  13.2524614  35.7918549  47.9808655  14.9418859  34.5085640  47.0966377
  15.9139071  34.2714195  47.2346115  14.2329531  34.1471443  45.8155174
  13.2474241  34.5678558  46.0151138  14.8246298  34.8212242  44.5796776
  15.7689314  34.2989120  44.4260826  14.0646515  34.4552879  43.3222389
  14.1931705  33.4167900  43.0171127  12.9975958  34.6194191  43.4724083
  14.4834185  35.0598602  42.5177269  14.9056864  36.3441048  44.6520805
  14.0263815  36.5538177  45.2611313  15.8001165  36.5658569  45.2342529
  14.7524481  36.8738174  43.7118530  14.0461092  32.6734314  45.5888367
  14.9896526  31.9223061  45.3855972  12.8026114  32.2263412  45.6567421
  12.0564051  32.8722458  45.8714142  12.4094143  30.7808647  45.6517487
  13.3025036  30.2465935  45.3276405  12.0591888  30.3129387  47.0255890
  11.3097906  30.8658371  47.5919876  11.5988140  29.3287373  46.9389381
  13.2976856  30.2538414  47.8781662  13.7300634  31.3779278  48.6342239
  13.0955915  32.2487221  48.5596428  14.9373989  31.4118443  49.3388710
  15.4988708  32.2482681  49.7281609  15.6870747  30.1953182  49.3029976
  16.8569832  30.1822128  49.8933411  16.9778767  29.2714329  50.1716652
  15.2108631  29.0094795  48.6295853  15.7969952  28.1024456  48.6176720
  14.0408440  29.0664349  47.8425217  13.6448727  28.1817379  47.3661575
  11.3653574  30.5356674  44.5852242  10.2713633  31.1032734  44.6885834
  11.5673513  29.6785240  43.5779762  12.4470024  29.1865978  43.5122299
  10.6739149  29.4545650  42.4083443   9.6721039  29.8250732  42.6256256
  11.2083120  30.1465378  41.1929474  12.1064329  29.5960369  40.9128990
  10.5076437  29.9660187  40.3777275  11.5818472  31.6540852  41.3593254
  12.1430073  31.9377747  42.2496758  12.4098949  32.0072174  40.1474495
  12.9816904  32.9170303  40.3301849  13.0769939  31.1585865  39.9960976
  11.6782074  32.2411575  39.3741417  10.3393822  32.4614944  41.4011536
  10.4876451  33.5213127  41.6082726   9.6390791  32.2762756  40.5866776
   9.7623663  32.0086746  42.2074432  10.4232101  27.9474182  42.2258720
  10.9437275  27.0855923  42.9000435   9.4920559  27.6161003  41.3236885
   8.9982758  28.3721352  40.8712578   9.1853790  26.2783012  40.8944931
   8.3478184  26.3333931  40.1991043  10.3838806  25.6077995  40.1108017
  11.2327414  25.5202484  40.7889404   9.9830151  24.6692600  39.7279778
  10.9404612  26.4804153  38.9563751  11.3788290  27.3928337  39.3606415
  11.8414345  25.9765282  38.6064568   9.9753237  26.7170162  37.8018913
   9.2858734  25.7495499  37.3252678   9.7707796  27.8765011  37.3845673
   8.7399626  25.4358864  42.0914955   7.9060659  25.8909931  42.8995094
   9.2709455  24.2436123  42.3119087   9.8795433  23.8640041  41.6008492
   8.9668255  23.4811764  43.5709648   7.9294076  23.7370071  43.7864075
   9.1071272  21.9451904  43.3926468  10.0008316  21.5879040  42.8810425
   8.9721756  21.4886093  44.3731689   7.9103141  21.4761124  42.5357475
   7.0418687  21.3044147  43.1716919   7.8147354  22.1338310  41.6718216
   8.2673159  20.0652657  42.0922928   9.2034340  20.0437984  41.5343323
   8.4777594  19.5203476  43.0125542   7.1644349  19.3414593  41.2582664
   6.2479672  19.1044483  41.7986488   6.8845057  20.0309105  40.4617729
   7.7141051  18.2192116  40.5965881   8.0044851  17.4638748  41.2009430
   7.0663066  17.8739891  39.9028397   8.5175171  18.5499802  40.0815887
   9.7565088  23.9583378  44.7516098   9.4123411  23.6539059  45.9146767
  10.8674374  24.6729641  44.5915947  10.9550657  25.0413895  43.6552773
  11.7062969  25.1247673  45.6455536  11.8338614  24.3314323  46.3820686
  13.1024628  25.5857277  45.0851097  13.6774588  24.6899109  44.8506088
  12.9415646  26.1629505  44.1745987  13.6163321  26.1898956  45.8327904
  11.0053368  26.3309040  46.4144554  11.5780745  26.6793079  47.4438820
   9.8322821  26.8124256  45.9418030   9.4368486  26.4697342  45.0779190
   8.9650307  27.7776470  46.6911659   9.4153233  28.7671089  46.6117821
   7.6590338  27.8387661  46.0041084   7.3197761  26.8380909  45.7364235
   6.4352474  28.5323677  46.7018127   5.8974991  27.8463058  47.3562241
   6.7614465  29.4262352  47.2335052   5.7376165  28.9070110  45.9527779
   7.8883772  28.5965290  44.6843910   6.9832058  28.7672844  44.1016350
   8.2219257  29.6025620  44.9388351   8.6531658  28.1542511  44.0459595
   8.8077173  27.3823357  48.1543503   8.7242699  28.2868023  48.9564438
   8.7362423  26.0793858  48.5767174   8.8712921  25.3436432  47.8980827
   8.5141811  25.5573311  49.9043846   7.6873970  26.0695496  50.3964920
   7.9723101  24.1436977  49.8530731   7.5903277  23.8526001  50.8315659
   6.7169876  24.1746864  48.8842354   6.8284736  24.3202820  47.8097687
   6.2316418  23.2194748  49.0845146   6.1130667  25.0494289  49.1254921
   9.0930367  23.1520481  49.4669838   9.9938030  23.2775497  50.0677910
   8.7097130  22.1543789  49.6810417   9.3193760  23.2210732  48.4029808
   9.7731771  25.6281910  50.7966919   9.6476040  25.3763599  51.9753227
  10.9834461  26.0910587  50.3342094  11.0844688  26.2296009  49.3388710
  12.1188078  26.3235683  51.2033653  12.1000557  25.6306076  52.0445328
  13.3909578  26.1336823  50.4322472  13.4090014  26.9588165  49.7202568
  14.2040253  26.3131466  51.1356773  13.5373764  24.8477879  49.5033340
  12.6273870  24.5033588  49.0120201  14.6767664  25.0417080  48.4996834
  14.3566122  25.8484840  47.8403473  15.5871677  25.3673210  49.0029182
  15.0586777  24.1192646  48.0622559  13.9461689  23.5715847  50.2853699
  13.1171684  23.3030910  50.9401741  13.8132162  22.7727604  49.5557785
  14.8402567  23.6995392  50.8955688  12.2578459  27.7636070  51.7508087
  13.0550871  28.0295925  52.6669083  11.5414057  28.7136726  51.2054443
  10.7876530  28.3697414  50.6278038  11.6701126  30.1585445  51.3408508
  12.6007824  30.4299812  50.8425713  10.5158167  30.7707596  50.4326935
  10.8112421  31.7897339  50.1826630  10.5437765  30.2949600  49.4524231
   9.0600786  30.8596134  50.9305840   8.7485399  29.8443947  51.1763000
   8.9793520  31.4526329  51.8415794   8.0437145  31.4128704  49.8796082
   8.4161196  32.4072762  49.6334953   8.0871906  30.9476452  48.8948364
   6.6139288  31.5077610  50.2500648   6.2549291  32.4365158  50.4192734
   5.8293653  30.4360619  50.1892891   6.2208147  29.2031593  49.8859520
   7.1775479  28.9966164  49.6367531   5.5255589  28.4725037  49.9394455
   4.5373130  30.5658970  50.4186516   3.8303115  29.8733578  50.2170525
   4.2003036  31.5166454  50.4696808  11.6064243  30.6884804  52.8012161
  10.6364584  30.3339939  53.5507736  12.6330080  31.4437656  53.2955170
  13.7331591  31.8732986  52.5058479  13.3292551  32.5441208  51.7475853
  14.1759529  31.0140476  52.0021400  14.6995058  32.5918465  53.4710617
  15.1381922  33.4765930  53.0096817  15.4091730  31.8334770  53.8017426
  13.7986670  32.9404068  54.6851845  13.2821426  33.8964462  54.5997696
  14.3433027  32.9874077  55.6281929  12.6915655  31.8504086  54.7207985
  13.1648684  31.0040531  55.2185631  11.3262215  32.3462181  55.2895470
  11.1163797  32.1422691  56.4840546  10.4483547  33.0248032  54.4668503
  10.9188776  33.2319984  53.5974960   9.1480846  33.5533752  54.8523178
   9.2518892  34.4760437  55.4232864   8.3299894  33.9357262  53.5707626
   8.8871775  34.6819420  53.0043678   8.2157097  33.0174980  52.9946556
   7.0005774  34.4922676  53.9186783   7.0092063  35.4310646  54.7493782
   5.9972034  34.0431519  53.4189758   8.3855333  32.5353584  55.7013893
   7.6464877  32.9299812  56.6196823   8.4770603  31.1975346  55.4114532
   9.0811548  30.8928337  54.6615677   7.8957000  30.1247101  56.2524185
   6.8225951  30.2893009  56.1551781   8.0731153  28.7482510  55.5612373
   9.1207914  28.4777584  55.6928139   7.4899116  27.9649296  56.0453644
   7.6818595  28.7370453  54.0106087   8.1040325  29.6163635  53.5241203
   8.3193483  27.5172901  53.3708382   8.1601067  27.5997467  52.2956886
   9.3912516  27.4724026  53.5634689   7.8703399  26.6022720  53.7571564
   6.1666965  28.6864967  53.8684998   5.7274957  27.8091240  54.3432808
   5.7377815  29.6300869  54.2057991   5.9037719  28.6393013  52.8117409
   8.2372036  30.0666084  57.7021942   7.4362054  30.2665386  58.6128311
   9.5464573  29.8230610  57.9355965  10.1793842  29.3851757  57.2815590
  10.2257633  29.8321457  59.2136574   9.7327890  29.1294613  59.8854561
  11.7531023  29.5265331  59.0824432  12.1916285  30.0870380  58.2568321
  12.3576088  29.8349991  59.9353905  11.9242315  28.1448078  58.9784241
  12.8373308  28.0526791  58.6967125  10.1480236  31.1755886  59.9031029
   9.6637564  31.3258152  61.0118217  10.5562096  32.2542992  59.2233009
  10.7176199  32.1564560  58.2310944  10.5264378  33.6532135  59.7558861
  11.1931143  33.6236954  60.6177254  11.1514425  34.5890884  58.6806984
  10.6234818  34.5265427  57.7291489  10.9375305  35.6036339  59.0169144
  12.6150522  34.5492210  58.4230156  12.9545832  33.5667114  58.0951576
  12.9349728  35.5908203  57.3506241  12.4619951  36.5489044  57.5662079
  14.0166330  35.6393929  57.2251167  12.4237833  35.2732697  56.4418106
  13.5243711  34.9085693  59.6959648  14.5012150  35.2148743  59.3217278
  13.1103754  35.7025223  60.3175316  13.6433496  34.0455017  60.3509941
   9.0780621  33.9692917  60.2742386   8.9776325  34.5397186  61.4323730
   8.0239897  33.6261406  59.5219841   8.1573000  33.4363594  58.5389748
   6.6363244  33.7470703  59.9842110   6.4584274  34.7584343  60.3497238
   5.6114912  33.5791092  58.8078613   5.7540412  32.5715942  58.4171028
   4.1903181  34.0044136  59.3336411   3.9703400  33.4145737  60.2234726
   4.2615771  35.0471611  59.6430016   3.4545066  33.7034836  58.5879059
   5.9613342  34.6007385  57.8311195   6.7025614  34.1943283  57.3761330
   6.3973341  32.8912964  61.1906319   5.8887024  33.3924026  62.1924629
   6.6710052  31.6001282  61.1703873   7.2045827  31.2777653  60.3757324
   6.4549794  30.6957207  62.3742676   5.3767281  30.6418819  62.5245552
   6.9181037  29.2604351  61.9993782   6.7536840  29.0497036  60.9426575
   7.9853725  29.1803188  62.2058182   6.1532369  28.1450348  62.6907349
   6.2067785  28.3835239  63.7529755   5.0809298  28.2859268  62.5550613
   6.4658303  26.7374611  62.3790207   6.1596828  26.5368023  61.3523216
   7.5228877  26.4934559  62.4848099   5.7205591  25.8069019  63.3569489
   5.9785447  25.9350853  64.4081955   4.6529121  26.0217571  63.3114891
   5.9061604  24.4155369  63.0026245   6.8338981  24.0695782  63.2019310
   5.3571224  23.9604454  63.7178535   5.5635796  24.0881939  62.1106682
   7.1547413  31.1169701  63.7198677   6.6354136  30.8872280  64.8211212
   8.3125353  31.8108635  63.5482101   8.6318378  31.8393078  62.5904350
   9.2695971  32.2795334  64.6681290   9.5454731  31.3915234  65.2368393
  10.5989971  32.8886108  64.0433807  10.3112526  33.6545143  63.3231735
  11.2282925  33.3399277  64.8104630  11.4997244  31.8310680  63.4340630
  11.3217173  30.6175556  63.6245651  12.5209627  32.2376518  62.7206535
  12.8201399  33.1988945  62.8019218  13.1220255  31.5652313  62.2660408
   8.6595879  33.4131508  65.5931473   9.0097637  33.6287689  66.7881927
   7.6843925  34.1573830  65.0177231   7.3538303  33.9842110  64.0791931
   7.0347881  35.2927933  65.6731949   7.3908453  35.4250755  66.6948776
   7.3701844  36.6058578  64.9405212   6.8454447  37.4116020  65.4538727
   8.9129276  36.9537163  64.9808578   9.0781908  37.9681320  64.6178818
   9.2616367  36.9319458  66.0133438   9.4866228  36.2833252  64.3408966
   6.7902007  36.4678230  63.6643257   5.9852619  36.9878044  63.7217484
   5.5302577  35.1078568  65.8911819   5.0119977  35.5320435  66.9818497
   4.8191566  34.6458893  64.7882767   5.4036980  34.5102806  63.9758644
   3.3910708  34.5069466  64.6938171   2.8607550  34.8728142  65.5730286
   2.8302057  35.3131638  63.4653206   3.5069296  35.3386345  62.6112137
   1.9337804  34.8773880  63.0241508   2.3932509  36.7617302  63.7768097
   1.9362179  37.2463531  62.9140472   1.5914326  36.7869720  64.5147476
   3.4504745  37.6893120  64.4147034   3.1085663  38.2590065  65.4943466
   4.5304375  37.9335556  63.8733978   2.9875515  32.9739075  64.7059555
   3.4892333  32.0603638  64.0678482   1.8270798  32.8518257  65.3927612
   1.2883731  33.6822357  65.5935440   1.1726657  31.5500336  65.6789703
   2.0133145  30.8573666  65.7192688   0.3847399  31.6520863  67.0222168
   1.1549164  31.9371605  67.7389221  -0.3801196  32.4256859  66.9541397
  -0.1787195  30.3173447  67.6084366  -0.8976460  29.9569187  66.8726807
   0.8471952  29.1857071  67.7470856   1.2140614  28.8852215  66.7656479
   1.6357021  29.5702705  68.3939743   0.4089294  28.3614464  68.3097839
  -0.8004722  30.6153584  68.9518738  -0.0034257  30.8741455  69.6488953
  -1.5624024  31.3903980  68.8689423  -1.2593899  29.7368965  69.4055252
   0.2114088  31.0857887  64.5803680   0.1310417  29.9375763  64.2532043
  -0.5325119  31.9226952  64.0076370  34.8651619  27.0347290  33.3254967
  34.3731575  26.9552574  32.3584709  35.8847885  27.4129086  33.3551102
  34.1981010  26.7968006  34.4768867  34.9629440  26.9874249  35.7684059
  34.3625946  26.9157715  36.8546104  36.1239700  27.2831726  35.7508430
  32.8825035  26.2556477  34.4619751  31.7333565  27.0695324  34.1794090
  30.8691578  26.5659370  34.6296768  31.4445610  27.0887413  32.6532707
  31.7966919  26.2468586  32.0610161  30.7385330  28.1450939  32.1062164
  30.3836727  29.2712898  32.8870430  29.7234230  29.9956703  32.4140320
  30.9664536  29.4881668  34.1186867  30.7884388  30.4018307  34.6817627
  31.7972260  28.4852390  34.7252884  32.8055267  28.8958302  34.5913315
  31.6446171  28.4978428  36.1885681  31.8377628  27.5772114  36.4372864
  30.4203644  28.0416489  30.6184711  30.8497963  27.1150436  29.9501953
  29.9647350  28.9833565  29.9848042  42.2499046  19.5297699  56.9361572
  42.8196335  18.6592751  56.6180840  42.7321320  20.2501144  57.5934944
  40.9511948  19.7537746  56.4937172  40.1200600  20.9137402  56.9394112
  40.6624222  21.8755627  57.4661140  38.9121552  20.9098854  56.6484184
  40.3686371  18.8476028  55.6118889  40.5284081  19.0026321  54.1808739
  40.0527458  18.2205753  53.5764542  41.9889603  19.1765938  53.9704018
  42.6080132  18.2978764  53.8026009  42.5772018  20.4013309  54.0270309
  41.7709770  21.6684551  54.0004807  42.2739983  22.6331215  54.0284958
  40.4445114  21.6274757  53.8973618  39.9208450  22.5727406  54.0230064
  39.7005386  20.3253536  53.6680222  38.7996178  20.5108433  54.2656326
  39.2825851  20.2578659  52.2954903  38.3166771  20.3750591  52.2996178
  44.0539436  20.4569740  53.8901558  44.6718216  19.4030151  53.9100533
  44.5391655  21.5417404  53.7547569  15.6694565  25.5785332  53.4487762
  15.2450638  26.5785370  53.3903198  15.3398666  25.0056686  54.3129082
  16.6520138  25.2674313  52.5093918  17.1511574  26.3359966  51.5335464
  16.7876797  27.4834671  51.5703506  18.0179482  26.0368443  50.6870842
  17.2598515  24.0144253  52.3831825  17.5233154  23.1342640  53.4711380
  18.2834568  22.4563980  53.0638657  16.3321781  22.2855759  53.8462944
  15.5945644  22.2570419  53.0471497  16.1376038  21.6237278  55.0274200
  17.2289791  21.8090477  55.9889412  17.4265442  20.9994183  56.6888466
  18.0784359  22.8564625  55.8410950  18.8631630  23.1259899  56.5447197
  18.1473999  23.8224506  54.6882172  17.6537647  24.7515907  54.9984016
  19.5395756  24.1073532  54.3464355  19.9747276  24.6947327  54.9885864
  14.9170599  20.8658180  55.3506508  14.6124496  20.3384514  56.4242210
  14.0785007  20.8323784  54.4726448  43.9076271   5.2645206  80.9218369
   3.9761348  67.1136627  19.7887592  60.3139343   7.3402996  22.0873623
  31.4288673  51.9977036  28.6708679  10.9664068  19.5300179  16.3014374
  75.1502380  60.9813995  33.5785561  13.7509546  45.1875267  36.1603165
  21.6466904  29.2682800  15.8644743  82.7767334  28.2388000  66.2847519
  10.3447466   7.5515103  48.8956528  10.4756155   7.5112443  49.8430099
   9.4355574   7.2808671  48.7677460  14.0048704  45.6486549   1.1157204
  13.6974211  46.3674164   1.6680681  13.2191715  45.3408279   0.6638891
  10.0507469  71.0230942  29.3141766   9.3220596  70.4700165  29.0324821
   9.7681675  71.9143448  29.1091270  24.0766220  62.2159615  65.1931686
  23.4469852  61.5725250  64.8679352  24.1741695  62.0072060  66.1222229
  31.8261013  10.9899845  80.4705276  32.3472366  10.8763809  81.2653427
  31.0579453  10.4352837  80.6064529  68.1981812  10.5310230  53.4927330
  68.1854477  10.1814346  52.6017456  68.8869095  11.1956358  53.4794350
  42.9988937  11.6068687  12.0090342  43.6955910  11.1253204  11.5629892
  43.3065758  12.5131273  12.0252037  28.3835659  11.1502695  11.4819422
  29.1451130  11.4333572  11.9880438  27.8291340  11.9286709  11.4278231
  55.7988358  37.8920288  55.1925850  55.8295288  36.9531364  55.0088310
  54.9413109  38.0293999  55.5950966  51.7137871  28.1472473  35.6214142
  51.2010880  28.4165592  36.3835411  52.6156311  28.1108570  35.9401436
  46.1847763  13.2260761  18.9251480  46.6340256  12.9703674  18.1195316
  46.8029938  13.0096979  19.6231575  49.1106796  59.8136864  49.4841805
  49.6808243  59.9601593  50.2389755  48.2243156  59.8422966  49.8444176
  55.4324188  59.8288498   6.9557748  56.0292473  60.5759735   6.9985242
  55.8142891  59.1829338   7.5500832  50.1636276  55.3808861  68.5253754
  51.0214996  55.5896111  68.8951263  50.3408585  54.6956596  67.8809433
  33.4278450  38.9051285  88.0803299  32.7831535  38.2037392  87.9872665
  34.1290245  38.6680260  87.4734039  64.3012619  51.4604988  75.2169724
  64.2950897  50.8864975  74.4510040  63.3768730  51.5770073  75.4364243
  83.1812820  59.2411652  35.1052856  83.5580597  59.0903969  34.2383690
  82.2416153  59.3298492  34.9459229  45.2409897  50.0151291  66.9985504
  45.1119499  49.9753456  67.9461746  45.4097290  49.1086502  66.7415390
  50.8078613  69.9403763  53.4762077  50.1664734  70.1429977  54.1572342
  51.4736862  69.4170532  53.9223442   9.7635612  43.5152512  26.6858311
  10.6512108  43.5049400  27.0438862   9.2292366  43.8988686  27.3812199
  41.9263573  24.3791294  87.0411301  42.7847404  24.7014275  86.7662888
  42.1057968  23.8563099  87.8226013  61.1490364  69.3698502  79.7037582
  60.3270569  69.4903030  79.2282867  61.5919838  70.2155533  79.6344376
  48.0321617  34.7996368  10.9643450  47.3447151  35.3529739  11.3351078
  47.6637917  34.4793739  10.1409559  57.1604233  25.7819443  42.0904465
  56.4340134  25.2751846  41.7274628  57.6942177  25.1368961  42.5543518
  31.1112728  47.4824867   4.3015809  31.8536739  46.9189606   4.0835991
  30.9783325  47.3510475   5.2403474  57.2648544  11.9520311  78.3220444
  57.6650658  12.1514578  77.4757004  56.3990479  11.6079636  78.1024323
  69.3011932   5.0744610  18.9822884  68.8407669   4.6620331  18.2514381
  69.1212158   4.5052953  19.7305489  79.6070862  27.4563370  12.1769390
  79.4329758  28.3508301  12.4698524  80.2714615  27.1305218  12.7841244
   3.6918654  48.6203575  41.5451851   4.5657959  48.4050751  41.8709602
   3.4841506  49.4606056  41.9539299  20.1673698   0.5540741  63.4249840
  20.5828400   1.2527744  63.9303894  19.3300343   0.9251278  63.1467400
  82.9153595  50.1370659  76.4804306  83.7012100  50.1667442  77.0261383
  83.2351608  49.8877869  75.6133499  83.5025635   2.9245152  12.1824245
  83.0603561   2.2126756  12.6449966  82.9175186   3.1375835  11.4554062
  67.0575867  22.2454548  24.2802906  66.1297607  22.3097725  24.0539169
  67.3713303  23.1496277  24.2640133  51.4519463  46.1554489  28.9440880
  51.2543564  45.8370552  28.0632820  52.2130737  46.7241783  28.8280468
   2.0044682  30.5101395  85.1761856   2.7893965  31.0438766  85.0527191
   1.3833932  31.0945320  85.6109085  19.3171368  69.8807602  42.0507507
  19.5613632  69.4561005  42.8730927  19.0203533  69.1640320  41.4899826
   5.5458541  27.8334007   4.7035565   4.8367395  27.2240791   4.9087768
   6.2475796  27.2784004   4.3632822  68.8954773  66.1819382  12.0172844
  69.2592468  65.3717270  11.6602707  68.8953247  66.7904282  11.2783804
  44.0792465  40.7071533  83.3123245  43.8019867  41.5102768  82.8714752
  44.1078606  40.9408531  84.2401199  15.3569841  64.7695007  70.3468857
  16.3078880  64.8480072  70.4233551  15.1433229  63.9694672  70.8270111
  51.3004532  70.4683914  66.5058060  51.8742943  71.2222672  66.3694077
  50.4929543  70.8426743  66.8580704  72.7548141  69.6193924  74.5455704
  73.6604233  69.5578766  74.8493958  72.8226700  69.6297073  73.5908279
  74.3295593  25.1115627  17.5104084  73.9999237  24.4638157  16.8875122
  74.1365662  25.9558010  17.1026688  61.8674698  26.8152962  25.3615646
  62.4436684  27.5522575  25.1587963  62.4077682  26.2268486  25.8888588
  28.4528008  21.2587204  11.5680246  27.8263988  21.2002869  12.2894373
  29.1026688  20.5825939  11.7597437   7.7916017  11.7899818  54.8365936
   8.5009384  12.1050138  55.3967972   8.2283163  11.5084505  54.0326958
  64.7604294  49.4964485  86.9968491  63.9997139  49.6304626  86.4315262
  65.1140060  50.3751717  87.1349106   2.8416781  33.3507767  54.3715019
   3.1885483  34.1934738  54.0786247   3.4846289  33.0346832  55.0062714
  62.7644997  66.1864624  54.4462929  62.4533768  66.9017715  53.8915329
  63.6309700  65.9738693  54.0994987  78.8388977  24.1277733  40.6479645
  78.4088669  23.9376965  41.4817314  78.3462601  24.8647804  40.2869186
  41.6010513  27.9092674   8.5399914  41.6278267  27.7421417   9.4821091
  42.1873932  27.2529640   8.1635580  49.6607056  61.2251282  83.0655823
  48.8265228  61.0667610  82.6236649  50.2662621  61.4522095  82.3599091
  78.3454437  17.8427696  80.5072327  78.8612213  18.1744671  81.2422028
  78.8397980  17.0872593  80.1893539  86.7179031  27.1464214  64.4988556
  86.3880768  28.0286274  64.3281021  87.0365372  26.8412571  63.6493988
  68.0217133  55.6284218  68.6716461  68.8714752  56.0690117  68.6676331
  68.1427155  54.8694954  68.1010132  17.6020794  54.1100044  10.6552067
  17.6245403  53.2425613  11.0592737  17.9750137  54.6922760  11.3171062
  59.0746384  34.9045181  76.5961914  59.7962875  34.8805084  75.9677963
  58.8079338  33.9899902  76.6896820  74.6886292  30.2372971  42.0846672
  73.9179153  30.6174469  42.5062332  74.4366379  30.1418800  41.1661758
  59.4117432  40.3393784  13.3932953  58.4567070  40.3566704  13.3312836
  59.7130280  40.5646858  12.5131283  58.2564812   8.0358171  15.7410641
  58.8195343   8.8098974  15.7405424  57.9136848   7.9895921  16.6335812
  58.7970314  28.6065521  69.7717361  58.5467453  27.7131882  70.0072937
  59.7283096  28.6589508  69.9867020  77.1800156   4.9129539  34.5909615
  77.4760666   5.7857981  34.8492737  76.5457001   4.6662555  35.2640266
  77.1435928  70.5873489  67.9705582  77.1797028  69.6412811  68.1115265
  77.7064056  70.7379990  67.2110977  26.7982655  57.1676559  51.2777061
  26.1771431  56.4420204  51.3400879  27.2146988  57.0536995  50.4234047
  84.6164398   0.7135102  21.7991772  84.4006500   1.6183540  22.0248356
  84.3866196   0.6362613  20.8731937  37.4198914   1.8329884   2.6266556
  38.1322517   1.2280935   2.8337212  37.6594696   2.6462469   3.0710030
  23.8351288  38.5805359  27.0914326  23.6829166  37.9744186  27.8164749
  23.7585716  39.4494629  27.4855576  37.5721626  69.2492218   1.7742255
  37.3971977  69.8529205   1.0523062  37.5503769  68.3812561   1.3712478
  24.7363949  60.7202835  46.0521126  24.4680157  61.6126404  46.2709846
  23.9531517  60.1909523  46.2023544  61.0955048  50.7692909  88.0254288
  60.8396454  50.1887589  88.7421951  61.7595215  51.3432083  88.4074402
  18.7560749  11.4326992  73.8151474  19.5577011  11.1009150  74.2195587
  18.0495663  10.9911747  74.2864609   6.0743771  67.1472168  81.1422043
   5.1221604  67.2447205  81.1449738   6.3652773  67.6582565  80.3869247
   4.7338629  50.5161285  71.1486511   3.9911864  51.1106339  71.0426941
   4.3704867  49.6466370  70.9807968   4.8253002  36.2044182  80.5712814
   4.6364293  36.2816925  79.6360855   5.6846819  36.6125870  80.6765976
  74.9542160  54.3107338  82.2957458  74.3933868  54.9411125  81.8437119
  74.6071320  54.2774925  83.1871796  15.4558563  33.2536697  27.0928783
  14.7670717  33.4832802  26.4691105  16.2289314  33.0993309  26.5499535
   9.7330637   3.2630396  12.1928606   9.4224644   2.4304910  11.8370199
  10.5726662   3.0508878  12.6006489  24.4228172  51.0781059  13.1923056
  23.8790798  50.7866631  13.9241810  24.1092052  50.5704117  12.4438896
  82.7464523  59.1523476  47.3773117  81.9663620  59.0189781  47.9157372
  83.2432861  59.8279915  47.8387108  31.3146305  49.0133018  75.8201065
  30.5363026  49.0306282  76.3770065  31.2864799  48.1557655  75.3957596
  49.4060555  60.1164818  52.5663757  48.4919357  60.2183914  52.8313866
  49.5694313  59.1752625  52.6267738  62.6570435  20.1050816  60.0753059
  63.0152206  19.8177395  60.9151726  63.4267845  20.2787228  59.5334740
  29.2861233  33.7885132  27.0802574  28.6638794  33.0993347  27.3127975
  30.1459408  33.3951454  27.2292805  85.5338974  34.7500076  47.3031998
  85.8475037  34.6976051  48.2060509  84.5845566  34.6495628  47.3731956
  69.8355942  64.2811279  41.6782494  70.1404343  64.5198135  40.8028450
  69.4251099  65.0778198  42.0144272  38.5930099  67.6642075   8.9400396
  38.4761543  66.9414749   9.5566740  38.3296089  68.4426956   9.4307613
  83.6889954   3.3967135  18.7420292  83.6946106   3.7753792  17.8629322
  82.7978287   3.5420196  19.0597229  15.4283161  58.6604500  85.5509338
  16.0617828  58.1215401  85.0770874  15.2580881  59.3993874  84.9667892
  79.2631149   4.9620709  11.7658100  78.5289764   5.3748460  11.3109655
  79.7070618   5.6849003  12.2092772  32.1499023  70.6658783  22.6700039
  31.9725914  69.7339172  22.5425549  32.4200821  70.9785538  21.8065968
  72.2885590  36.3751488  86.8881836  71.6516342  36.1343613  87.5609207
  72.1174850  35.7680855  86.1681519  55.1308708  45.2666359  58.0002785
  55.2577972  45.1474037  57.0590553  54.9513779  44.3865547  58.3311386
  12.8987474  66.8462067  58.0513878  12.0628347  66.8473282  57.5850372
  13.0604553  65.9241104  58.2509232  46.2972603  20.3534260   3.7702909
  45.9353371  19.5334282   3.4343643  45.9554291  21.0254688   3.1805930
   3.1120327  62.4598618  87.5876541   2.5363164  63.2243729  87.6049957
   3.9768627  62.8158646  87.3837891  79.8653336  59.0608826  77.3439789
  79.6815186  59.8509636  77.8521347  80.5190353  58.5902214  77.8610687
  77.2354813  53.9007835  87.1868668  77.3343124  53.0786781  86.7066498
  76.5615692  53.7164459  87.8411560  42.6948891  70.3996887   2.9045179
  41.8998985  70.9279099   2.9766552  42.8765144  70.1166306   3.8006887
   3.8493199  53.0661354   6.3733382   4.6842113  53.1739006   5.9177341
   3.7751510  52.1227646   6.5174904  85.1785355  26.1512890  37.4654808
  85.1688690  26.1072216  36.5093422  84.3011398  25.8719807  37.7270012
   6.7442832  25.1622772  87.3852234   6.0764389  25.8039131  87.1433182
   6.3219957  24.3141155  87.2491074  42.9225121  47.9506035  68.6649017
  43.4500275  47.1621590  68.5371780  42.1479721  47.8114433  68.1199646
  20.3715897  52.9123611  19.7272396  20.8470440  53.7395782  19.6505108
  19.6935139  53.0855217  20.3802814   2.6530972  39.8308640  25.0750389
   3.3849483  39.5453987  25.6219730   3.0643420  40.1469307  24.2705460
  50.1607132  40.4500580  66.6849747  49.9350166  40.8484116  67.5255737
  49.9818954  41.1343231  66.0399628  28.3774109  59.2550621   8.7115507
  29.3028717  59.1780472   8.4795513  27.9186954  59.2504311   7.8714375
   1.2019955  15.4520597  81.3924408   2.0241077  15.7718019  81.0207825
   1.4699739  14.8088026  82.0486755   6.7245636  18.2816792  17.1949558
   6.6092415  18.1142216  18.1303120   6.8086729  17.4118004  16.8044853
  72.1306381  35.9585991  82.7642288  72.1969604  35.5387611  81.9065781
  71.4285507  36.6012459  82.6626587  62.7105255   3.9751570  60.7057381
  62.8164139   3.7294209  61.6247749  61.9056511   4.4929113  60.6874542
  18.1801186  42.5136375  88.5923767  18.0642033  43.4472923  88.4160614
  18.3922958  42.4705124  89.5247726  64.8523331  50.8899536  65.9135056
  63.9543877  50.6596451  65.6750031  65.0671234  51.6325417  65.3490143
   2.6981416  20.3104229  89.1343384   2.5422165  20.6338062  88.2470169
   3.5250411  20.7159176  89.3951874  46.3263168   1.8532172  79.2347336
  46.8373871   1.1090659  78.9164963  45.4850311   1.7759652  78.7847290
  34.5850639  45.5866394  68.2170944  34.4713745  46.0157738  69.0651245
  35.5257530  45.6369934  68.0473862  44.4643936   3.8166289   1.6575593
  43.7178345   4.1155825   2.1767056  44.4123611   4.3251576   0.8482861
  10.2784252  46.3639946  36.9839172  10.4146690  47.3094673  36.9226608
  10.8060331  46.0941887  37.7356262  73.2801056  56.3846703  80.7508163
  73.8634415  56.2252426  80.0088348  73.3268814  57.3300285  80.8934479
  44.1336327  55.7352295  62.8279991  44.1406212  56.6341248  62.4991074
  44.4691124  55.2113876  62.1004868  11.7026291  56.8565216  36.3088570
  12.4172602  56.2714310  36.0574532  11.4821558  56.5949440  37.2028389
  30.4198875  50.7186356  46.2394829  30.5491734  51.3571281  46.9407997
  29.8245544  50.0691566  46.6136322  10.4725389  27.3926392   8.4145803
  10.2337322  26.5135708   8.1205673  10.0598078  27.9779587   7.7795329
  29.2672081  60.5250931  85.4850311  29.5498619  60.6612930  84.5807114
  29.8669128  61.0587578  86.0063705   7.3788185  46.2260513   4.1459198
   7.7626052  46.7374573   3.4335959   7.7391367  45.3467827   4.0306411
   8.6169300  20.0135727  10.5632706   9.0599823  20.7539577  10.9777193
   8.1021738  20.4065266   9.8583984  10.2944822  67.8097610  49.1351128
   9.6250858  68.0002670  48.4779587   9.8648767  67.9849014  49.9723663
  78.7313995  22.2444916  29.7798538  78.9682159  22.7752838  30.5403862
  77.9387360  21.7803764  30.0491428  80.7066269   6.8915153  82.9628983
  80.3309708   6.5896630  82.1358566  80.1321564   6.5246582  83.6349335
  86.5026398  36.9338608  30.8296070  86.5222626  37.8047333  30.4328365
  86.5092087  36.3315353  30.0857029  54.5164795  56.9623985  31.8492870
  55.1228485  56.2219849  31.8676262  55.0040703  57.6605225  31.4121227
   1.5076969  38.9356003  13.0261497   2.0408936  38.1467438  12.9279575
   1.8864657  39.5593452  12.4067078  32.6602745  56.6467972   9.4158430
  32.5011864  55.9737511   8.7540798  33.6013794  56.5995216   9.5841217
  63.1661072  16.3887386  64.4787140  62.2693825  16.5294456  64.7825470
  63.1878586  15.4690514  64.2142639  55.3033981  63.7896996  73.0249176
  55.9503365  63.4425468  72.4107666  55.7783737  64.4555740  73.5221558
   6.2605219  70.7149582  49.8070564   5.6521688  71.1641922  49.2202682
   6.4414334  69.8816376  49.3722229  49.2043877   1.8670824  47.7591782
  49.4586487   2.1415410  48.6402321  49.2596245   2.6656160  47.2342758
  25.8057995  71.1842957  81.9197922  26.3319416  71.5072327  82.6513138
  25.3623772  71.9623718  81.5818405  70.1962051  54.8285103  17.6979733
  71.0835648  55.1348915  17.5109959  70.2247849  53.8885307  17.5194874
  70.1872787  64.0589752  10.7736378  69.2570724  63.9468346  10.5777569
  70.6369019  63.7421379   9.9902534  51.1345901  41.8904686  82.5393143
  50.6917496  41.1024475  82.2244492  50.5599174  42.6093979  82.2763977
  55.5672684  58.2847366  14.9206753  54.6775551  58.4425163  14.6048422
  55.7960014  59.0810585  15.4000349  77.1573410   1.7184317  26.8604794
  78.0726547   1.9466406  26.6981277  76.7473068   2.5433626  27.1204662
   7.5116215  26.3712349  10.6364088   8.3260860  26.3944454  11.1387444
   6.9966288  25.6767216  11.0470963  81.3288269   3.2481782  75.8608704
  80.6708527   3.8276498  76.2449493  81.7962036   3.7993040  75.2331390
  30.2330475  25.7759438   9.3199492  29.6945343  25.5322075  10.0728273
  29.7867489  26.5334244   8.9414377  66.6658707  37.5130463  58.8297119
  66.4707108  36.6543007  58.4546127  66.4976196  37.4091682  59.7662659
  20.1876659   9.1800079  21.0110874  19.9761753   9.4409351  20.1147499
  20.0628529   8.2310228  21.0200577  67.1104660   7.8980231  87.6023407
  66.4027939   7.7592621  88.2317657  67.4904480   7.0289392  87.4737244
  17.9256172  31.8848419  78.8496323  17.7280369  31.0647869  79.3020782
  18.2315140  32.4720802  79.5408707  17.7097435  60.7804642  24.4954052
  17.1923084  59.9912796  24.6556511  18.4224358  60.4882965  23.9271259
  59.3722534   2.3648279  74.2377701  58.7475319   1.7377003  73.8735352
  60.2258720   1.9476911  74.1213226  81.6982956  58.6243629  86.5680695
  81.5070953  57.7642136  86.1941452  80.8460770  58.9589119  86.8473969
  61.6706734   0.6686531   3.2543991  60.8299103   0.9663167   2.9069149
  61.7774734   1.1546664   4.0720887  78.3955765  39.7298927  41.5650711
  78.4066925  39.5824127  42.5107765  77.4798737  39.9224243  41.3634377
  14.7519712  68.6861572  83.3147049  14.5574722  69.5197144  82.8862381
  14.8322535  68.0599976  82.5951767  63.3246460   7.0184617  26.1679859
  62.3756371   6.9089460  26.2281437  63.6507072   6.7598619  27.0299854
  33.8491554  45.9131203  20.1398392  33.5402145  46.7470551  20.4938736
  33.2448883  45.2625504  20.4974060  52.7255707  44.8763428  43.7188644
  53.2634315  44.3445358  44.3054810  52.4480553  45.6187630  44.2555504
  78.0828018  11.1948280   9.0315199  78.2743378  12.0717907   8.6991358
  77.5226669  11.3444195   9.7931681  79.5197372  53.8692360   6.8526731
  78.8396301  53.9817047   6.1885672  79.0748138  54.0409126   7.6826119
   0.7843128  35.1536026  67.2080154   0.4341152  35.7947998  67.8264465
   0.0404938  34.9289894  66.6489868  70.1737823   6.6335859  38.8359833
  70.7539749   7.0129809  38.1759338  70.7365112   6.4936833  39.5975533
  60.2448921  16.2470036  71.3748322  59.5538101  16.8488522  71.0983963
  59.8415794  15.7196970  72.0644073  17.7204819   7.9447079  44.1600380
  16.8388901   8.2935600  44.0283852  17.7746220   7.7795706  45.1013298
  46.1787033   5.7900743  58.3919258  45.3786850   5.6322904  58.8932304
  46.4151459   6.6947336  58.5966644  48.9603996  19.6284599  25.9965248
  48.8160896  19.8793659  26.9089146  49.8312874  19.9676094  25.7897301
  64.1797028   3.6899288  27.6793537  64.5505371   2.8309503  27.4771843
  64.9317780   4.2188692  27.9454975   1.7921497   1.4245967  12.1065741
   0.8789299   1.1480114  12.0306664   2.0417979   1.6734531  11.2166424
  13.0222549  11.9782991  55.8764763  12.9224091  11.4014397  55.1191826
  13.5221233  11.4606190  56.5076447  44.8715782  48.4348717  18.1348114
  44.1191864  47.8432388  18.1243477  44.9913025  48.6863174  17.2190208
  71.3083038  20.1095734   7.0414376  70.8703995  20.0356522   6.1934962
  72.0675354  20.6670647   6.8711176   9.0416212  50.1722832  81.1416702
   8.1337633  50.3529930  81.3853302   8.9753532  49.5717697  80.3992233
  73.2539520  19.2688160  76.8204193  73.9267578  19.0349731  77.4598618
  72.4362640  18.9569492  77.2081909  45.4695740  44.2066917  47.2885971
  45.8476562  45.0382462  47.5746078  45.4165802  43.6806412  48.0865288
  83.1091003  27.2737389  89.0104141  82.7391281  27.6937180  89.7869263
  82.4643402  27.4339581  88.3213196  52.3536186  13.4303551  25.7033997
  52.0052299  14.0794506  26.3145733  52.6537552  13.9441919  24.9536533
  15.4556036  68.6366959  31.2909431  16.3920441  68.6743851  31.4855976
  15.3202534  67.7588120  30.9342613  63.4927597  11.0630407  34.5155296
  64.3472824  10.9569788  34.9335861  63.6142159  11.7884178  33.9029045
  40.2116127  68.6115036  45.3206062  40.3902283  69.5327606  45.1319160
  40.7685738  68.1294632  44.7093239  10.5709276   7.1679840  52.1199646
  11.4309692   7.0871701  52.5323067   9.9683809   7.3137565  52.8492928
  16.8152466  47.7016678  22.9765491  16.7001972  46.8446655  22.5660095
  16.8171024  47.5188370  23.9161243  45.8000870  34.3239899   0.9853204
  45.4757042  35.1904182   0.7397466  46.0849609  33.9320641   0.1598073
  84.4220963  24.7718792  63.8523903  84.3989258  24.4242687  64.7439423
  83.6756287  24.3614712  63.4158287  46.1667786  27.9226665   9.2905846
  46.9536171  28.4391251   9.4649105  46.3143196  27.0978050   9.7532568
  83.7225952  50.2224808  60.5233688  82.8157043  49.9201126  60.4748192
  83.7352600  50.8230515  61.2686119  10.8291893   5.0650349  15.6883078
  11.5454359   5.5499125  16.0983276  10.3094234   4.7388000  16.4229145
  42.2637062  45.4745064  55.9229202  43.1488152  45.1870613  56.1469536
  42.0200615  44.9353828  55.1704483  50.9988518  68.3881912  27.2247677
  50.0814514  68.4196091  26.9534359  51.4524040  67.9775085  26.4886570
   1.4216336  51.5724297  80.7121506   0.8538328  51.8639603  81.4254837
   2.2819183  51.9320183  80.9285736  84.3761368  51.8442154   6.4652133
  84.0648041  52.5511780   7.0304627  85.1415482  52.2108955   6.0225902
  65.2155914   3.0070500  54.0125427  64.6651077   2.3831265  53.5393410
  64.6285782   3.7335103  54.2220650  76.7175140  10.2767963  18.3563328
  76.4113007   9.9394817  19.1981659  77.3618698  10.9461422  18.5865822
  15.2220573  58.7530479  65.0196457  15.3815308  59.5537910  64.5200348
  15.3143463  59.0191498  65.9344711   1.6601745  56.7208481  47.5965919
   1.1519781  57.5206146  47.4611778   1.0069950  56.0561371  47.8151131
  75.0208740  42.4689522  68.0747223  74.4406967  42.5913544  68.8261566
  74.9214630  41.5454865  67.8432922  63.4742203  70.9598465  69.0547256
  62.6494865  70.6984863  68.6451645  64.1483154  70.6810226  68.4349823
  12.2424183  38.9637032  29.8347301  13.0354328  38.9839516  30.3704071
  11.5300255  38.8585739  30.4653473  69.4166641  30.3499660  50.7368240
  70.2386932  30.6108112  51.1521111  68.9031677  31.1566639  50.6945076
  85.7442627  48.7135429  69.2019043  86.4667664  49.3382263  69.2650604
  86.0348434  48.0764427  68.5492935  27.3973484  51.5952148  62.1795120
  27.3752842  52.5489235  62.1008797  28.3286533  51.3748512  62.1610336
   0.0533077  35.9858513  19.3280716   0.6448847  36.3236122  20.0005207
   0.4784706  36.2103004  18.5003700  40.6942787  12.8316240   9.1658974
  39.8725204  13.0389109   9.6108465  41.2616196  13.5803556   9.3496332
  26.8452854  37.2171555  15.4129562  27.6807098  36.7885971  15.5990629
  26.5152073  37.4815674  16.2716560  78.5836182  18.0615025  87.0890121
  77.8912201  18.1160583  86.4303513  79.3695755  18.3672161  86.6361923
  74.3061905   6.8305078  15.9142704  74.0203171   7.7049327  16.1786442
  73.9457016   6.7163334  15.0349264   9.9772911  14.2278185  67.0963669
  10.3652086  13.4197617  66.7605209   9.9188709  14.8011446  66.3320923
  76.4179688  54.4172325  13.1825418  76.4303055  53.6455917  13.7487993
  75.5765381  54.8352203  13.3655910  36.4037247   2.1703417  10.6434393
  37.1073761   2.1368709  11.2915049  35.8189392   2.8587725  10.9601746
  76.0531387  11.6243076  45.1278839  75.6967010  11.2362957  45.9270287
  76.8346405  12.0947571  45.4179878  79.8009415   9.0596161   9.7571764
  80.7296143   9.2538433   9.8839531  79.4406357   9.8562708   9.3676214
  56.7759819   0.5029815  38.0647545  57.4471245   0.5987482  37.3890114
  56.3938446   1.3766073  38.1483002  80.4365921  61.9948273  36.7525139
  80.1310730  62.4244804  37.5514412  79.6476593  61.6099091  36.3708611
  33.7648849  54.9925385  20.2574272  33.3495407  55.2829971  21.0694313
  34.6415901  55.3756485  20.2864876  10.7303648  47.7441368  54.7964401
  11.4554405  48.3662262  54.8556519  11.1430426  46.8856316  54.8907471
  46.4611511  42.3873138  20.9833107  46.8459320  42.4862900  20.1124611
  46.8755150  43.0726662  21.5075493  53.7336960  38.3371544   9.2755003
  53.8885841  39.2769814   9.1808195  54.0833168  38.1227264  10.1403799
  18.5867710  15.2782249  24.0821743  18.1253052  15.2394228  23.2444534
  18.7587643  16.2100067  24.2179432  13.6139059   6.5177956  53.3068619
  13.1977205   6.3732052  54.1566353  13.8972082   5.6471472  53.0276794
   4.8621058  32.4260941  29.6760674   4.0202622  32.3291664  29.2309437
   5.4957991  32.5401878  28.9677982  30.4795265  27.7212296  73.1626282
  30.1308651  26.9097595  72.7936020  30.2586384  28.3923454  72.5168381
   4.3924074  51.8282051  21.5492229   3.9802797  51.0917931  21.0974712
   4.8434863  51.4303055  22.2938271  69.3215179  64.1268005  36.9201393
  69.7128601  64.5491867  37.6847763  69.4017944  63.1895103  37.0969849
  73.5518036  28.7846069  77.7705154  73.0111160  29.4917355  77.4185791
  74.2601471  29.2322826  78.2331924  38.9802856  66.7534714  86.4436417
  38.9584999  67.4076080  85.7451782  38.0593719  66.5634460  86.6226425
  46.4005928  14.7227373   7.8848600  47.1917877  14.4086018   7.4471860
  46.4140968  15.6706762   7.7527189  14.8332872  20.8292713  67.5287476
  15.4481554  21.5410652  67.7062836  15.3090820  20.0353317  67.7726898
  78.3588943   8.7352095  78.1545868  78.3751526   9.6851387  78.2712173
  78.8159027   8.5877008  77.3265686  34.7530861  10.0466433  85.3549118
  34.4479294  10.8437090  85.7882614  33.9511719   9.5950174  85.0918579
  35.6583672   9.9267521  81.4835281  36.4951286  10.3669691  81.3342819
  35.5706139   9.3227701  80.7461395  85.3374557  23.1934814  41.0919952
  86.2343140  23.4660358  40.8981094  84.9235382  23.1037083  40.2335968
  39.9141083  30.5229874  18.6739521  40.7802353  30.6298027  18.2807064
  39.8313828  29.5804195  18.8187160  50.0055313  -0.0286746  16.3833599
  50.3875275   0.8342420  16.2230892  49.9002380  -0.0712194  17.3337994
  25.5301170  68.3163986  12.2156477  25.4861221  67.6914902  11.4919167
  25.5639668  67.7708359  13.0014296  86.5906448  47.6432686  57.3287125
  85.7836990  47.9339790  57.7536240  86.5190506  47.9678993  56.4310913
  44.7585030  37.9865341  72.9496841  45.4722404  38.6186104  72.8642883
  44.8821831  37.3849716  72.2154846  69.5196686  42.0727196  83.0401459
  69.4674530  42.9963570  82.7943878  69.6229935  42.0835304  83.9916916
  12.1622429   8.8155699  30.6904831  11.3809366   9.1974316  31.0904503
  12.2279987   7.9431067  31.0787048  65.8100891  58.2909775  30.5130672
  65.2031631  58.9152985  30.9106808  66.6640244  58.7202072  30.5659714
  26.3490810  67.9539719  61.8976860  25.5672474  67.5402679  61.5318718
  26.9303780  67.2232666  62.1083908  73.6874008  43.2836342  65.5469818
  74.0953369  42.8150635  66.2751694  72.9072266  43.6863060  65.9283218
  53.4634018  60.2965355  39.8390884  52.8031197  60.9626694  40.0302200
  53.2422485  59.9849815  38.9614449  73.0093613  18.8954315   4.7705331
  73.2923431  19.3908348   4.0019450  73.8049088  18.7865982   5.2915816
  24.7385330  58.4522858  77.9540100  25.3918610  58.5919800  78.6394882
  24.0258465  57.9883118  78.3933716  64.1372528  17.3616600   5.5806956
  63.4414101  16.7458038   5.8103719  63.6776543  18.1739635   5.3681827
  16.8369026  46.8518143  61.6857567  17.5088005  46.6128349  62.3242493
  16.9975224  47.7778244  61.5042610  55.0294075  24.6418285  10.1966228
  55.2348289  25.3037987  10.8567982  55.8414764  24.5381641   9.7006111
  61.4049835  14.5334740  44.4764900  61.9403305  14.1236811  45.1559792
  60.5974808  14.7830505  44.9258080  85.4234085  64.3934097  18.2272625
  85.0367126  64.9063644  18.9368954  84.8373489  63.6432610  18.1270695
  84.6400986  18.3030624  51.5477676  84.3754578  18.4302826  50.6367188
  85.5950546  18.2468376  51.5141678  75.7189941  51.9607315   3.0766296
  74.9840393  51.3474884   3.0752411  76.2961578  51.6412964   3.7702253
  37.5566521  70.5374527  34.0041962  36.8996506  71.1623306  33.6974411
  37.2422180  69.6880112  33.6946487  70.0041733  35.8954773   9.1844406
  70.8624878  35.6223793   8.8604870  69.4600677  35.1113396   9.1115847
  64.5900116  30.2597160  51.7855530  65.3848114  29.7888126  52.0360947
  64.2289810  29.7509537  51.0595665  11.1693468  19.9992161  70.3860092
  10.7944012  19.6433315  69.5804062  10.6978817  19.5508537  71.0880890
  65.1252975  15.2808151  76.5812759  64.4706650  15.3771143  77.2729416
  65.2431564  16.1665554  76.2380447   2.2667027  12.4359474  17.0420551
   2.0597410  11.9781971  16.2272758   2.4521823  11.7368813  17.6690598
  76.3113403  49.5031586  33.3395119  75.9368744  48.8174324  32.7865295
  75.7861938  49.4791946  34.1394348  57.1928520  52.7780418  76.9851761
  58.0551262  53.1855659  76.9036865  57.2569580  52.2372437  77.7723618
  72.5280228  23.7426815  81.1523209  73.2305450  24.1640663  80.6572113
  72.4870453  24.2322044  81.9738541  85.1909332  43.4519424  27.3777847
  84.4743195  43.6200867  26.7658825  85.7080383  44.2573891  27.3681870
  77.9391937   7.3176136  11.0721607  77.2542725   7.9662228  11.2347040
  78.6994476   7.8340120  10.8046236  59.7010651  26.8328438  23.6347103
  60.4024925  26.6854916  24.2691536  59.5155983  25.9646797  23.2767677
  37.1396828   7.8869510  15.3698721  37.0601387   8.8361530  15.4643230
  36.2363930   7.5753670  15.3131638  70.1454163  37.9540939  60.1824722
  70.8588333  37.4632416  59.7746391  69.8836746  37.4184990  60.9313774
  73.5866013  49.6279449  14.6286383  72.6523895  49.4919167  14.4705839
  73.9037323  48.7785988  14.9356756  60.3845177  17.4111195  45.1585426
  59.9239159  18.1593056  45.5384026  61.1145477  17.7990761  44.6760712
  82.7262878   8.3106899  71.0135498  83.1700592   8.8248587  71.6880417
  83.4335098   7.8608036  70.5513000  30.2165089  71.1604156  28.0736771
  29.5733337  71.0882950  28.7789116  30.8053589  71.8597946  28.3571472
  21.1470909  60.0461082  88.4206467  21.0899506  60.7755013  89.0378571
  20.3516674  60.1161461  87.8927917  39.3837090  26.1723404  14.6511145
  38.6687279  25.5496979  14.7828445  39.0189514  27.0159626  14.9184837
  85.4457474  68.1962814  80.3413391  85.3240738  67.6032257  79.5999146
  84.6728897  68.0571747  80.8886642  49.1309662  31.2675877   3.2249575
  48.2174072  31.2860031   3.5100935  49.6331749  31.4557495   4.0178094
  45.8742256  55.6276474  79.5054321  46.5608826  55.7828827  78.8568726
  45.0817909  55.9861832  79.1057587  83.0013733  60.7733688  40.1691780
  82.9751968  59.8433914  40.3943100  82.6800385  60.8108521  39.2683067
  10.8808117  60.4453087  11.8650446  11.7963018  60.7092056  11.7730227
  10.5457640  60.9878197  12.5789471  74.6132050  17.8190155  63.6669846
  73.8318787  17.4785328  64.1026688  75.0727768  18.3096657  64.3483734
  29.4832134  40.8152695  69.7523193  28.6043167  41.0267563  70.0670395
  29.6231594  39.9082260  70.0242081  50.1208305  40.0501137  80.8234177
  49.4876518  39.3322563  80.8225327  50.0373383  40.4441948  79.9551086
   2.6011930  24.5410995  47.3618813   2.5268540  25.4786701  47.5398369
   2.2721093  24.1197777  48.1558723  34.9161491  54.8517876   7.6558132
  34.4143066  54.0441208   7.5459995  35.8306007  54.5759773   7.5930853
  62.4928207   5.1322479  34.8541603  61.8555603   4.6938500  35.4180183
  62.5237389   4.5934572  34.0636063  68.9341965  70.5024033  22.9873543
  68.1070328  70.4862976  22.5059242  69.4098663  69.7339478  22.6719952
  15.8435116   8.1715040  59.1160736  16.3446178   8.1479549  58.3008614
  15.8172283   9.0981932  59.3543739  76.2691498  32.3111420  24.2531776
  76.5329208  33.0433998  23.6959953  76.1927261  31.5691452  23.6533203
  21.5872936  48.0701408  39.5818787  21.2787590  47.7539864  40.4310455
  22.0533257  47.3245125  39.2036171  17.1901150  17.8777943  12.5319071
  16.9324207  18.7782040  12.3341980  17.9983978  17.9654350  13.0371122
  51.0560875  52.7143440  28.9187622  50.7622185  51.8756447  29.2743759
  51.8613968  52.5049171  28.4456348  39.5064659  14.0661201  75.2383804
  39.0565453  13.4201422  74.6938477  40.3945885  14.1018972  74.8831482
  48.4715767  18.4664154  58.5959587  47.5157814  18.5180893  58.5923271
  48.7605057  19.3775311  58.6471519  28.2169571  35.0952339  16.7112312
  27.9243336  34.7354431  15.8738813  28.0473881  34.3974228  17.3441143
  39.8547974  57.2925377  16.4318123  39.1079826  57.5353432  15.8845100
  40.6177635  57.6174850  15.9537697  12.4241762   2.6263621  51.9730034
  12.9638348   2.6040206  51.1827507  11.6515741   3.1322443  51.7212105
  30.0323563  46.9234810   6.7753739  29.3489799  47.3403511   7.3002033
  29.9551601  45.9912682   6.9784832  52.2857475   0.9044451  52.7500648
  52.1049767  -0.0290044  52.8606377  52.1774559   1.0598819  51.8117981
  80.8346100  65.2492371  58.4935112  80.8007584  64.2932663  58.4588242
  81.4057999  65.4418564  59.2370644  85.2611084   9.4219923   8.1294718
  84.5447311   9.7882385   8.6480293  86.0092773   9.9872503   8.3217096
  34.0886497  35.8500671  78.7763138  34.7872810  35.4164581  78.2862854
  33.2921371  35.6520996  78.2837601  74.0246735  37.0737953   3.9586985
  73.1283035  37.0712967   4.2944741  74.1147079  37.9210968   3.5225759
  78.2508698  61.0119667  81.0868149  78.3974762  60.2390671  81.6321259
  77.3005600  61.1266441  81.0844345  37.6046638  26.2592258  17.7827816
  37.6092911  25.4325008  17.3003540  36.8702126  26.1774158  18.3911572
  65.8669739   0.6433161  81.8384628  65.3162079   0.0078177  81.3812637
  66.4475632   0.9887502  81.1603622  50.1685333  17.7580109   3.6738279
  50.0101013  18.2538643   2.8705456  50.2589989  16.8510342   3.3815286
  55.3787727  39.0004196  25.4063644  56.1886253  38.5989265  25.7212830
  54.7053146  38.3396492  25.5678101  61.1253510  36.7581902  17.5220394
  62.0822792  36.7384453  17.5332737  60.8973122  36.7888031  16.5929050
  68.2207489   1.8863175   8.1096134  68.1655655   0.9447516   7.9463964
  67.3687363   2.2269785   7.8371263  32.5808296  24.9088764  76.1121750
  32.4610748  23.9666080  75.9937515  31.7376785  25.2176647  76.4438019
  48.1137619  57.2804298  78.3568268  47.9436531  57.5775299  79.2507095
  47.4720154  57.7484665  77.8226624  69.9636993  58.3021736  81.6617050
  70.2136841  57.4041252  81.4443359  70.0524063  58.7815399  80.8379517
  72.2051086  48.9444046  42.3903885  71.2521896  48.9079590  42.3075905
  72.3583908  49.5133514  43.1447296  15.8086033  46.0292320  59.2689552
  15.6535997  45.1140327  59.0352669  16.1414948  45.9943733  60.1657295
  17.1612473  30.2225494  12.6944084  17.7012997  29.4400940  12.8054800
  16.4058418  30.0749474  13.2634506  50.9292831  31.2610760   7.3451853
  50.4306412  32.0575447   7.1629114  51.7587051  31.3870239   6.8842883
  44.3107109  12.9023066  83.1498108  44.0871735  12.9587326  84.0788269
  44.1163483  11.9958982  82.9113159   8.2238493  44.3167152  86.4218826
   9.1319065  44.5960960  86.3052139   7.7036414  45.0467911  86.0863113
  36.4929619  33.4687881  85.8562164  36.3999252  32.9618187  85.0496445
  37.3969841  33.3168411  86.1316833  43.7172318  58.9441376  60.1919022
  44.1818390  58.7889748  61.0142746  43.8873367  59.8643494  59.9906464
  13.0095196  14.3674269  77.5232086  13.1193666  13.4280634  77.6707306
  13.3061056  14.5048847  76.6235580  75.8280182  71.1380234   8.0330992
  76.0040741  70.3487244   7.5210080  75.1239624  71.5795822   7.5581594
  48.6755104   4.6384311  42.2367439  47.9760818   4.6805267  41.5846252
  49.1098633   5.4893394  42.1773720  63.0802422   5.5869956  76.1540146
  62.8174362   5.9852438  75.3242188  63.6469765   6.2402177  76.5643158
  41.9095993  36.7951164   5.4574866  42.5581894  37.3141670   5.9330387
  41.1468582  37.3693581   5.3889046   5.4036965  71.2254333  87.7514191
   5.7116051  70.5192032  88.3194504   4.4861403  71.0127945  87.5808105
   0.5287449   9.3316698  25.2222691   0.7636219   9.5616655  26.1212502
   0.1072151  10.1182680  24.8761349  58.6097603  32.6264076  58.5077400
  58.7403297  33.5715446  58.5845795  58.7060928  32.4465637  57.5725327
  81.3615494   6.8266044  25.9437561  81.4162140   5.9084182  26.2086697
  81.8751144   6.8742175  25.1373959  42.0571594  14.7457104  74.4578094
  42.6128502  15.0597057  75.1711502  42.2633858  15.3221750  73.7220230
  76.1972885   6.8275232  66.0485306  76.3949890   7.4434109  65.3429642
  77.0544586   6.5358233  66.3590164  25.3379593  58.7601318  88.6267853
  25.1802597  59.6713905  88.8737106  26.0386238  58.4713554  89.2115173
  74.3078766  44.3643341  28.3866138  75.2291183  44.4338799  28.6370430
  73.9177170  45.1885757  28.6775246  36.2017746  45.1275215  11.1247416
  36.7153168  44.7097435  11.8160954  35.7509613  45.8487701  11.5638371
  54.1436348   3.4669728   4.2776794  53.7194366   4.3091321   4.1131959
  53.4470177   2.9124918   4.6291103  27.2619724  68.2870178   7.7305303
  27.9640007  68.8878098   7.9804029  26.6076984  68.8448944   7.3098903
  65.4010849  10.0658464  54.7721367  65.4908524  10.8207874  54.1905556
  66.0843964   9.4599819  54.4853439   4.2548509   0.3442165  13.8227215
   4.2557244   0.4772146  14.7706356   3.4571459   0.7785619  13.5206566
  85.3924103   6.4809847  77.5995712  85.6372223   5.6343837  77.9731522
  86.0773544   7.0805035  77.8956375   8.7470198  58.7326355  19.0734253
   9.4012966  59.3058319  19.4729252   7.9978323  59.3044395  18.9061165
  36.2296257  49.1373253  74.7732086  36.7290993  48.7331810  74.0636826
  35.8215981  48.4008598  75.2285843  67.9188614  37.4757767  10.5721712
  68.0561523  36.5413094  10.4167442  68.2454605  37.9009895   9.7792282
   0.8093016  12.5349865  31.1811924   0.3188478  11.7288465  31.3418941
   0.4680760  12.8609676  30.3484058   1.8219885  13.3275414  23.9338074
   1.0746894  13.6233397  23.4139233   1.5142341  13.3665199  24.8393459
  77.3527603  46.5828056  72.0306473  77.7396393  47.0553436  71.2935867
  77.9889908  45.8979454  72.2365799  79.4175644  55.7704277  25.7656689
  78.5205612  55.5739326  26.0358753  79.4086533  55.6690140  24.8138981
   9.6097660  34.5850830   7.2592258   9.2373505  35.3622665   7.6757846
  10.1155691  34.1609344   7.9524031  49.7780991  59.2337036   3.4269512
  50.5782394  59.5163231   2.9840848  49.9760017  59.3230400   4.3591981
  65.6043472  -0.3642789  15.2261705  65.4579620   0.2652354  15.9322262
  65.9941101   0.1528136  14.5212383  82.9796753  29.8617573  62.3907661
  83.0270920  29.3317509  63.1864281  83.2742462  30.7306042  62.6638336
  54.7192192  33.2885818  45.3546486  54.9171066  33.9011612  44.6462555
  54.4602890  32.4821968  44.9086342  86.4468002  44.4574013  24.0159912
  86.9341736  44.1388474  23.2562370  86.5645370  43.7767715  24.6786499
  60.1429558  19.7163410  69.5224609  59.8035393  20.3908787  70.1106949
  61.0914497  19.7440262  69.6482544  13.0814924  41.2786560  19.1084900
  13.5487251  40.5374603  18.7230644  12.1608829  41.0171776  19.0901489
  28.7321854   1.8007103   2.3655326  28.7387924   0.8581309   2.1990025
  29.6409492   2.0126350   2.5787618  68.7124252  59.1541862  24.7020988
  68.1544876  58.4228401  24.4374046  68.3610840  59.9074974  24.2274342
  21.8322010  21.4409523  24.3191071  22.4331932  22.0313187  24.7735386
  22.0926361  20.5659733  24.6068897  32.3135338  68.9497833  86.8839493
  31.8617706  68.2947235  87.4159622  31.9888496  69.7889252  87.2105331
  84.6882019  65.4210815  20.7315655  84.3511047  65.9350586  21.4653397
  85.1876297  64.7155762  21.1427383  17.2471886  65.9398346  79.9108658
  18.2021828  65.9863358  79.8655548  16.9714737  65.7906647  79.0064545
  54.0574303  25.7893658   4.3735952  53.8453140  26.0083694   5.2809401
  53.9822884  24.8359623   4.3334775  21.3114948  69.4406281   3.4324167
  21.8839607  70.0651016   2.9868257  20.7020187  69.1485519   2.7545805
  53.9941940  57.9363365  85.1972809  53.8785553  58.7376175  85.7079773
  54.9117508  57.6981354  85.3298721  49.3613968  55.0932693  46.5095482
  49.4650536  55.1414108  47.4598999  49.8946495  54.3425636  46.2481766
  86.5450363  57.2834740  57.4676819  85.9528732  57.3390198  58.2176743
  87.3214417  57.7733383  57.7387314  79.7097931  21.6252174  27.1597023
  79.3013458  21.4851322  28.0139713  79.1301270  21.1805458  26.5412540
  25.0989971   3.5520892  27.7125359  25.5563221   3.6902981  28.5419827
  24.9662609   2.6052272  27.6670933  84.9396133  10.6699972   0.8507040
  85.0114365   9.7497444   1.1040972  84.8270493  11.1381350   1.6779935
  76.3385849  41.5567894  48.2777252  77.1322479  41.1680946  47.9099770
  76.2052841  42.3562393  47.7684708  59.5432053  19.5229893  79.6944580
  60.3102493  18.9995308  79.9265594  59.2525177  19.1633987  78.8563461
  55.3745995  69.7757950  52.5753899  55.3129807  69.7138138  51.6221886
  55.5100060  68.8738251  52.8658028  35.7766457  55.7541885  49.5165787
  35.5641937  56.4991722  48.9543610  34.9480972  55.2853508  49.6162071
  69.1717224  67.3389740  34.7734070  68.5781708  66.6003113  34.9086876
  69.4919128  67.2281113  33.8781891  10.1129942  34.9456444  28.2968960
  10.0991344  35.7247086  28.8528633  11.0238323  34.6521530  28.3185024
  75.3924866  18.8552399  24.9769478  75.4745789  18.2029552  24.2812347
  76.2479248  18.8562794  25.4064407  26.3943825  59.4062004  72.5623703
  26.2262897  58.8278580  73.3063431  27.1983662  59.0650291  72.1706467
  48.5070915  26.9466038  26.7326393  49.1881638  26.3182144  26.4928455
  47.8919411  26.9244423  25.9996128  16.3871098  17.4026108  20.0313492
  16.3312931  18.1256580  19.4065914  15.4870682  17.2751408  20.3311939
  23.8580399  18.1118355  27.7613831  24.0740738  18.5003338  28.6091042
  24.6515484  17.6425591  27.5037842  13.2538548   0.5093822  64.8421936
  13.5732536   0.7963959  63.9867134  13.4000425  -0.4365745  64.8473892
   4.4637027   6.3248696  18.7857018   5.3507214   6.6846337  18.7859554
   4.3979998   5.8490286  19.6136456  44.5901794  50.6205673  87.7990112
  44.4512444  51.3275185  87.1688156  45.1766396  50.0115166  87.3502884
  38.6550827   1.2073680  28.2073402  38.3910103   1.1448853  27.2894115
  38.7408943   0.2982341  28.4942970  36.2567863  38.3095436  15.6286678
  37.0103073  38.6756363  15.1656179  36.6176109  37.9833679  16.4530735
  35.3128319  52.7470932  42.8337936  34.8259354  52.0125732  42.4601021
  34.6405640  53.3899841  43.0595703  46.7301712  68.5025482  81.1397781
  47.6426697  68.7283630  81.3202896  46.4627228  69.1154861  80.4549332
  35.5403404  27.2565422   4.7007723  36.4096870  26.8653946   4.7872052
  34.9550743  26.6387005   5.1389112  27.3952217   5.3597102  43.4793892
  27.7455578   5.8249741  42.7197647  26.8194008   4.6920567  43.1066971
  53.8278236  52.8785973  66.8345947  54.1665077  51.9955482  66.9820786
  52.8839340  52.7587318  66.7299957  44.2817535   7.0729113  30.3117485
  43.6039925   6.4935641  30.6599293  45.0574265   6.5169134  30.2380600
  79.2364197  24.3413544  64.7478485  78.3780594  24.5751820  64.3946304
  79.0536346  23.6483727  65.3823547  22.1926422  10.5633497  25.4811668
  22.2127953  10.4434023  26.4306068  21.8905067  11.4634733  25.3598270
  75.6299057  66.6769791  23.8041267  76.0609360  66.1820602  23.1073494
  74.8382339  66.1756668  23.9995098  64.7240295  30.5234547   2.9724605
  64.9419403  29.8195457   3.5834117  65.5489273  30.7185917   2.5278223
  86.1484985  33.5620651  15.0075808  85.3838577  33.6843719  14.4449110
  86.2570496  32.6125450  15.0611210  59.3751335  33.0014877  20.0990314
  59.1146088  32.1430435  20.4328518  59.5408745  33.5235176  20.8840446
  16.4143143  53.5989304  41.8981857  15.5863905  53.7409515  41.4392700
  17.0450077  54.1450768  41.4289474  18.9249668  20.3521595   3.2094083
  19.6643562  20.2205009   3.8028741  19.2004070  21.0699272   2.6391685
  60.6814880  70.3042831  68.1142426  60.5167732  69.3617706  68.0862732
  60.3481293  70.5804443  68.9679642  42.0586624  12.0316687   3.9373012
  42.6810608  11.7979231   4.6259346  41.4475250  12.6341715   4.3612475
  34.2931557  48.9691429  49.9393539  34.7533226  49.3947182  49.2159157
  33.5744667  48.4955482  49.5205116  47.3313408  18.3665314  73.1884003
  47.0935860  17.6886234  72.5558243  47.7440987  19.0511761  72.6619720
   5.1165295  -0.3107696  21.5198479   5.2105966   0.4138066  22.1382122
   4.8226810   0.1034143  20.7084694  50.0418358  42.8978195  30.2210388
  50.3728294  42.0178375  30.0413074  50.8069420  43.3830528  30.5298958
  65.8558884   9.4699049  28.7935791  65.5781174   9.8501120  27.9602032
  65.3252106   9.9199600  29.4508896  10.0544510  69.0452576  71.1171951
  10.0294266  69.1791382  70.1697311  10.9811630  69.1192474  71.3451462
  85.9310532  30.8950520  15.0451012  85.1771317  30.4863224  15.4702787
  86.0422821  30.4039631  14.2310438  48.5307426  29.2111073  28.2524929
  49.3061523  29.0615177  28.7934132  48.5467834  28.5021210  27.6095982
  34.3855858  41.8519249   5.3753476  34.9555130  42.6176453   5.3040047
  33.5241508  42.1683350   5.1032310  21.0577106  36.8267136  18.5290718
  21.5773792  37.3341599  17.9056339  21.6684208  36.1769180  18.8769684
  11.9170809  40.3281403  68.0357819  11.1036854  39.8246117  68.0686188
  12.5444422  39.8023682  68.5319824  74.1675186  48.8181953  40.6246643
  73.5313568  48.7900581  41.3393211  74.5741348  47.9516792  40.6317101
  19.1001625  38.1124268  19.7798042  18.7126064  37.7008553  20.5522308
  19.8501205  37.5581665  19.5639572  53.1908989  45.0725899  67.2101517
  53.1222305  44.4105034  66.5222855  54.1261559  45.1147079  67.4095306
  57.0061684  42.5243607  44.3573570  57.5582771  42.4565010  45.1363335
  56.2278938  42.0091972  44.5697823  10.1356297  43.2283974  19.7378254
   9.7664461  44.0765152  19.9840660  10.3235846  43.3113327  18.8029308
  28.2274570  27.6993618  81.2858429  27.2835693  27.7341442  81.1306076
  28.3723354  28.3005390  82.0164795  64.5420914  41.9438057  88.5405197
  64.6337509  41.7069473  89.4634171  64.9224091  41.2053642  88.0648117
  15.1777143  24.0875626   3.9312675  15.9229813  23.8647766   4.4890985
  14.8885717  23.2489319   3.5716481  37.0898132   5.1291709  14.3892002
  37.7662125   4.6894193  14.9043112  37.3645744   6.0457921  14.3658619
  62.3916245  13.4962988  87.9405899  62.2280121  14.3878670  87.6330719
  61.5644379  13.0371571  87.7950439  31.1386433  54.0504303  34.1818352
  30.2382698  53.8120193  34.4025574  31.3856640  53.4378052  33.4890823
  17.1627026  65.7906647  77.1010208  16.2829342  65.8862839  76.7361908
  17.6683140  65.3765869  76.4016418  19.2408562   8.5966797  34.9569969
  18.6078377   8.5670872  35.6743851  19.4350433   7.6780486  34.7708778
  62.6306190  11.2068071  65.4757538  62.1032906  10.4639006  65.7694321
  63.2401428  10.8315306  64.8402405  53.2835884   8.3852539  81.7207870
  52.6785469   7.6692486  81.5271606  53.4861450   8.2828121  82.6506882
  75.4599762   7.3719859  58.6118202  76.0107803   7.1395802  57.8642731
  75.5877914   8.3144627  58.7196770  68.9657059  58.8938828  66.4236832
  69.2914429  58.0942917  66.8369370  69.5614319  59.5794716  66.7258606
   7.6670527  66.2760086  83.2996597   7.2098651  66.2532806  84.1403046
   7.0159202  66.6084595  82.6818085  12.0200768  51.1533318  84.2322006
  12.9459295  51.3455429  84.3808060  11.8839235  50.2992630  84.6424026
   3.7961097  53.1996307  86.3355789   3.3194201  52.6753616  85.6920395
   4.7188129  53.0565453  86.1249237  31.3532028  53.8901215   3.0638139
  32.2867165  53.6828384   3.1064465  30.9151573  53.0706749   3.2937095
  72.5790634  62.2811356  87.2125473  73.4613037  62.3720741  86.8525238
  72.7116623  62.2184792  88.1584396  25.0780334  53.6854935  44.4725304
  25.2031212  54.6022987  44.2274742  25.9635296  53.3235283  44.5058937
  49.1049156  38.3401527  29.7492981  49.7771263  37.9128151  29.2184982
  48.6211319  37.6179161  30.1500015  63.2479782   4.4495869  21.7733994
  62.7146835   4.9065862  21.1230316  62.6179085   3.9456375  22.2884483
  21.9967842  38.4098396  22.8645058  22.5593815  37.6456757  22.7389374
  22.4525032  38.9376144  23.5202560  20.2664719  12.2960510  29.9347706
  19.9739819  12.1280785  29.0389652  21.2181530  12.3719978  29.8657227
  57.3656654  60.1424828  84.8762589  57.1557045  59.4717331  85.5260620
  57.5939407  60.9144783  85.3940811  56.6342392  54.5654488  71.3931122
  57.1562309  54.0753098  72.0283432  56.4691696  55.4074020  71.8174896
  53.0041199  17.0124989  12.6544132  53.6136475  16.2837582  12.7712193
  53.5135880  17.7898922  12.8831768  18.1767731  58.1629677  21.1302738
  17.5383892  58.8761978  21.1306782  18.8247662  58.4211502  21.7857704
  73.2261276  24.7136517  72.0504837  74.0902405  24.9598980  72.3804703
  72.9504395  25.4611130  71.5198898  83.4979172  46.3229637  45.6813927
  82.6219330  46.4960403  46.0262489  84.0875549  46.7639008  46.2930565
  69.0288467  27.5189285   0.1788560  68.4559784  26.7895355   0.4155685
  68.4567490  28.1333675  -0.2809225  36.2118950  20.4889774  81.7902222
  36.7723312  21.2094250  81.5019455  35.3994102  20.6057682  81.2978134
  82.9214172  18.8062191  11.7827902  83.1641541  18.8568230  10.8582630
  81.9750214  18.6630573  11.7744522   8.6773615  52.1064720  87.4117584
   8.5045204  51.2055588  87.6851044   9.5742264  52.2763062  87.6998978
  54.3874702   1.6584015  49.4533081  54.3575134   0.7024229  49.4153671
  55.2631683   1.8576344  49.7845078  35.2847939  32.4690361   3.4194477
  34.4484596  32.1437225   3.0863669  35.7956810  31.6791573   3.5964246
  80.0141068  35.8084335  28.2649479  80.3677139  36.6449051  27.9624424
  80.3922806  35.1597786  27.6712608  28.2559414  26.7666607  75.3520584
  28.0380421  26.6139107  74.4325943  28.5036945  27.6904945  75.3892136
  53.2791710   6.6793237  57.8667336  52.9663544   7.5229349  57.5400887
  52.7532921   6.5156918  58.6496162  53.9390602  21.7135124  88.9564514
  53.8629799  22.5465126  88.4911041  54.0527420  21.9612675  89.8740158
  30.1062775  27.6795025  12.7020779  30.1167316  27.0800838  13.4482803
  30.8983974  27.4633350  12.2100954  49.6788635  62.5214462  67.6121445
  49.8854446  61.8047295  67.0122528  48.7427177  62.4251213  67.7870255
  37.5745621   0.2568081  79.9920425  37.4345436  -0.6129851  80.3663254
  37.1026802   0.8485259  80.5780792   5.4542499   8.9133406  47.3618011
   5.9576135   9.4376783  47.9846382   4.8611059   9.5391912  46.9462013
  70.8992691  60.1095085  86.6360931  71.4613190  60.8832474  86.6768951
  71.5007935  59.3711815  86.7324066  82.4981995  49.6214218  44.5807762
  82.6802292  50.4570045  44.1507797  83.3468323  49.3366814  44.9198647
  65.8002167  70.7651443  22.5686073  65.6106644  71.6581268  22.8565063
  65.8706818  70.2618484  23.3797550  40.4194183  39.5739861  76.4767990
  39.5860214  39.6554527  76.0130768  40.2454453  38.9399376  77.1724625
  62.3595848  49.5816269  60.5559578  62.4160309  50.0800400  61.3712044
  63.0522156  48.9249191  60.6282730  84.3255234  13.2734137  41.0772743
  85.1954041  12.8816414  41.1550903  84.4876709  14.1487570  40.7255440
  62.8278656  63.1078262  80.7169418  62.0355644  63.0449562  81.2503662
  63.4817314  62.6012039  81.1986389  35.0872078  64.8466415  57.5207977
  34.7267418  65.5622101  58.0444908  34.9829216  65.1368942  56.6146469
  17.9659634   5.8161483  25.0568428  18.0848160   6.2455177  25.9040432
  18.0991840   4.8859296  25.2389870  17.7558250  10.9176416  18.8953781
  17.0219879  10.3044844  18.8535175  18.5009003  10.4231329  18.5539722
  65.2823715  53.2994957  53.9058685  64.3358536  53.1797905  53.8283501
  65.3811340  54.0977592  54.4247665   3.9930792  11.0128727  48.9714546
   3.6144638  11.6703854  48.3878822   3.6534121  10.1793976  48.6456070
  65.7925720  42.6492043  28.8837738  66.2838974  41.9949684  28.3869762
  65.5932617  43.3344002  28.2457962  69.5598831  49.7083893  16.2308445
  68.8450699  50.3054962  16.0100899  69.3734970  49.4331627  17.1284752
  37.7040291  57.7655678  47.2599182  38.3863258  57.7319260  46.5894165
  38.0932655  57.3325272  48.0196571   0.3767288  57.9458237  23.4794731
   0.5755249  58.5061073  24.2296696   1.1512431  57.3918037  23.3823986
  40.9160995  17.9143867   9.1045132  40.6318855  18.2424107   9.9576569
  40.1838989  18.1055489   8.5183640  70.3603821  47.9633598  32.1797523
  69.7533646  47.2246857  32.1337814  70.0182724  48.5108871  32.8864403
   3.5095406  24.4105892  56.6764717   3.2410502  25.3292866  56.6646233
   4.0385723  24.3054523  55.8857117  37.9474945  61.2094116  25.4507542
  37.0280724  61.0812798  25.6841602  38.0706367  60.6799011  24.6629162
  39.5060196  36.7701416   0.2729366  40.3802834  36.4189796   0.4420036
  39.6425095  37.7115631   0.1664944  32.0240593   6.0532918  13.9196529
  32.2829323   5.6333327  14.7399273  32.7870674   5.9565601  13.3498344
  81.6674500  12.1392736  11.0162935  80.8713455  12.6665325  11.0829878
  81.9282074  11.9833632  11.9239979  86.1453400  59.2599144   2.3152788
  85.5497665  59.7962646   2.8385851  86.3833694  59.8186493   1.5754198
  62.6671028  60.1457367  29.4745789  61.7887306  59.7740440  29.5554371
  62.6901207  60.5162125  28.5922813  61.6164017  16.6164646   3.3207068
  60.7820473  17.0852795   3.3034813  62.2480850  17.2383823   2.9595587
  72.6325302  45.6041031  21.4470711  71.7838821  45.6867676  21.8820343
  72.5882645  44.7622986  20.9935989  59.2660446  42.4206810   4.7087016
  60.0246086  42.1915627   5.2456493  58.5327072  42.4347115   5.3237267
  52.9391632  21.2874355  17.7878075  52.6879158  22.0890617  18.2466106
  52.7200165  20.5834141  18.3981857  36.3758392  36.9108353  34.6586952
  36.8917427  37.6241798  34.2829170  35.4661446  37.1712875  34.5142975
  27.8141899  52.6295586  57.9486656  27.4544544  51.7438507  57.9002495
  27.0829468  53.1689491  58.2496223  15.2016621  67.9470291  50.0528870
  15.7355871  67.1594925  49.9482689  14.3379202  67.6960449  49.7254906
  13.1124535  18.3088188  57.1225052  13.5667181  19.0873737  56.8004417
  12.2547035  18.3395348  56.6987686  61.6422577  14.2251177  55.6394615
  61.1669388  14.8778238  56.1535378  61.6491432  13.4436083  56.1921158
  65.4300613  70.3615494  87.2572250  64.6533737  70.0347748  86.8031235
  66.0264206  70.6214600  86.5550613  38.9803429  32.3819885   1.2124928
  39.6377258  32.9895401   0.8734330  38.1484756  32.8419647   1.1000103
  10.7865934   0.9195242  65.8274841  11.4687309   1.1416855  65.1937943
  11.0536718   0.0702135  66.1790085   5.9485478  11.8636694  50.6303749
   5.7263346  12.0886936  51.5338249   5.1284766  11.5434122  50.2546768
  28.2178078  54.9073524  88.0653305  28.8713512  54.5545006  88.6691589
  28.6084080  55.7167473  87.7358704  20.4729633  37.3393936   8.1218538
  20.9711227  36.9212074   7.4195800  19.5582829  37.1516533   7.9112706
  68.3959808   2.2055917  35.9828186  68.6424713   2.7076902  36.7595901
  68.3085709   2.8616655  35.2913284  59.5145683  29.0158863  40.8174438
  59.8071175  29.2624092  39.9400215  59.8462486  29.7117863  41.3848419
   3.5538402  19.2065220  17.8742733   3.6699119  19.9175529  18.5045071
   4.2060480  19.3794117  17.1953297  80.2553406  52.4925041  71.6925507
  80.5796051  52.6870422  72.5718918  80.7713547  53.0567551  71.1167221
   1.7251080  42.1449318  35.2633934   1.3959907  41.4714661  34.6681137
   1.2236625  42.9287796  35.0389633  42.1696815  59.5962067  87.8154831
  41.4896088  59.2114258  88.3683701  41.8837738  60.4992485  87.6776199
  35.4643326  71.5041962  15.4124889  36.1207657  70.8086166  15.4512234
  35.0471001  71.4879990  16.2738190   0.2145048  60.5383835   0.2249301
   1.0885245  60.6860428   0.5862032   0.3032264  60.7397957  -0.7066242
  15.2743711  18.3081951  76.0183640  15.3629274  19.2207756  76.2932892
  15.0727758  17.8335838  76.8247910  83.3741760  57.7664223  70.9710846
  83.0586243  58.4750595  71.5318832  84.2252045  57.5299492  71.3399353
  47.7259216  66.9769974   2.2673724  48.1051941  66.9364395   1.3894547
  48.3901711  67.4204102   2.7949960  24.9269733   9.3668194  73.7203827
  25.8411045   9.4558020  73.4507904  24.4307251   9.8167143  73.0365982
  21.4073410   4.1616611  41.5493774  21.1866245   3.7504735  42.3851051
  21.0754585   5.0560813  41.6274643  42.5554237   6.9560556  74.9876328
  42.3505058   7.8910542  74.9834290  43.3984795   6.8976450  75.4371567
  32.0969582  21.1918030  80.0210419  31.8538647  21.9815369  79.5378647
  32.0112267  21.4385185  80.9419174  42.5337486   5.7274685  59.0182037
  42.8416214   4.9611053  58.5343285  42.1350098   6.2871494  58.3518715
   0.0815015  68.7740326  47.6008263  -0.1102536  67.8363571  47.5856781
   0.9290341  68.8380966  48.0410690   4.7421150  34.2775307  48.0131836
   4.2257228  33.5765457  47.6154518   4.1687565  34.6454391  48.6855965
  15.0411186   3.5228026  34.8409920  15.3785019   4.2039204  35.4227867
  14.1174564   3.4409208  35.0784302  44.1698799  66.9844360  32.6232567
  43.5065956  67.2941666  32.0065269  44.6805191  66.3461151  32.1252365
  40.5969276  25.4428635  21.9739094  39.7394066  25.8614311  21.8984814
  41.1421547  26.0921936  22.4181271  50.7887878  49.6829681   2.8662148
  50.3802567  50.3749123   3.3863542  50.8239441  50.0396004   1.9786288
  16.7923336  56.7134438  83.8078156  16.3927059  55.9245720  83.4414673
  17.2134972  57.1378403  83.0603256  57.0599365  35.1528397  85.8767700
  56.9690628  36.0051956  85.4507904  56.5215149  35.2205391  86.6652832
  36.4592972  49.5059662  64.2798843  36.4240341  48.5573921  64.1566238
  35.5438385  49.7846298  64.2572556   7.7618213  41.1864319  35.0469437
   7.2636795  40.6785049  35.6873322   8.3118305  40.5401497  34.6041794
  49.9530907   0.6866853  23.6566410  50.2153282  -0.1930100  23.9279327
  50.7167664   1.0324674  23.1946182  54.5439796  26.7752571  65.5539398
  55.4584198  26.6314812  65.7975769  54.4716759  26.4133606  64.6707458
  61.6472588  54.2969933  16.4156036  62.4227600  54.8351555  16.2568226
  60.9104500  54.8929253  16.2806625  57.3616905  63.1111526  57.3623428
  56.9886780  62.2810898  57.0655441  56.7031174  63.7660713  57.1308365
  11.0452251  11.7260647  13.6568232  10.7860479  10.8378897  13.4114571
  11.8524237  11.6101732  14.1580544  65.9102783  39.3275146  86.8785934
  65.0556717  39.3963089  86.4529724  66.5163193  39.1211319  86.1670151
  85.0324173   5.7325425  41.6424103  84.8124084   4.8366499  41.8977623
  85.8782730   5.8992586  42.0582924  20.3663502  63.9302635  55.5038338
  19.7321758  63.2193260  55.4109726  21.1710339  63.4976387  55.7894096
  20.7464638  62.2764854  76.0255508  21.4633656  61.6526489  76.1400681
  20.7576675  62.8035164  76.8245163  17.9458714  25.6269608  57.9356232
  17.9505138  26.1432781  57.1296310  18.7485008  25.8840752  58.3894005
   2.1616406  42.2477722  57.7532349   2.7878838  41.5399590  57.6014061
   2.4562724  42.6579285  58.5663719  24.5429821  67.4509964  31.3069839
  24.9590454  66.6662140  30.9502697  23.9155636  67.1186829  31.9489689
  68.4425659  42.7983284  16.9940720  68.0433731  42.8890762  16.1288319
  69.3253860  43.1530113  16.8889351  85.4746628   5.9778242  59.4441948
  85.4944077   5.0215592  59.4816055  85.0877075   6.2422338  60.2788086
  20.3297539   5.6901670  69.8519897  20.2338161   6.5606070  70.2384644
  21.2338753   5.4412284  70.0438919   2.0719121  41.8301239  85.9168701
   2.6965899  41.1573830  85.6458969   2.5827579  42.6394806  85.9312057
  51.6397552  71.3006973  81.7611008  51.9917297  70.8659592  80.9843445
  52.2680397  71.9974289  81.9509964  67.0316086  67.0607147  79.5958405
  66.6222076  66.8310928  78.7616425  67.7988434  66.4910278  79.6509476
   5.3063846  58.8656731  20.7384186   6.0098767  59.2965240  20.2529316
   4.7394342  58.4963608  20.0613594  52.2280769  12.9681349   3.0200403
  52.2258949  12.2251740   2.4165201  52.5607910  13.6989517   2.4990406
  55.3439369  41.7268486  66.0807648  56.1113853  41.2320824  65.7936096
  55.2409935  42.4131584  65.4215088  77.7686691  53.3905945  83.2122116
  77.8843231  52.7582588  83.9214401  76.8439407  53.6337738  83.2565689
  66.1647873  10.2120667  62.1621895  66.2884140  10.1592703  61.2144775
  66.9841766   9.8804789  62.5294609  76.2192154  16.2143173  27.7843132
  75.2953796  16.1961575  27.5344563  76.3095322  17.0090141  28.3101749
  66.1292343  66.8061218  17.7758331  65.2300491  66.5780716  17.5398388
  66.2071609  67.7339401  17.5537720  71.5527267  27.4332047  21.6853256
  71.8112640  28.1382980  22.2788162  71.7882690  26.6303444  22.1502571
  86.0320282  54.7169991  31.5691109  86.3768311  54.0410271  32.1525536
  85.1090622  54.7940102  31.8108387  19.2479095  56.1051788  14.9874277
  19.5440712  55.6376534  14.2064419  19.7482452  55.7151451  15.7042046
  13.2100315  15.6530685  69.2266693  13.7418661  16.0004101  69.9427261
  13.4881592  14.7410593  69.1423187  61.8633957  68.4087753  56.6201591
  61.2007523  68.3098373  57.3037872  61.3792381  68.3068085  55.8007507
  39.5023994   3.3190174  87.2406769  39.3126717   2.5245125  87.7396698
  40.0615501   3.8374572  87.8192978  43.5837822  57.0300369  70.1345596
  43.0498848  56.2440300  70.0188904  43.0508461  57.6025124  70.6863632
  22.0310898  27.0346279  82.1231537  22.5965519  26.6600800  81.4477310
  21.5409260  26.2875748  82.4664917  53.2236061  61.2822418  88.5773544
  53.3941841  61.7538719  87.7620621  53.9302635  60.6391068  88.6343613
  12.3900146  64.8260345  12.6176023  12.7759380  64.1529694  13.1782112
  12.5496798  65.6465912  13.0838909  80.6974258  68.1148682  39.8201141
  79.9631119  68.2578201  39.2229652  81.2910080  68.8460693  39.6491623
  61.2592316  41.5235901  39.8894005  61.5083427  41.6042747  38.9687119
  60.8120079  40.6790123  39.9433899  69.3980942  28.1650887  85.7943192
  68.7073288  27.6025448  86.1444931  69.0087280  28.5675049  85.0179977
  73.8582001  38.6921539  32.5186157  74.4346848  38.1406364  33.0475044
  74.3817139  38.9176369  31.7496395  63.7269897  64.7594070  46.3680344
  63.1959038  65.3603897  45.8455391  64.5064011  64.6031113  45.8348198
  12.6585150  11.0552979  11.3464394  13.4535418  11.0488691  11.8794718
  12.0488358  11.6106243  11.8323774  83.5436707  12.9784431  85.0167007
  83.9300766  12.3410788  85.6172714  83.8237305  12.6895475  84.1481705
  18.0213757  20.2783108  22.5696754  17.6766968  20.7008228  21.7829647
  17.2793159  20.2553349  23.1738701  46.1915665  58.7926865  76.8133621
  45.5372124  59.4363136  77.0850143  45.7992516  58.3569756  76.0567398
  41.9594498  60.1690865  28.7032547  42.0889931  59.2392311  28.5166473
  41.9692039  60.2252464  29.6587563  74.1627884  17.9281597  22.2688694
  73.3152161  18.3299599  22.4596901  74.1859436  17.8597126  21.3143997
   7.0096207  30.9253979  17.2208118   6.8843908  31.6430588  17.8417072
   6.5917711  30.1720448  17.6380539  44.6030197  58.9941521  52.2683449
  45.3515511  59.3922691  51.8240089  43.8659554  59.5665855  52.0555344
  15.1366568  10.6300297  59.2843399  15.4894285  11.4908628  59.0590668
  14.2414150  10.8062925  59.5736618  56.7788086  70.3756180  12.6124420
  56.8352737  69.4201355  12.6221418  56.6532478  70.5987778  11.6901264
  33.2222824  63.9984741  19.2689552  34.1464882  63.7750435  19.3792095
  32.7966614  63.6507339  20.0526352  40.9674911  14.7837019  88.2390060
  41.5744858  14.5984802  88.9555893  40.3280640  14.0724154  88.2768631
  66.5237350  70.9712982  37.6225700  67.0080795  71.7930756  37.5430336
  65.8727875  71.0081482  36.9217567  53.9276352  20.4155903  30.3235703
  53.6032143  20.7047443  31.1764297  53.9744453  21.2162590  29.8011036
  66.9387741  45.2060699  72.2159576  66.6218414  45.0407639  71.3280029
  66.2677002  45.7634850  72.6098938  33.1631050  66.5596695  58.8446007
  32.8967171  67.4112396  58.4980431  33.3964005  66.7344666  59.7563286
  48.8084145  64.8633041  62.9859848  49.3080215  64.0668335  63.1655960
  49.1148148  65.4909439  63.6405182  32.4760056  69.7753754   1.5515397
  31.9907665  69.4177399   2.2950916  31.8284912  69.8344879   0.8490712
  82.5472488  69.4005814  27.4172230  82.7560272  70.2893524  27.7048454
  81.6443863  69.2621155  27.7033997  71.6639557  36.0057716  27.4853516
  71.8355560  36.3172874  28.3740273  72.4686661  36.1988373  27.0043087
  76.9669342  37.1990662  22.1675415  76.0651855  37.3331909  22.4592381
  77.1095505  36.2566719  22.2557850  66.9596634  33.7111511  32.8150864
  66.3835297  33.3572693  32.1375389  67.6710892  33.0741806  32.8812027
  77.0471878  23.7917690  37.4299736  76.9102631  22.9158134  37.7907867
  76.8502350  23.7002850  36.4977341  26.7226162  49.4190903  18.5836468
  26.2059689  48.7372437  19.0130539  27.5095139  49.4986305  19.1228104
  56.4021263   9.4832506  73.0001678  56.4856720   9.0820513  73.8652039
  57.2684059   9.8489199  72.8210678  42.8104706  49.6982765  14.7856817
  42.5170135  50.6093674  14.7804146  43.4466667  49.6474380  14.0723057
  62.8944740  59.6477280   6.2303567  62.6617737  60.4861336   5.8314080
  63.6035156  59.3105354   5.6828241  58.6832199  62.3948822  42.6152687
  58.4136391  63.3060570  42.4998779  58.9245720  62.1033363  41.7360764
  21.1131973  63.2628403  69.0416870  20.2611256  63.1242371  68.6281738
  21.0046139  62.9283791  69.9319534  12.3463326  10.9334297  53.5637550
  11.6704731  10.7608223  52.9082756  13.1028233  11.2271814  53.0561523
  34.5208435  57.5497856  87.7377090  33.5778351  57.4594345  87.6005630
  34.9157791  57.0858192  86.9994736  21.0714493   0.5331558  83.9843063
  21.3585606  -0.1841235  83.4192352  21.3801193   0.2889484  84.8568420
  75.7128830  46.1449127  57.1152992  75.5911179  45.2706680  57.4855690
  74.8262405  46.4474983  56.9189796  52.1737213  29.5170517  84.0797043
  52.6426163  28.7381706  83.7801819  51.2656708  29.3655548  83.8175583
  48.6585884  57.2945251  72.5030746  47.7965279  56.9008522  72.6376114
  48.6898346  58.0211372  73.1253967   2.0326245  38.7930984  83.7492371
   2.1643360  37.9874725  83.2493896   1.3415577  39.2576103  83.2771225
  67.6363525  60.9406242  16.4497967  67.8009338  61.0736771  15.5162849
  66.7260208  60.6479759  16.4931831   7.5037303  54.0910835  43.9134216
   7.4219866  53.3846588  44.5541382   6.6070752  54.2537193  43.6205215
  24.8727722  69.4170532  71.7759628  24.1769104  69.4861984  71.1223297
  25.2643471  70.2901001  71.8021851  51.2158585  44.0368195  33.7270470
  50.4760475  44.1623421  34.3213120  51.8979378  43.6457443  34.2729912
   9.8279200  16.5373459  63.9011726   9.3305206  17.3388901  64.0635071
   9.1712160  15.8410769  63.9146423  64.9872360   4.1302490  45.7131805
  65.7555084   3.5706913  45.5996399  64.9328232   4.2735252  46.6580315
  71.9764633  43.8989983  60.8717003  72.1285019  44.3508530  60.0416718
  72.6855164  43.2585487  60.9291420  21.6070747   1.1396019  36.3385696
  21.1546097   0.8196117  35.5581131  20.9036655   1.3764055  36.9430275
  67.7021103  62.7058525  54.7791367  68.1246185  63.0210342  53.9801521
  68.2277756  61.9519768  55.0466690  84.4479904  48.4370346  22.2503242
  83.5441513  48.7253609  22.1231461  84.6290741  48.6165085  23.1729450
  45.3111610  60.2070885  57.3167191  44.8718681  60.4435234  58.1336365
  46.0311546  60.8333893  57.2419815   2.1567287   6.1501222  70.4724121
   1.8772966   6.8310747  69.8604889   2.5159535   6.6309309  71.2180786
  14.2695293  67.0945053  24.5552826  13.7357578  67.8872147  24.6094360
  15.1717052  67.4086685  24.6153679  44.4761734  26.9790230  15.4473705
  43.6855965  27.4841843  15.6371889  44.8011932  26.7108879  16.3068447
   9.5911255  48.3602600   8.2924528  10.3833447  48.4369888   7.7607260
   8.9111338  48.7883377   7.7722688  71.7307205  37.0320625  36.5481606
  72.6101456  36.6723557  36.6641541  71.7001266  37.2983093  35.6292419
  66.8347778  28.9620705  52.8978233  67.5789185  29.3572617  53.3520355
  66.3883133  28.4487228  53.5711555   3.8518267  69.5746002  80.5004349
   4.2510762  68.9961395  79.8506546   4.5717664  70.1282578  80.8027344
   1.9424400  31.8290939  57.0962791   2.5623617  32.0013199  56.3875732
   2.4880776  31.5344124  57.8254395   6.3520598  13.0058498  87.6687927
   5.5032744  12.5634012  87.6629944   6.2781911  13.6565723  88.3668900
   3.0819261  40.2384071  38.2748489   3.3306367  40.7230988  37.4877968
   2.1932871  40.5365410  38.4689293  54.8620567  16.7695751  68.3131638
  54.2898598  17.1577492  67.6512451  55.3327599  17.5135422  68.6889114
  33.7142296  55.2051392  43.2584534  33.2111092  55.7580299  43.8562889
  33.0730858  54.5876923  42.9064293  65.2208328   5.7229462  13.5244465
  64.6055222   5.0034165  13.3833523  65.4387360   6.0279374  12.6436920
  11.3002357  57.3600006  16.4668827  10.5018425  57.8837357  16.5339832
  11.5130301  57.3662148  15.5336561  70.8076477  18.6625309  48.7775955
  70.9203568  17.8987064  48.2118187  69.8602066  18.7925339  48.8185577
  18.4508247  26.7386417  10.5189743  19.3849297  26.6520519  10.3287611
  18.0847187  27.1531143   9.7376862   9.6153603  69.7546082   2.0145748
   9.5206661  70.6750793   1.7696165   9.8881044  69.7776947   2.9318042
  10.6229153  14.8714924   4.2238231  10.6578493  15.6936283   4.7128067
  11.4298134  14.8645811   3.7089448   5.1272173  28.2195759  21.9878407
   4.4551315  27.5816250  22.2277412   4.6558118  29.0498295  21.9193783
   9.3168802   1.9858156  61.9789162   9.3210793   2.9224818  61.7817574
   9.5914373   1.5680094  61.1626511  45.8864555  42.1604080  54.6410637
  46.6948128  41.8596077  55.0561638  46.0768623  42.1400490  53.7032127
  66.9475632  34.4498138  38.7506638  66.4865341  34.8154755  37.9956932
  67.6680527  33.9469719  38.3708191  67.9734344  47.3927383  21.8999348
  67.5053406  46.8009300  21.3109703  67.9950256  48.2279358  21.4328022
  77.2223282  56.2877350  86.1746063  77.1950073  55.4194145  86.5764771
  77.7373886  56.1663933  85.3769684  67.6511383  71.2730408  18.5379772
  68.0242996  71.5413437  17.6983376  68.1251450  70.4733658  18.7661610
  66.5655441   2.7951705  62.8639717  66.3076859   2.3081174  62.0813370
  65.9808426   2.4730883  63.5499916   0.5095664  68.6542282  51.6646767
   0.1886822  67.9148788  52.1810379   0.5265236  69.3869476  52.2803612
  10.4796343  66.7126923  61.1623840  10.0585384  66.4038391  60.3601837
   9.7826471  66.7014542  61.8183670  62.8031731  15.6714592  78.3016129
  62.3018570  16.3201084  77.8074799  62.4888268  14.8276825  77.9768677
  79.0254517   8.0716085   0.1072215  78.8283386   7.8688865   1.0217053
  79.0379410   7.2199736  -0.3295770  18.6116276  69.0460968  13.8339338
  19.0707130  68.3247528  14.2642107  18.4773216  68.7428436  12.9360285
  56.0387497  55.4147644  77.5666809  56.5456505  55.0874939  76.8235855
  56.5267944  55.1229172  78.3366547  69.5826340  27.9453011  39.0464745
  69.7542648  28.8583546  39.2769279  68.6319733  27.8985233  38.9449959
  63.9958229  26.3996201  44.6038933  64.4943695  27.2092590  44.7142143
  64.5645599  25.8380184  44.0772247  35.9828682  53.8613319  40.2643166
  36.3691902  54.7355576  40.3164749  36.0463600  53.5178604  41.1555099
  63.4366646   3.2494633  48.4629250  64.0812988   3.9540818  48.3981705
  62.6590576   3.5952342  48.0247421  85.9287262  11.0991373  16.0816097
  85.3004608  10.7061090  15.4757652  86.0673447  11.9834862  15.7425756
  29.2373466  64.1811523  45.3117828  28.8205490  65.0420532  45.3487167
  29.0029182  63.8383484  44.4493637  51.6478348  67.4722824  10.7052069
  51.1358414  66.6796494  10.5445004  51.6920929  67.9057312   9.8529205
  73.9965210  19.3388214  88.0463791  73.2064209  19.8464756  88.2314835
  73.8113480  18.4694843  88.4016190  31.0504074  57.2160530  17.6174126
  31.5978088  57.4107819  18.3781109  30.6436653  56.3745918  17.8241272
  30.1432343  26.1225471   6.2705183  31.0919418  25.9995155   6.2381544
  30.0085621  27.0242310   5.9788642   5.7142754  55.1655846  26.6113453
   4.9842215  54.5832825  26.8215256   5.7122965  55.2167778  25.6555176
  19.7866802  68.3299255  28.8682213  19.6997585  69.2765427  28.7559814
  19.8632069  67.9890976  27.9770355  51.5472984  36.9697456   3.6258657
  51.7126427  36.3205795   4.3095865  51.6621094  37.8132057   4.0636191
  48.5208893  53.7531662  76.0801010  49.2905197  54.0065498  75.5704956
  47.7830811  54.1379929  75.6070480  12.1691332  26.9498539  14.4356890
  12.2947102  26.0532227  14.7463570  11.2232275  27.0306892  14.3133802
  77.3879395  32.8329048  81.9503555  78.2471008  32.9708290  82.3491669
  77.5213242  33.0241737  81.0219955  65.0990906  64.9178467  73.5427322
  64.4760284  65.2837219  74.1705551  65.9212875  65.3710175  73.7294388
  16.2382946  38.8507233  13.2017460  15.4860744  38.4395752  12.7758904
  16.7157745  39.2738647  12.4881649   0.6268438  70.8713379   4.9048176
   0.2355163  70.5941925   4.0763931   1.5382272  70.5845108   4.8470006
  55.5274162  38.9583130  36.9443970  56.0173264  39.0785522  37.7578850
  54.6357613  39.2323761  37.1590500   1.6978176   4.7174287  84.3459396
   2.4455740   4.9239092  84.9067001   1.0171523   4.4253917  84.9522705
  79.8822861  30.0563526  14.8226948  79.2504883  30.6229744  15.2654228
  79.7222519  30.2018681  13.8902531  26.2625637   2.0748417  60.5135651
  26.4800053   1.5981809  61.3146553  25.3589706   1.8230904  60.3228493
  80.0841293  21.2367897  74.4847641  80.1115952  22.1932182  74.4579010
  80.9315872  20.9830189  74.8503571  13.2500963  55.5584564  42.3789330
  12.9478769  56.2915230  42.9151306  13.2827177  54.8170052  42.9834328
  21.7445202   0.4787174  19.5725155  22.1712494   0.3175919  20.4140453
  20.9062443   0.0212309  19.6375656  83.1782608  37.6795654  19.4065495
  83.5776901  36.8342476  19.6117897  83.7570267  38.3233986  19.8148842
  67.2484131  37.0153580  80.4519577  66.3974762  36.8099442  80.8391800
  67.2856827  37.9718285  80.4491959  30.2754803  62.0397987  11.3412342
  30.8960629  61.8363838  10.6414251  30.1809635  62.9917526  11.3083143
  22.5130978  61.0741653  23.9804535  22.9878559  60.5759277  24.6457310
  22.2556210  60.4206657  23.3301659  53.3195534  70.8554611  63.0689163
  53.3543282  70.5999756  62.1470985  52.6908722  71.5768280  63.0939713
  22.8974495  45.7258339  60.7928734  22.2072296  45.0676918  60.7111359
  22.5445023  46.4990120  60.3525848  56.4222717  39.8741264  52.9502602
  55.7588730  40.3457870  52.4466019  55.9421387  39.5034332  53.6907272
   0.2410949  14.4086332  41.6984520  -0.1099277  15.1792078  41.2521019
   1.1716623  14.4051542  41.4742546  66.3964310  24.6945572  16.5522041
  66.6481476  25.6177845  16.5750332  67.1852722  24.2244740  16.8223457
  83.6847000  50.6736794  49.1381950  83.2458878  50.5928726  49.9850388
  84.5425491  51.0433044  49.3472519  84.2194443  28.3913136  57.3948517
  83.7063828  27.9497566  58.0716248  84.2711563  29.3008251  57.6887016
  48.5183372   5.8147020  16.5856342  47.7539253   6.3403592  16.3498573
  49.0190086   6.3733220  17.1801929  79.2424698  45.2562714   8.8267765
  78.4252853  44.9440613   8.4382267  79.4288101  46.0749359   8.3671045
  61.6607971  18.4015083  72.4549713  61.3318214  17.5572929  72.1462402
  60.8795090  18.8701782  72.7485199  30.9912205  11.1689377  12.3010759
  31.1770020  10.6790037  13.1021261  31.3934784  12.0254316  12.4454260
  22.5704803  58.8013420  27.7815475  22.7601051  59.2756615  26.9720459
  23.1987991  59.1479568  28.4150372  36.1022797  34.1730080  15.4130306
  35.6303215  33.4305344  15.7901535  36.4964409  33.8249741  14.6131907
  71.4452820  63.2976723  26.1266804  71.5549698  64.2446289  26.2131062
  71.8210983  63.0901146  25.2711620   0.4967545  26.7696457  52.4979744
   0.0587013  27.1596222  53.2544518  -0.1671680  26.2057610  52.1011429
   3.5128810  51.1658554  17.3625011   3.0096912  50.6887512  18.0223503
   4.4217224  51.0897560  17.6530991  22.6554756   7.6898680  22.1016731
  22.3605480   8.5870371  22.2576771  23.0418835   7.4166760  22.9337101
  14.1718588  35.8067856   5.7310572  13.4764538  35.1658630   5.5831885
  14.7829828  35.6683578   5.0074577  23.9757862   6.9272795  55.6625557
  23.3330250   7.4181085  56.1745872  24.7056808   7.5358047  55.5477295
  55.5028801   6.3765845  49.3175926  54.9766960   5.6226940  49.0511093
  56.3944969   6.0348144  49.3842506  80.6457443   8.3804235  50.6441231
  80.5590820   9.1858511  51.1540337  79.7983093   8.2789402  50.2107849
  62.2621155  21.2175884  10.9246578  62.5336723  20.3032322  10.8443937
  61.5669250  21.3189259  10.2745266  10.5866795  55.9634628  79.6629639
  11.1250601  55.8256073  80.4422989  11.2005749  56.2814217  79.0009460
  76.2433319  20.9719028  87.5401154  76.3860779  20.8790131  86.5981903
  75.5652466  20.3278847  87.7442551  75.8184128  56.6198349   2.8530283
  75.3018875  57.2854462   2.3987207  76.4740448  56.3463058   2.2114978
  79.5001678  52.8012047  61.5884666  78.7238922  53.3610878  61.5757065
  79.2609634  52.0477676  61.0486984  83.7130280  35.4946556  16.5771141
  83.3862457  36.2124557  17.1195221  83.7093353  34.7342529  17.1584969
  46.7765884  63.3707352  60.2784958  46.7138405  64.1733551  60.7962723
  47.3869743  63.5874634  59.5737305  71.7450256  69.5646667  64.4138565
  70.9627304  70.0071106  64.7432175  72.0559158  70.1253281  63.7030487
  69.3125305   2.7907953  75.1554794  69.4238586   2.2311957  75.9240417
  69.9477921   3.4961224  75.2787247  39.2231522  50.1628113   5.9528751
  39.0711250  50.6822128   6.7423959  38.3826408  49.7388611   5.7795539
   2.4481573  68.5571594  59.8970032   2.3593731  69.4607697  59.5939598
   1.9070821  68.5147018  60.6854630  44.5882339  32.3267136  13.0177164
  45.3558121  32.5547028  12.4932394  44.7890968  32.6582413  13.8929167
  70.4375381  44.2294998  48.7423515  69.6906815  43.9766617  49.2850342
  70.3364410  43.7154312  47.9412575  74.8033905  56.5097656  63.3737717
  75.1251678  57.4108467  63.3464394  74.5793457  56.3077927  62.4653435
  50.3985252  10.1113014  86.7598419  51.0105476  10.5879307  86.1990509
  50.9122849   9.3841610  87.1113434   3.5935309  30.4299545  12.1027079
   3.2452431  30.0525265  11.2949486   4.3586507  29.8925610  12.3077269
  82.4438248  39.7511559  30.2899628  82.8888779  40.5729980  30.4966679
  82.5630798  39.6449890  29.3461723  25.8442497  45.0957718   8.4910250
  26.0886497  46.0021324   8.6781387  24.9583473  45.1555214   8.1334829
  41.7224884  69.3988342   5.5116239  41.3428230  69.0089951   6.2990937
  41.0607376  69.2620010   4.8336926  76.7975845  18.4181156  13.9426060
  76.9370651  19.2129421  14.4574127  75.9290237  18.1125927  14.2043104
  63.6517639  39.7401619  69.8576660  63.1347504  39.8824768  69.0647736
  63.0139160  39.4534988  70.5112762   7.6724954  55.5980148  28.4623489
   6.8478575  55.3979073  28.0194473   7.4919562  55.4376450  29.3885880
  75.5248260  39.6296043  64.5493622  75.5762787  40.4888954  64.1307831
  76.4357300  39.3457909  64.6264114  64.4760666  42.6424446  77.9895325
  64.7399139  43.5575600  77.8937225  65.0327301  42.1668625  77.3729477
  30.1202469  47.2493668   0.8516664  29.4466400  47.4239883   1.5089288
  29.8022652  47.6854286   0.0611148  50.1146698   7.4732070  18.4140606
  50.0798492   7.4220548  19.3692589  50.7245979   8.1887608  18.2346020
  55.9489403   0.9299352  69.6711884  55.4397545   1.7355907  69.7599792
  56.2008743   0.9063303  68.7480392  11.0715513   6.6662169  35.8932076
  10.1584835   6.4240732  35.7385979  11.1459398   7.5547729  35.5451164
  17.7651138  48.8615036  87.0885544  18.5332050  48.7477455  86.5288010
  17.3054237  49.6132050  86.7145767  30.2827721  70.3371048  53.0309792
  30.9441376  70.9888535  52.7984810  30.6385365  69.9004059  53.8049049
  64.6583633  14.2203283   1.4072219  65.1362228  14.3527584   2.2259681
  64.7707901  15.0416937   0.9287343  73.0130005  11.5230951  85.4205322
  72.8581314  11.3467360  86.3485107  73.9662704  11.5329733  85.3344498
  22.0941658  14.5350847  31.5892296  21.8115005  14.7411852  32.4802132
  22.0066986  15.3608751  31.1131496  31.1916523   8.9366693  88.1741409
  30.4756622   8.6156664  87.6259232  31.6924534   8.1521454  88.3976440
  85.6803741  49.0555916   4.0855842  86.2988739  49.7847900   4.1298962
  85.1598358  49.1341286   4.8850231  84.4189911   6.0404854  85.7298431
  84.1551819   5.2152324  85.3229141  84.6906128   6.5929036  84.9968491
  80.0601044  33.3480949  32.7322311  80.1603012  33.5459213  33.6633911
  79.2934189  32.7765770  32.6899376   6.0861931  10.4764843  62.8650894
   6.6112332  10.3049755  62.0833282   5.7634058   9.6153212  63.1304893
  45.6867828  33.5132942  15.5168715  45.9809723  32.7876740  16.0674706
  46.4745979  34.0364799  15.3690424  12.4949503  13.4494352  22.3377724
  13.1636629  13.1010113  21.7481499  11.6802750  13.3878660  21.8390293
  49.1060562  46.1041794  52.8860893  48.7225380  46.5235939  53.6563110
  50.0307541  46.3497772  52.9151344  15.4219570   9.6307545  21.8863850
  15.6158352   8.7508841  21.5631657  16.2767887  10.0569954  21.9481297
  58.5335197   7.5115495  80.0270004  57.7987099   7.8423705  79.5104294
  59.0535736   8.2893124  80.2291412  42.5560570  22.4349556   5.7112556
  43.3100624  22.5837574   5.1406722  42.8655930  21.7990379   6.3562565
  65.7604294  24.0233860  34.1930161  65.7388840  24.6394176  33.4607086
  64.9870300  24.2421417  34.7128525  83.2457581  71.7943344  13.1827288
  83.3482285  71.0215073  12.6273203  83.9865875  71.7545395  13.7875566
   1.5806546  43.2554283  81.8092728   1.5540297  44.1905670  81.6066895
   2.4356763  43.1233292  82.2188034  46.1223869  46.2326622  33.3826599
  45.4880066  46.7461052  32.8824883  46.8914413  46.1832657  32.8149071
  81.8069153   3.8541820  10.4548883  82.2023010   4.2003994   9.6548672
  80.9060364   4.1771297  10.4359818  33.1076088  22.4537106   9.3472223
  32.4342842  21.8373852   9.0591154  33.2304115  22.2573738  10.2759867
  29.4248791  30.3731804  27.9116325  29.4997330  29.7372055  28.6230869
  28.9496403  31.1091518  28.2972832  50.8911018  54.3137665  74.1985931
  50.8590584  53.3700333  74.0418396  50.6375313  54.7042236  73.3622513
   5.0158401   3.3531334   4.6056561   4.5416441   3.2323811   3.7829845
   4.4242315   3.8738022   5.1489196  73.9148560  59.4485321  38.9337654
  74.3190689  59.7414970  39.7504768  74.1577301  60.1169319  38.2930794
  78.6944351  29.8655567  54.3031235  78.8246918  30.1677303  55.2019882
  79.5684357  29.6115017  54.0068130  79.6397629  25.2623367  72.9313965
  78.9394379  24.6101055  72.9507141  80.4232788  24.7655640  72.6957169
   9.4368153  19.5832367  84.3633652   8.9085207  20.1731586  84.9010696
   9.8223963  18.9697838  84.9888535  73.4769669  27.5904922  60.4441681
  74.4258347  27.6975574  60.5106468  73.3602448  26.8629646  59.8331757
  21.7362900  31.5969906  79.8313217  22.3526001  31.9052410  80.4956818
  21.4136677  30.7628918  80.1725311  61.2428436  55.8139496  47.3793640
  60.5045319  55.9965935  47.9605446  61.3199730  54.8598671  47.3827057
   5.7116566   3.7673750   7.7285385   5.5659375   4.6376081   7.3574700
   5.0704503   3.2090557   7.2888041  42.2860603  67.2768936  21.9241791
  42.5774574  68.0632401  22.3856754  42.8889236  67.1956787  21.1851311
  19.6880150   8.3593645  14.5186176  20.3913574   9.0076675  14.4833288
  19.4336357   8.2319603  13.6046753  36.6085472  10.5916224  16.3635826
  36.3390465  10.6168547  15.4454517  36.8549461  11.4941969  16.5657635
   2.9459586  25.8480263  78.5333939   2.2325199  25.3369102  78.1512985
   3.1674330  25.3838997  79.3407135  20.3866520  12.0405855  81.9321899
  20.7085323  11.8913574  81.0431671  20.9365368  11.4831285  82.4827347
  38.0228233  59.3848114  86.1889725  38.8196640  59.5933380  85.7013397
  38.2675095  58.6424904  86.7415314  25.6949444  60.8178482  81.1711349
  25.4150677  61.1054573  82.0401459  25.8103828  59.8715820  81.2576675
   9.8403196  49.0589218  83.7613297   9.6986351  49.4253273  82.8884583
   8.9671030  49.0263634  84.1520538  68.0214157  46.2036591  63.7328682
  67.6706085  45.5654182  64.3540115  67.8641739  45.8128128  62.8733635
  12.1367903  11.9360981  67.4223251  11.2480249  11.5975313  67.5304871
  12.5459538  11.3390455  66.7959442  60.1178246  33.6033287  11.2893219
  59.8214302  34.2064743  10.6077089  60.6501846  34.1441307  11.8727255
  60.4306488  40.4418259  70.9916458  60.5875244  40.1184349  70.1044922
  60.2534599  41.3756332  70.8783417  31.6114845  37.8761215   6.9436569
  32.4376335  38.1598587   6.5522475  31.0125484  37.7890434   6.2020874
  81.3733063  10.9931374  51.8203468  82.2376938  10.5884218  51.7478180
  81.4216614  11.7641792  51.2552032  30.7352734  52.1272774  78.9385223
  31.2658443  51.3466072  78.7795181  30.9373589  52.7077522  78.2047424
   7.0644269   9.9684639  60.1644592   7.9103680  10.3596172  59.9462509
   6.6696582   9.7633076  59.3169327  56.8849564  46.7658539  84.7849274
  56.0577126  46.5102310  84.3768158  57.2039299  47.4901237  84.2464828
  78.3781738  51.7166328  76.7659988  79.1428375  51.3104477  76.3579025
  78.0274811  52.2984009  76.0916214   0.7859308  62.5076981  73.7957687
   1.1593477  61.6400490  73.9506073   1.5196469  63.1098137  73.9196625
  41.2839012  23.3265991   9.4844790  41.5264130  23.7401733  10.3129578
  41.9608383  23.6081238   8.8690662  79.6648788  28.0407276  73.8327332
  79.7056046  27.1596775  73.4608154  79.3347473  28.5868454  73.1192932
  10.1478367  53.1934319  85.0277863   9.4415026  52.8779984  85.5915451
  10.6331253  52.4041290  84.7875137  72.7916870  67.6283951  21.3983803
  72.8261108  68.5574417  21.6262474  73.4365997  67.5295181  20.6979923
  48.9792175  68.9113541  87.5712509  48.2680817  69.5483170  87.5020142
  49.0191574  68.5020599  86.7068863   6.8937359  33.2614975   9.3886509
   6.7070627  33.2330246  10.3270397   6.7266831  34.1702576   9.1386795
  72.2687607  62.7124863  12.3065233  71.4584045  63.0147629  11.8964157
  72.5062561  63.4137726  12.9131737  66.8545609  46.1971817  75.3850555
  67.6318741  45.6878624  75.1557083  66.9761276  46.4169159  76.3087311
  74.8259735  58.9907150  70.3697968  75.5687637  58.4097252  70.5339355
  75.1726227  59.6626740  69.7828217  63.3222275   1.7268462  20.2473621
  64.2420807   1.5467931  20.0532513  63.2781410   1.7442278  21.2033882
  34.4170227  68.1157150  27.0097313  33.7923660  68.8349991  26.9166145
  34.5287323  68.0163879  27.9551888  59.0301514   2.0554698  27.9101562
  58.4234238   1.3151236  27.9091473  59.7451973   1.7783626  28.4830036
  59.8025246  29.1229076   2.4951923  59.4160042  29.3203983   3.3483219
  60.4123421  29.8433285   2.3359799   4.3295631  36.3597145  25.6098003
   4.0624895  37.0765495  26.1851711   4.4401264  35.6108513  26.1956425
  42.9727898  61.7607040  56.7574081  42.7687263  62.3768845  57.4609070
  43.7655334  61.3132706  57.0533714  66.8973236  58.2615318  75.4092484
  66.6350784  57.3580246  75.5857010  66.4804382  58.4731560  74.5739899
  15.2254343  67.3070221  28.1680946  14.9324465  68.2137299  28.2590771
  16.1227264  67.3106766  28.5013905  25.0949135  44.5751190  33.6054459
  25.5922241  45.2997971  33.2262917  25.5215168  43.7883682  33.2659416
  75.6013107  63.4171104  60.4939346  76.3288879  63.7288704  59.9557228
  74.8207321  63.6015892  59.9715462  62.6992302  66.5531387  32.1935234
  62.1744881  66.4833450  31.3960247  63.3817444  65.8900604  32.0899467
  64.5685806  53.2879295  78.0321350  64.4984894  54.1393471  77.6003876
  64.1719055  53.4224548  78.8928223  80.1811600  32.3964157   4.8660755
  80.9699631  32.3321838   5.4045029  80.5086288  32.5251312   3.9758914
  63.2628136   4.8008180  54.7510910  62.4627075   4.3904552  55.0792198
  63.2157478   5.7033734  55.0663834  51.4930305  58.2306175  59.9549561
  51.4216270  57.4677086  59.3812828  51.3642387  58.9802017  59.3737755
  11.9285297  50.3145142  81.5060577  11.9594402  50.3524132  82.4620056
  11.0690660  50.6700668  81.2799225  70.9550629  11.6802187   4.5365658
  71.6717758  12.1287394   4.9853220  70.3897171  12.3861408   4.2230544
  28.7544060   2.6861689  83.0145111  29.5535736   3.1761396  83.2081375
  29.0621281   1.8144065  82.7663803   9.3746929  65.4707794  51.2347412
   9.3054790  66.4057693  51.4276848   8.4725819  65.1907883  51.0797119
  45.1429901  62.3967819  69.2583084  45.2805481  62.7859459  70.1219406
  44.6940689  61.5704231  69.4367142  71.5886307  50.8922920  71.1887817
  72.1404877  51.4681816  71.7179642  71.9748993  50.0233688  71.2983398
  70.1831436  35.3429680  76.4888535  69.9806900  34.5122948  76.9192352
  71.1238708  35.3007317  76.3171539  28.9260216   5.2873802   3.3902068
  29.8333836   5.4825554   3.6243687  28.5984268   4.7608781   4.1193905
   6.7761469  68.3926392  48.5533066   7.3860750  68.1793213  47.8471107
   6.5250516  67.5437927  48.9174957  69.2149200  52.0640450  40.7006989
  68.7517242  51.4422035  41.2619400  69.6540833  51.5174713  40.0490685
  39.0682869  59.9095078  72.3483124  38.3571167  60.4682693  72.6617661
  38.7149734  59.0213203  72.3985901  83.2185135  63.8640404   8.8111792
  84.1065521  63.9408684   9.1600637  83.2519455  64.3178177   7.9690375
   7.3739104  67.9679642  68.4893112   8.0507984  68.4243546  68.9890747
   6.9864974  68.6461487  67.9359589  31.4427414  56.8201408  77.5864716
  31.1731853  57.5515594  78.1419830  30.7046223  56.6862221  76.9919281
  66.4723816  27.9111900   2.4476407  66.9897995  28.5003853   1.8986815
  65.5892410  27.9562378   2.0812142  74.0999527  24.4575348  20.3348541
  74.2942734  24.3391399  19.4050941  73.4151688  25.1260910  20.3531799
  40.9319954  28.1968250  24.0771618  41.5332909  27.4806995  23.8726139
  41.0556908  28.8242607  23.3649426  19.7003517  50.1393051  59.8370132
  19.2741909  50.7117958  59.1991463  20.0973415  50.7385941  60.4690628
  14.8577843  40.6148643  26.2223320  15.4263725  39.8488579  26.1437454
  15.4471884  41.3258362  26.4740314  33.1178970  15.9026403  21.1253891
  33.3958855  15.4388094  21.9152088  32.2926674  15.4843445  20.8799229
  15.4137068  65.1449661   3.4426978  14.9494104  65.7725372   2.8887942
  16.2588310  65.5590668   3.6173785   2.1245542  67.5225449  68.8720169
   1.5566782  66.7520981  68.8591003   1.6250122  68.1801987  69.3559341
  19.4923210  22.8920994   2.0086477  19.4987068  23.6265011   2.6225262
  20.3589935  22.9116478   1.6027824  78.6067734  56.1018791  49.0907402
  77.7888718  56.4501953  49.4456177  79.2076797  56.0956154  49.8357964
   2.2124805  45.7701988   6.3496671   2.3332393  46.0515366   5.4427509
   2.4950590  44.8556824   6.3563862  81.1778946  23.8925858  60.6859932
  81.5385971  24.3079510  59.9026680  81.4193420  24.4806099  61.4016533
  25.8135090  38.5402184   9.0641870  25.4588699  38.7039528   8.1903133
  25.5972710  37.6250305   9.2428160  44.3370628  18.5854321  74.1788712
  45.2843742  18.6547737  74.0604324  44.1768723  18.9525547  75.0482330
  68.4165344  10.8058949  46.9876442  67.9569244   9.9689245  47.0544968
  69.3274155  10.5660143  46.8173943  76.7220840   8.4414406  37.6241264
  76.9914398   9.0200815  38.3374672  75.7653809   8.4593773  37.6494370
  20.1933327  69.7654419   9.5383873  19.2651138  69.9812088   9.6283274
  20.2704239  68.8831635   9.9015341  56.6069374  45.1465721  40.3203926
  56.4158936  45.4777679  39.4428711  55.7897530  45.2654877  40.8044395
  28.9539299  11.2720900  32.8456459  29.4149895  11.2400475  33.6838760
  28.0722370  11.5707102  33.0685234  15.5360804  65.9485779  11.8513241
  14.5955286  66.0789032  11.7304611  15.8269539  66.7278671  12.3249550
   9.0733185  25.9387264  31.0794659   8.1319609  26.0632687  30.9587708
   9.1865282  24.9889431  31.1159229  37.1453400  11.1523685  77.2224274
  37.5568466  11.9596081  76.9137878  36.3588295  11.4452772  77.6826859
  31.2201729  20.3006687  84.7085724  30.5822163  20.3887768  84.0004196
  30.7131100  20.4463787  85.5072479  46.1465225  17.4000492   7.7966580
  45.9144135  18.1767406   7.2876310  47.0739746  17.2579288   7.6072884
  14.2435951  29.8169880  22.2344933  14.1747360  29.2499104  23.0025501
  13.4065762  30.2802811  22.2030201  10.5354385  18.7397499  88.4601517
  10.5446291  19.6969032  88.4621353  10.6394014  18.4973221  89.3802872
  22.3927288  23.8048611  73.7912674  22.4815235  24.2954502  74.6083755
  23.2695198  23.4599018  73.6225281  57.3096619  37.9103241  85.8424530
  57.8294907  38.0007744  85.0438080  56.7841530  38.7095795  85.8779831
  45.3584824  31.9398003  21.1482449  44.9424706  32.5775948  21.7282295
  46.1611977  32.3707962  20.8547783  79.5272827  55.7571068  22.9487514
  80.2174377  55.4824028  22.3450451  79.3112106  56.6487503  22.6757736
  64.9304047  18.2079601  44.8376884  65.3087769  19.0871525  44.8469276
  64.5329437  18.1273613  43.9706421  66.8964462   3.7669377   4.8467236
  67.8130722   3.5494261   5.0161977  66.9009476   4.1598263   3.9738834
  23.5270557  23.6142139  10.9316034  23.5292530  22.7811604  10.4601707
  22.6137505  23.7418270  11.1881533   5.5000405  33.3520546  78.3148422
   5.5315509  34.2711143  78.0491867   4.6222205  33.2379761  78.6790543
  22.7388668  36.9904442   9.8933115  22.9790516  36.0902939  10.1130161
  21.8932343  36.9117317   9.4517899  28.8815689  36.7850800  75.9523010
  29.0980530  36.9123039  76.8759842  29.3049774  35.9590302  75.7186432
  83.1879196  69.1099014   5.0451875  83.6932831  69.9059067   4.8802133
  83.7194290  68.4069901   4.6714907  71.8128891  13.2570353  29.9824257
  71.7780533  12.8658228  29.1095142  72.7468643  13.3778734  30.1536427
  14.2780704  70.0909576  63.4076729  14.7496557  69.2649536  63.3001518
  14.8093233  70.7331009  62.9368706  81.7593765  56.8892021   0.4566546
  81.6338043  56.0093346   0.8120372  81.6928101  56.7762909  -0.4915284
  17.9850998  43.0213394  60.0400925  17.1108856  43.2600479  59.7318764
  17.8417816  42.6714745  60.9194603  24.7269573   5.9858937   4.3937907
  25.0375233   6.2043352   3.5151186  23.8560658   5.6139331   4.2544222
  71.7531586  13.6512508  66.6528549  71.2909088  13.3007488  65.8914719
  72.2976303  12.9253521  66.9575729  72.5246735  53.0181503  67.6680756
  71.9507828  53.5717087  67.1384888  73.2826614  53.5711174  67.8575745
   5.9409995  28.4293633  18.6715565   6.0364857  28.4466038  19.6238251
   5.1867208  27.8607483  18.5167313  18.8027477  71.1767349  67.0642624
  19.3380985  71.7249146  66.4905701  18.5571938  70.4286499  66.5199280
  38.9756393  58.5022125  21.5264587  39.0367279  58.5637589  20.5731964
  39.8837013  58.5358582  21.8273239  65.0027771  31.2775879  22.6574974
  64.5241013  31.9225044  22.1367455  65.1880646  30.5653782  22.0454044
  70.3385391   0.6654824  65.4752121  69.9756699  -0.1864502  65.2327805
  69.5942230   1.1500298  65.8322067  22.5671749   1.0871282  67.5228806
  23.3813171   1.0688294  67.0198135  22.3591022   0.1653500  67.6753998
  43.5264549  65.4548035  54.7590866  44.0974541  66.2080383  54.6080055
  42.6665764  65.7403564  54.4503860   1.0715011  46.0641708  11.3647575
   1.8308585  46.6464233  11.3404856   0.3797051  46.5541115  10.9202271
  44.5372276  39.0603065   4.5166216  45.1817245  38.6478539   3.9415238
  43.9512482  39.5290718   3.9223828  48.9358597  64.2978439  55.7213898
  48.7186890  65.1183395  55.2788277  49.6700020  63.9425087  55.2203903
  15.1720705  47.6784935  88.5161667  14.9862099  46.9137688  89.0610428
  15.6871672  48.2551384  89.0804291   7.3293786   8.2419949  82.9954147
   7.1941218   7.3028660  82.8690262   7.8448420   8.3036461  83.7996140
  19.8761177  64.6361618  42.7535057  20.0186043  64.8181915  41.8246384
  20.7139606  64.2902451  43.0610619  13.1437960  36.9051476  24.2889767
  13.1003828  36.0620689  23.8377934  13.3625069  37.5339012  23.6011791
  41.8581543  62.3443909  10.6253910  41.5198898  62.8264732  11.3799820
  42.5485916  61.7882996  10.9863443  58.4406662   7.1946774  23.4504719
  57.5253563   6.9217892  23.5134621  58.4794655   8.0172882  23.9383621
  66.5015564  42.0715294  83.8982391  67.2908707  42.4246407  83.4877090
  66.8206863  41.3725739  84.4690704   1.6628766   7.9401522   6.8698096
   1.7402022   7.4534783   7.6904197   1.4300971   8.8286457   7.1392989
  62.8672600  19.8338413  69.9188919  62.5421600  20.6016312  70.3890381
  63.6978912  20.1197529  69.5387039  49.7025757  44.6523743   7.5223150
  49.1455193  44.2803650   6.8385539  50.2745895  45.2640724   7.0587902
  77.3715363  50.1887894   4.7635317  76.7413788  49.7543030   5.3382936
  77.6308289  49.5125160   4.1377106  39.4480972  56.4707451  78.7692413
  39.0695610  57.3494873  78.7966919  38.6943398  55.8880348  78.6769028
  55.9398689   3.2462513  34.1779022  56.8307686   3.5785186  34.2880173
  56.0496788   2.3038704  34.0510483  39.5852890  29.7458763  81.2236099
  38.9115181  29.0727005  81.3189926  39.3998299  30.3713131  81.9240875
  18.0477829  45.6558647  87.5386581  18.8433208  45.7127609  88.0679169
  17.8837299  46.5553513  87.2553864  15.8126574   1.3040890  33.5027657
  15.8543644   0.3683642  33.7000237  15.3169556   1.6803242  34.2300606
  35.8758316   9.1182575   1.0392525  35.3392296   9.5137415   1.7261882
  35.4996796   8.2471371   0.9131983  63.6238289  23.6278324  55.6966705
  62.8285904  23.9751911  56.1006088  63.4932671  23.7607441  54.7577782
   7.1538997  44.2060394  11.4937820   6.6970448  44.5850487  12.2446928
   6.6475706  44.4949760  10.7345858  13.9593573  56.4858246  39.9886856
  13.6829128  55.9651566  40.7428169  14.0588779  55.8487129  39.2812843
  35.8950844  17.4396725  71.2749557  34.9618034  17.4970646  71.4797134
  36.2708168  18.2390537  71.6438065   1.8305951   9.6370449  42.5922852
   1.1903886  10.1374655  43.0981979   2.2659192  10.2899599  42.0441742
  57.9110985  46.7131882  72.6657562  57.5987167  47.5093307  73.0956421
  58.7933159  46.9330063  72.3664246  63.0625305  34.6525497  41.4486046
  63.7019043  35.3407173  41.2646027  62.6694870  34.4571381  40.5979767
   3.7437530  68.3401794  77.5698471   2.8988609  68.4033890  78.0152588
   3.9513037  69.2408600  77.3209991  30.5671902  18.8496227  11.0866461
  30.0561504  18.8728580  11.8956776  30.6925831  17.9174004  10.9092493
  70.6473465  32.8551025  20.6422844  71.2066650  33.0241661  19.8841209
  69.7560196  32.9696617  20.3126659  71.2792053  65.9600067  26.0778217
  70.3414154  65.8489075  25.9214745  71.3294601  66.4207764  26.9153156
  56.4342308  47.6085854  58.3025246  56.3978615  47.9519234  59.1952896
  55.8423271  46.8563805  58.3108940  22.9214516  39.6700401  87.2201385
  23.4819717  39.1003799  87.7469559  22.5590305  39.0936661  86.5473251
  15.1021347  54.2545013  51.2666206  15.6312304  54.9122124  50.8152847
  14.4734688  54.7631226  51.7787895  32.9050598  65.4839554  15.7325583
  33.2789001  64.6881332  16.1108990  32.0689659  65.2026443  15.3610229
  33.5702286   6.4774065  40.9125633  32.7455978   6.0467653  41.1378708
  33.6905441   7.1368675  41.5958405   3.2210236  41.6253777   8.4331951
   3.1224763  42.2461624   9.1551008   4.0478320  41.8704147   8.0177717
  38.0742607  33.9295273  10.7329731  37.2618141  34.2232895  10.3208237
  38.2071915  33.0436134  10.3957500   7.4702802   3.6787710  18.9766560
   8.1947203   4.2910514  18.8480835   7.5553026   3.0527356  18.2575703
  82.4992294  45.9395180  54.5418625  82.2221832  45.0601997  54.2844276
  82.4977722  45.9205246  55.4988708  80.1421585  36.5741234  64.7166214
  79.3777390  35.9990959  64.6815186  80.8852539  35.9789314  64.8155594
  77.9255600  19.5125389  21.2545280  77.9209976  18.6517086  21.6730747
  77.1291046  19.9377003  21.5725250  37.3749542  66.8967056  59.6851463
  37.3901329  66.0233002  59.2937813  36.6065292  66.8901062  60.2558556
  64.0775681  45.9153099  55.7477112  64.0465698  46.8026886  56.1052513
  64.8443451  45.5175667  56.1601181  35.8606758  31.0413971  87.8992004
  36.5551186  30.4616375  87.5863724  36.3177376  31.8366661  88.1728363
  25.7489510  52.7390366  64.5190811  26.3000355  52.3447914  63.8429794
  25.3473167  53.4946632  64.0901794   7.1353540  19.7909737  80.0068359
   6.7202644  19.0547485  79.5574951   7.4454775  20.3583088  79.3010101
  22.3535843  49.5153275  44.7367325  21.5216141  49.4374199  45.2036285
  23.0185413  49.4768448  45.4241791  44.4810562  49.2253761  81.2578506
  44.0680466  49.7319603  81.9571609  45.2499428  49.7395897  81.0116196
  54.9023399  48.6153946  55.2856865  55.7515373  49.0564651  55.2621689
  54.3735428  49.1455002  55.8820000  75.1318436  62.2433090  86.2534332
  75.8168182  62.8280411  85.9291992  75.5369644  61.7848816  86.9896164
  59.1362419  69.7796402  47.8959465  59.0558815  70.7048798  47.6642151
  59.4871521  69.3649445  47.1078339  80.5354233  47.6083374  52.9987144
  80.8792877  47.3086395  52.1571846  80.8917618  46.9902649  53.6368713
  86.3437424  10.2117996  52.3983955  87.1782074  10.1989040  51.9296341
  86.5363922   9.8019438  53.2416840  74.0536804  69.0787659  84.3708267
  74.3742828  68.5184631  83.6640701  74.4208832  69.9414215  84.1778946
  74.0153809  51.0040436  48.1857109  74.8984528  51.3003426  47.9651985
  73.4371109  51.6377220  47.7611008  81.9713440  33.5061378  30.7746944
  81.8635483  34.4190712  30.5079269  81.3808670  33.4033699  31.5210190
   6.0383492  21.6797619   8.1373796   5.5303965  21.7599087   8.9447165
   6.2831821  22.5787888   7.9182024  63.0643997  28.9884396  49.9490089
  62.3209648  28.4508343  49.6760330  63.1268578  29.6688786  49.2786865
  86.0739594   1.1287656  55.7300072  86.8522949   1.5942684  55.4238510
  86.0429153   1.3064301  56.6700630  35.1418648  62.4149246   8.5311251
  35.7912254  62.8513451   9.0825796  35.4706993  61.5210762   8.4355612
  31.8494129  69.3304291  42.7886200  32.2682953  69.9796982  42.2236290
  30.9219894  69.5671158  42.7788048  71.0013962  51.9854164  54.7478600
  70.8043976  51.2380180  54.1832199  71.0846100  51.6084938  55.6237793
   7.2000375  47.9117851  71.5111923   8.1165123  47.8215866  71.2500992
   6.7378664  48.1130028  70.6974716  20.6327477  13.9561062  73.0118103
  20.3810902  13.8172398  72.0987854  19.8115540  14.1636219  73.4576950
  63.7742996  56.1509247  87.3424149  64.1871033  56.9967308  87.1679764
  64.4644394  55.6268921  87.7490158  21.4885826  67.5325394  76.9668427
  21.7616215  67.6822433  76.0617065  20.5320396  67.5449753  76.9336395
  85.3593521  38.6274757  72.9822006  85.9679489  39.0933342  72.4087753
  85.7591019  37.7667465  73.1070099  23.9240704  60.9886513  42.3185577
  24.0236568  61.1567574  41.3815155  23.7958641  60.0420532  42.3797760
  29.1464806  53.2651596  82.5215912  28.8501740  53.1516304  83.4246674
  30.0987549  53.3349380  82.5889435  25.8489914  13.7056561  88.3091660
  25.4975033  14.4352980  87.7989578  25.2607212  12.9749489  88.1188049
  72.7069473   5.1079564  43.5972252  73.5510712   4.6568322  43.5843544
  72.7996597   5.7700939  44.2822151  23.9534912  67.7698975  34.6836777
  23.5687714  67.5101471  35.5207863  23.4648418  67.2697067  34.0300255
  20.2555408  18.6858234  27.3236923  20.9731770  18.6874599  26.6902676
  20.3263588  17.8386898  27.7636738  47.4156380   7.8585215  59.5645370
  47.7024727   7.4322944  60.3721809  48.2279053   8.0809221  59.1095695
  13.7139826  31.7825298   3.4962890  12.9601135  31.6474628   4.0704589
  13.4199677  32.4397926   2.8655806  21.2568378  69.7340927  65.2222061
  21.5577869  68.8564835  64.9867096  20.6056919  69.9510727  64.5550003
  76.0108337  12.4925623  28.1074486  76.4711227  12.7442036  27.3067951
  76.6494522  11.9754953  28.5984116  22.0788059  38.2892685  54.2551727
  22.0061436  38.0758018  53.3249130  21.1959381  38.1576347  54.6007881
  60.1860886  58.7715530  81.5270538  59.8009415  59.0790253  80.7064743
  60.9772835  58.3037643  81.2598114  79.6821899  16.2154350  22.2234993
  80.1356583  16.2118778  21.3805370  80.3564606  16.4605293  22.8571568
  45.7775497  70.2815018  34.1635933  44.8348312  70.3936844  34.0414238
  46.1713524  70.9846115  33.6470757  71.6804733  41.9982109  87.9370575
  72.6183014  41.8435516  87.8239899  71.6158524  42.9273682  88.1577911
  63.9410744  56.5152588  43.9019318  63.2492371  56.9029770  44.4379082
  63.8224869  55.5709572  44.0042114  19.1260357   6.5327530  49.2546844
  19.7614307   7.2486143  49.2616196  19.5084419   5.8675294  49.8269386
  73.0367355  68.0738220  54.8986588  73.5400543  67.6438522  55.5900574
  73.6587982  68.1772232  54.1785355  17.0732117   5.6101079  64.9814301
  16.7672329   5.1649561  65.7716522  16.8987751   6.5368147  65.1458054
  77.5244446   5.7177701  54.0120430  77.5695267   5.8350544  54.9609604
  78.4235077   5.5161819  53.7526474  81.2153397  42.6957741  65.3939285
  80.8016357  42.4144669  64.5778732  81.0896759  41.9593925  65.9924164
  79.7973251  31.0329266  62.5937119  79.1649246  31.6735668  62.2683258
  80.3497238  30.8361092  61.8371735  85.7128906  38.6109619  42.2486534
  86.3916931  38.6955338  41.5791016  85.7155075  37.6812248  42.4762802
  33.4669075  47.1775780  33.0130997  33.6374016  47.5523796  33.8772125
  33.0858955  46.3186340  33.1955261  59.1837578  68.8248138  72.8990707
  58.4472313  68.2361374  72.7340851  59.6769028  68.8271866  72.0786819
  51.6919518  17.0821266  82.1829605  51.4380722  17.0452442  83.1051407
  50.9647064  17.5312424  81.7521057  58.6039352  26.1691284  50.2062149
  58.8313332  26.3044701  49.2863235  57.7274704  25.7851181  50.1822815
   8.6471615  40.7327690   4.8102632   9.4334354  41.2242966   5.0477633
   8.7572317  40.5401878   3.8791194  80.2771149  23.9526539  31.8130131
  80.2228394  24.8926735  31.9852047  80.9960861  23.8649139  31.1872158
  24.6475792  20.6251411  14.8719187  24.1001434  20.4488945  14.1067495
  24.1616039  20.2490940  15.6058455  34.4406700  46.7124329  70.7500458
  33.8727798  47.1991081  71.3474350  35.3274384  46.9806595  70.9907379
  42.7823944  19.7865696  86.5082932  42.0994835  19.2644691  86.9293365
  42.5795555  20.6891747  86.7540436   7.3337903  57.5038223  76.8581924
   8.2325211  57.4982185  76.5288239   7.3873043  57.0660210  77.7077255
  77.4216995   5.4317660  74.9050980  76.6622543   5.5250897  75.4802170
  77.0945969   4.9349766  74.1551437  17.3901443  70.1707840  44.8137283
  16.7455559  70.3906937  44.1411400  16.9076633  69.6321411  45.4408722
  53.2810783   4.3407631  60.8435707  52.5591049   3.8386712  60.4655571
  52.8538742   4.9988518  61.3918839  39.0088158  42.4670601  87.4475174
  38.9508934  42.9375458  86.6159363  39.5125389  41.6793709  87.2424698
   7.6602306  40.1825523  21.8118706   8.4834776  40.0894470  21.3324661
   7.9207077  40.2071037  22.7326202  69.8289261  68.2202682  30.5894470
  70.2059402  68.0787811  31.4578209  69.3468857  69.0434113  30.6688347
  61.8419876  57.3958130  45.2557564  61.6941910  56.9079552  46.0659294
  60.9645767  57.6329803  44.9555321  72.8019867  58.2647972  84.1550598
  73.3601151  57.6215439  84.5920334  71.9147186  57.9202652  84.2564850
   0.7300950   2.8197069   5.8975329   0.4236801   3.3843944   6.6070890
  -0.0222791   2.7426848   5.3108196  40.4312210  35.5860939  22.7024307
  40.9671745  35.6878967  21.9159031  39.5293274  35.6396332  22.3862801
  45.9447174   1.3044376  59.7241020  45.1438789   1.6711558  60.0988045
  45.7435570   0.3784845  59.5885391  14.0097656  45.3601227  63.1296272
  13.4180613  45.0714645  62.4347878  14.8731718  45.3782501  62.7167892
  84.2412949  60.4139175  66.6236496  84.4023666  59.5872002  67.0784378
  84.2982178  60.1911659  65.6944656  64.8364944  34.8386192  46.7166100
  64.0355225  34.9131088  46.1978455  64.6757507  35.3858719  47.4853172
  39.0095100  50.6576118  63.5455818  39.1282158  51.1972198  64.3272247
  38.1467361  50.2587700  63.6586418  57.9414024  33.2597504  84.2836838
  57.7134972  33.8703995  84.9846802  58.1612473  33.8204384  83.5396881
  66.3055649  30.3620567  16.7992706  66.7035751  31.2323303  16.7782192
  66.5570755  30.0041924  17.6506863  45.0148506  45.1861000  15.7069130
  44.6646309  45.9695282  16.1309643  44.6435890  45.2049370  14.8248444
  12.2445850   4.6839170  32.2949257  11.7852306   4.3288312  31.5339146
  12.3985376   3.9248836  32.8574181  52.9294357  61.4232483  21.5363712
  52.8167953  60.5729752  21.9613209  52.7574196  62.0616112  22.2285652
  79.6732483   3.3398790  14.4173460  78.7884140   2.9889956  14.5182285
  79.5822754   4.0354228  13.7660599  47.4152184  32.2577057  12.2978125
  48.1972122  31.9115200  12.7277756  47.6152763  33.1810760  12.1441994
  84.6605377   6.2698965  37.4924660  85.3322601   5.9317665  38.0846558
  83.8325653   6.0064187  37.8940506  68.1863785  59.5206642  85.8735809
  69.1393051  59.5181007  85.7832336  67.8639832  59.2350388  85.0187607
  21.7781181  61.3747673  19.1679630  21.3612099  60.5246086  19.3081284
  22.5596752  61.1761475  18.6522579  75.1414871  26.5493946  81.9185715
  74.3529739  27.0690155  81.7621307  75.8641663  27.1482620  81.7306366
  33.6235046  62.4244537  63.0179863  33.8079605  61.5038490  63.2042427
  32.7143288  62.4307632  62.7186737  68.6744690   3.9446518  43.0929985
  69.3102875   4.2631912  43.7336998  69.2046585   3.6751919  42.3429871
  64.0558929  23.4985580  39.1785774  64.0481110  24.1558533  39.8743744
  63.2237930  23.6230812  38.7221413  77.3770676  66.2055435  33.5584106
  77.8540344  65.8561554  32.8056450  77.7379913  67.0830994  33.6843529
  58.9544563  21.2870407  44.3916206  59.8927002  21.1289177  44.2870903
  58.6860847  20.6854210  45.0860748  14.2335358  14.1751022  16.4813766
  14.5862627  15.0232611  16.2122269  14.6641273  13.9906168  17.3161144
  30.0778217   2.1116085  13.4266167  29.2793484   2.2216258  12.9103136
  30.7791786   2.0678844  12.7766790  70.8019867  32.7660484  25.4512215
  71.2837524  33.4599190  25.0010223  70.0625610  33.2149544  25.8610630
  82.1126099  32.7333984   6.9249549  81.7547684  32.6853561   7.8114476
  83.0404053  32.9318581   7.0516143  85.3811798  68.7533112  54.1751175
  85.4413681  69.6946030  54.3381538  85.4121857  68.3569565  55.0458488
  45.2836914  68.6985245  18.3576298  45.9676781  68.1111374  18.6791458
  45.0262375  68.3271561  17.5138092  27.5274487  68.0193481  42.8544998
  26.6253929  67.7250519  42.9806709  28.0337944  67.2111893  42.7724991
  30.8447914  54.0360756  63.9607353  29.9633751  53.6658249  63.9132652
  30.9817448  54.2098503  64.8920135   5.3563623  57.9133415  55.0981560
   5.4717569  58.7617035  55.5261726   4.9834309  57.3512115  55.7772484
  26.6548958  54.2362289  48.3193626  25.6980038  54.2463493  48.2973175
  26.9177914  54.5800323  47.4655952  68.0768509  62.8288116  76.9379196
  68.4705811  61.9762764  76.7524643  67.1989746  62.6224785  77.2588577
  27.9286289  36.9043274   3.8570538  28.2532463  37.6984825   4.2815247
  28.2001438  36.1939621   4.4383402  77.7125702  20.0682755  50.8960609
  78.1390610  19.4784813  51.5177307  78.4314423  20.5653057  50.5056496
  71.5054626  45.6015358  10.1246567  72.1191254  45.7549744   9.4062538
  71.3065720  44.6665878  10.0741940  80.1834106  22.4013710   3.8481622
  79.6380310  21.6364899   4.0318756  79.6045380  23.0007019   3.3770554
  45.1589317  23.1196766   4.8632116  46.0906792  23.0670700   5.0760779
  45.0349884  24.0157051   4.5501575  66.6283112  48.2215271  31.2849464
  66.2155533  49.0833244  31.3412399  67.2019653  48.1802750  32.0500946
  22.6624203   4.5503755  80.0279465  22.8729172   3.9129152  79.3456192
  23.5046196   4.9439278  80.2560883  17.0134563  62.2993698  46.4557495
  17.2047138  61.6213226  45.8077469  17.7595921  62.2753830  47.0548668
  83.8946762   0.4410320  19.0884953  83.9304199   1.3503255  18.7916107
  82.9924622   0.1693290  18.9199333  12.8739653  35.0639877  15.6799307
  13.6313238  35.2120934  15.1136217  12.2275229  34.6461258  15.1109552
  43.0832443  55.9928780  83.3138580  42.4302826  56.1684875  83.9913788
  42.5870018  55.5890465  82.6018906  18.8017521  52.3311081  67.0971069
  19.7214394  52.2052269  67.3306885  18.7411633  53.2543297  66.8517075
   3.2596972   2.2024994  27.1265659   2.5780945   2.5698037  26.5637703
   3.7537706   2.9632812  27.4320717  50.3980522  54.6824875  52.4213600
  50.8721352  54.6070137  53.2494812  50.5040436  53.8267174  52.0058441
  41.4178467   7.6038942  57.4967842  41.2231483   8.1035252  56.7038841
  41.3535538   8.2443237  58.2052650  62.4749413  15.5620174  42.0123863
  61.9967880  15.2885141  42.7952003  62.7746010  14.7436047  41.6166153
  74.3566360   9.6070833  39.1301193  74.1349106   8.7244120  39.4267044
  74.7294312  10.0326118  39.9022446   0.0703431   8.9606323  74.2081757
   0.1085555   8.1157627  73.7598801   0.7970667   8.9345875  74.8306122
   4.4499307  61.0585785   7.2547717   3.5333252  60.9064369   7.0247293
   4.5515399  60.6520462   8.1153746  54.5487823  23.3550854  59.0901642
  55.2712364  23.7917156  58.6388931  53.9271812  24.0571594  59.2823563
  18.6759148  68.6064377  75.1792603  18.8054771  69.4377289  74.7227554
  18.0080795  68.1524887  74.6652985  28.6184826   6.7046890  80.6904068
  28.1001606   7.1724482  80.0355988  27.9781303   6.1845813  81.1758652
  64.0379257   3.0976956  33.6036644  64.9897461   3.0556982  33.6958771
  63.8752136   2.8630261  32.6900520  29.0206928   9.6314993  15.9940538
  29.6404877  10.2167339  16.4294682  28.2302628  10.1597452  15.8826609
  28.2212524  24.9587841   0.3103129  27.5247974  25.4720268   0.7199045
  28.0033779  24.9602833  -0.6217602  62.0448914  15.1863070  33.7859612
  61.5693932  15.1499386  34.6159096  61.4820061  14.7214251  33.1668663
  22.7319107  68.2280960   5.4099045  22.1796112  68.7293015   4.8099160
  22.9784870  68.8556747   6.0892959  33.6446991  66.5050812  39.2282372
  33.4333305  67.1370621  38.5411034  34.2386322  66.9762878  39.8125648
  57.2168694  18.8363781  37.6002045  57.6544571  19.1734467  36.8184547
  57.8872757  18.8686714  38.2826576  23.0403957  21.2350330  71.9908218
  22.1223679  21.4983101  71.9264679  23.0476189  20.3204269  71.7085571
  32.3891335  66.9202881  74.9140701  32.6055565  67.4195404  74.1265793
  33.1016312  66.2868042  74.9993973  53.8110886  18.6526203  83.7453232
  52.9221306  19.0055485  83.7830811  53.6904945  17.7041397  83.6997833
  26.6687832  70.1581879  29.5582066  26.6914806  69.8465881  28.6534290
  27.2122288  69.5346527  30.0399723  75.2977829  33.2979240  55.1011314
  75.0439529  32.3772392  55.1654739  74.7172928  33.6601982  54.4317856
  30.0655861  22.5456142  88.9542389  29.7030602  23.4011631  89.1841125
  30.5267639  22.6948338  88.1288452  30.3484440  26.0157623  80.6152344
  29.9652729  25.3733692  81.2125168  29.6640339  26.6752338  80.5016098
  74.6670685  63.6142044   5.6512656  74.6234436  62.6982803   5.9258823
  75.5292206  63.7015495   5.2446952  50.1102715  62.3806610  60.5108299
  49.7164536  63.0659523  59.9709129  50.5847435  62.8560867  61.1927986
  34.2267151  68.8284149  29.7894497  34.7193718  69.5084839  29.3300743
  33.5539932  69.3062973  30.2745304  14.0167646   8.3251877   0.3306244
  14.4622974   8.8901901  -0.3006473  13.2728739   8.8453798   0.6343648
  54.7888222  41.7623405  54.7074699  55.7365265  41.8612328  54.7986221
  54.4964333  41.4551201  55.5655823  24.9903145  42.1315765  81.7206802
  25.7038441  41.8154945  81.1664200  24.5732574  41.3359146  82.0511627
  86.5115585  36.8880730   4.3367696  86.3634033  37.5716934   3.6833580
  87.3919678  37.0618401   4.6698136  26.2427101  63.7226486  18.9753151
  27.0498238  63.2672081  19.2148495  26.4732361  64.2228012  18.1924152
  71.0214615  30.8503342  33.1018944  70.0966492  30.7198906  33.3115273
  71.0164108  31.4665604  32.3694534  73.0214767  43.5379372  85.3381119
  72.6642227  44.4201469  85.4396210  72.5315247  43.1639175  84.6057968
  24.3109856  20.0059223  75.3950958  24.4238510  19.1827145  74.9198837
  23.5339870  19.8655262  75.9361954  75.8059692  52.4111671  80.1729126
  75.6202393  52.9234314  80.9598846  75.5255508  51.5229645  80.3935776
  34.8874397   3.7001095  70.5104370  35.0929413   3.4161050  71.4011307
  35.2239952   2.9993539  69.9519501  56.2578316  46.1341324  37.7167130
  55.4281502  45.8705902  37.3187103  56.1677628  47.0768051  37.8563042
  75.2199707  70.1206055   2.5139349  76.1478348  70.1413422   2.7481863
  75.1997147  69.7040710   1.6523526  51.3828773  33.4955025   2.2519259
  51.6124649  34.3882179   2.5099661  50.4280205  33.5034828   2.1854262
  39.0546112  68.6644821  35.1933289  38.5679932  69.4032898  34.8278198
  38.4345856  68.2386780  35.7853508  53.5253677  71.1653671  24.5603523
  54.2084351  70.9613495  23.9215813  52.7471886  70.7159653  24.2306538
  25.8624249  13.9981136  76.4229202  26.4904671  13.2771111  76.3787613
  25.5581322  14.1062126  75.5218353  23.1730499  49.4094772   6.1897154
  22.5753288  49.1423416   6.8879991  23.2009735  50.3643303   6.2505856
  78.7134628   5.1569543   6.4691024  79.2921906   5.8565454   6.1659899
  78.0726776   5.6002288   7.0250974  25.7022343  64.6173553  76.5733566
  25.7514935  65.4611664  76.1241455  24.7754974  64.5150909  76.7899933
  74.4773788  39.1596680  28.5568390  75.3517609  38.8093605  28.7270374
  74.6301346  39.9285126  28.0074978   4.5429192  63.4164200  85.3435440
   4.8018212  64.1039734  85.9571152   5.1772208  63.4812317  84.6296234
   3.6584873  33.0463448  10.3432512   3.8124816  32.3388748   9.7171507
   3.8204021  33.8470917   9.8444328   6.9799662  18.3705330  20.1133747
   6.4700069  17.9852695  20.8259392   6.9742231  19.3102131  20.2955837
  60.1281090  59.8435402  55.5786934  60.5242500  59.1270218  55.0828056
  60.8204803  60.5012779  55.6437454  61.1359291  44.3662033   4.0209618
  60.4100075  43.9034462   3.6024809  61.3983612  43.7962608   4.7438197
  24.0543194  70.2277679  44.7360649  23.6489964  69.5701447  44.1708412
  23.3206615  70.7506866  45.0593834  53.9900551  45.6128120  55.1334076
  54.2672081  46.5071144  54.9343071  53.0336800  45.6495018  55.1183929
  62.0084724  24.8712616  30.7416248  62.6734238  25.2804508  30.1878834
  61.5751572  24.2391052  30.1681709  47.9534760  15.1593733  66.9072800
  47.5603943  14.7570210  67.6817703  48.6340370  15.7352076  67.2558289
  69.9062042  65.3275146  14.4939432  70.1421127  66.0624084  15.0600758
  69.2817383  65.6969681  13.8696165  60.2444954  12.9071245  42.4381905
  59.3283691  13.1147718  42.6221161  60.7406921  13.4481125  43.0524788
  21.9057159  38.7821999  12.4272175  22.8075352  38.8465271  12.1128654
  21.9411411  39.1110687  13.3254499  34.8675041  32.3210793  16.8464680
  34.3413506  32.8407974  17.4541607  34.3201714  31.5622864  16.6442547
  32.5335770   1.3724270  11.9621639  33.4023781   1.3800852  12.3638554
  32.6325607   1.8965387  11.1673431  14.0368900  33.6477432  20.4892921
  13.7561979  34.5204086  20.2137909  14.3181028  33.2201195  19.6804123
  33.2203369  10.2493076  44.6676788  32.4787560  10.8455601  44.7714691
  33.9610939  10.8211460  44.4664078  21.7556496  58.9988327  63.1657906
  22.3284111  59.4011383  62.5128555  20.8751526  59.0924263  62.8022003
  84.4378128  46.3100700  79.6485062  85.0990067  46.7361832  80.1939392
  84.2875214  45.4644203  80.0710297  20.7741413  26.0143642  76.8429565
  21.5803776  25.7554836  76.3966446  20.0771275  25.5862274  76.3458633
  35.5413895  64.2499008  62.6002884  36.3413811  63.9054680  62.9972954
  34.8632202  63.6191750  62.8421669  86.0382843   8.1214771  17.4178333
  86.5441513   7.9267659  18.2067699  86.0797806   9.0742502  17.3357792
  82.0355072  47.7994537  57.2043915  81.4743118  48.5748138  57.1941643
  81.4254761  47.0620193  57.1874962  38.3618393   4.6177583  48.3515549
  38.3999214   4.3661017  49.2742958  38.7929955   3.8989859  47.8892746
  36.6100922   3.8300939  58.8972931  35.7536163   4.2531815  58.8366318
  36.4133148   2.8937213  58.9240952  75.1631241  55.3750420   5.1635480
  74.3156509  55.3843994   4.7186561  75.7734680  55.7419510   4.5239439
   6.8545785  63.4515877  36.7289429   6.0922093  63.7371750  37.2323952
   6.4876108  62.9390488  36.0086174  49.3973274   7.0139232   5.0648088
  48.7233849   7.2770557   5.6915431  49.7772713   6.2199392   5.4409237
  43.8337746  66.5256805  28.6871262  43.6090202  66.0675583  29.4969654
  43.6015892  65.9104538  27.9915581   9.5110235  45.1035156  24.5066280
   8.5545168  45.1272392  24.4789715   9.7152271  44.5608673  25.2682495
  39.6881294  23.2951775  20.6426601  40.2131882  23.9006901  21.1660156
  38.9714661  23.8313236  20.3032894  65.0802155   0.5611650   5.2961397
  65.6408234   0.8077844   4.5605249  64.7070923  -0.2824687   5.0406117
  35.7975388   7.4354634  28.7986431  35.9169998   6.5364509  29.1048088
  34.8749123   7.4825487  28.5480900  81.7305222  45.5808334  66.3738556
  81.8117142  45.0016518  65.6161041  82.3195877  45.2040520  67.0275116
  84.3383865  19.6056652  39.1622696  84.8726273  19.4496498  39.9410362
  83.4429245  19.4200497  39.4449844  61.0996513  56.5901833  26.7182541
  61.2047157  57.1201706  27.5083847  61.9323730  56.6826172  26.2553692
  29.1582298  68.4831390  35.8550110  29.0515118  67.6089249  35.4800529
  28.2722168  68.8447952  35.8754044  67.7000046  53.0478249  19.2126980
  67.0740433  53.0329514  19.9367027  67.6292572  52.1791077  18.8170261
  35.8694572  11.0738668  25.7361927  36.0985374  11.8878298  26.1847687
  36.2404823  11.1710997  24.8591976  58.6537857  69.2660599  78.5215225
  58.2430115  69.8421402  77.8768387  58.5562096  68.3875198  78.1542587
  86.5236588  54.2159538  59.9560318  86.4235229  53.3259315  60.2937622
  85.7777252  54.6946373  60.3175240  32.8202171  50.5110741  60.5416145
  32.8588638  51.2028503  59.8811760  32.2953262  49.8212852  60.1355171
  65.4338226   9.5901499  51.7899704  65.1583710  10.3491182  52.3040962
  64.8027420   8.9065580  52.0150757  68.8968506  62.3235245  26.6221790
  68.3542404  62.8085213  26.0004215  69.7930069  62.5894966  26.4162979
  49.9951859  21.1094761  58.0107269  50.5577087  21.8772869  58.1120491
  49.1083946  21.4667492  57.9639702  11.6779776  64.5241928  44.8800163
  11.9543982  64.0232620  44.1126289  12.4959898  64.8067932  45.2889519
  76.5953445  64.7876663  85.4903641  75.9638214  64.8536911  84.7740860
  76.2233200  65.3270264  86.1881638  12.2956867  66.8586960  69.8384705
  12.0518522  66.9576492  68.9181519  12.1474924  65.9320679  70.0272141
  25.1074524  66.1084290  88.2875214  25.6463127  65.3915939  88.6222076
  25.0466805  65.9432755  87.3466415  47.4367714  62.3498802  65.1235275
  47.5908318  63.0670395  65.7384949  46.8513374  61.7545776  65.5916138
   1.6430992  45.1985359  89.2508774   2.0911722  44.3928452  88.9933472
   2.2890072  45.8894119  89.1034775  65.4754257  16.6122990  49.5225487
  65.3562088  15.6629858  49.5512657  65.8268890  16.7832317  48.6487732
  58.6946754  60.4587250   2.0335691  57.8786011  60.9065819   2.2564549
  58.5365372  60.0914764   1.1638836  12.0854301  44.1976166  79.7111282
  12.0682125  45.1540375  79.7457047  12.8427563  43.9913483  79.1632767
  48.1163712   9.9427652  48.6210098  47.5340538  10.6094866  48.2568398
  48.9574280  10.3885241  48.7217751  55.1999474  65.5049591   1.6117027
  54.3478317  65.0696335   1.6364385  55.6968193  65.0215225   0.9516729
  28.6603260  12.5977736  72.9231949  28.0036163  12.0025721  72.5616684
  29.4277802  12.0455351  73.0724564  20.9171524  17.1461277   2.1776128
  21.1593723  16.6455669   1.3985105  20.0346546  17.4667473   1.9915168
  16.3678970  20.0861378  78.9747467  16.0613823  20.2409000  79.8682404
  17.1263466  19.5113811  79.0778961  61.8843765  61.9207344   5.2165060
  61.0007172  61.5736237   5.3385501  61.8236656  62.4580765   4.4266887
  73.4496155  53.8786163  15.2584324  72.5586853  53.5633659  15.1064768
  73.4156189  54.2843857  16.1247044  55.8041153  26.2428226  16.2144508
  55.8858070  27.1120014  15.8219099  56.1924477  26.3354568  17.0844212
  35.5252724  53.5516205  26.6371613  35.1342163  54.3538399  26.9832134
  35.0893517  53.4162750  25.7958031   4.2466431   5.6387448  56.1506958
   3.3879323   5.3600831  56.4688072   4.8038077   5.6330290  56.9290047
   1.0610875  59.2469215  21.0353489   0.7567535  58.7996445  21.8250027
   1.2827728  58.5395508  20.4297829  46.1869736  66.2350998  73.6128082
  45.5059624  65.6212234  73.8878021  45.7064896  67.0028000  73.3029709
  34.2260857  70.0892868  55.3272324  34.4029083  70.9329453  54.9110603
  34.6739731  70.1402130  56.1716499  22.3656483   4.5418916   0.4334921
  21.9332409   4.9619703  -0.3100061  22.7617664   5.2648592   0.9199489
  62.6614990  45.2434502  12.7781477  62.3758583  44.3873215  13.0970268
  62.3392410  45.8626938  13.4330664   3.1707058  60.9086571  83.3945541
   3.6849935  60.5585823  84.1220016   2.9750054  61.8097534  83.6513901
  78.5290298  34.5282326  18.9607430  79.1229095  35.0499153  19.5005436
  79.0998001  33.9071159  18.5083447  24.0457535  17.5657024   4.8024349
  24.2896366  17.2915649   5.6865172  24.5023403  18.3972836   4.6750183
  27.8281765  56.3503571   5.3161616  27.7512703  57.1371536   5.8558569
  28.7545033  56.3129234   5.0779395  76.3108749  44.8695030  67.3368607
  75.9328995  43.9975548  67.4512024  77.1215439  44.8477020  67.8453522
  17.8880920  19.4648342  85.0196609  17.2445889  19.8290176  84.4117889
  18.0798302  20.1822395  85.6236420  70.9220123  71.1115494  19.8314800
  70.2792892  70.5578995  20.2748833  70.5369873  71.9876938  19.8503132
   6.0057011   4.2717156  35.9911003   5.0640459   4.3596201  35.8434906
   6.3999929   4.9336834  35.4231529  66.1613388  56.1358109  18.7147636
  67.1025772  56.3050003  18.6738033  65.7573624  56.9856491  18.5392380
  74.4812546  30.4360275  17.9865570  75.3658600  30.1264076  18.1810608
  74.2405319  30.9660549  18.7463970  28.5345936  38.9445343  30.8455372
  27.8262310  38.5397339  31.3461285  28.2727489  38.8381615  29.9310131
  77.0515671  34.6587601  51.1653824  77.6632233  34.0366592  50.7715530
  77.0695724  35.4157143  50.5797806   1.4927989   7.9346943  35.7284203
   0.9129889   8.6802120  35.8841629   0.9350339   7.2817049  35.3056488
  45.0736732  19.1961403  21.1365318  45.8137169  19.5700111  21.6148529
  44.4046783  19.8804207  21.1574211  81.9589386  46.3781013  37.6252632
  82.5435867  46.9433670  37.1203957  81.8956680  46.8022690  38.4810143
  63.7065697  68.5512848  77.0913010  64.5969620  68.8896561  76.9967728
  63.1545792  69.2073898  76.6657867   9.0456038   7.2657061  69.1788177
   9.7787142   7.8811588  69.1785583   9.4580030   6.4019651  69.1893082
  55.1197472  30.6049919  63.2203522  54.9949532  30.6469269  64.1684570
  55.2386589  31.5166302  62.9538727  12.0405245  21.0163708  50.8886185
  12.3600340  20.1143169  50.8675728  11.1052752  20.9349003  51.0754433
  61.0627327   9.1621456  13.2871943  60.3364601   9.5583076  13.7686691
  60.7247429   9.0424414  12.3996897  46.8812714  14.4565735  61.0779190
  46.4518623  14.1886044  60.2654953  46.2112732  14.9493990  61.5516891
  75.4203644  10.2361937   8.2084265  76.3409500  10.3897686   8.4209528
  75.0805054   9.7452869   8.9565811  51.1250534  54.9953270   6.5833888
  52.0041122  54.8081665   6.9127183  50.5403671  54.7084160   7.2848554
  80.2789612  17.4789505  40.6285400  80.4032898  18.1134281  39.9226990
  80.2696609  18.0073147  41.4266472  53.2117920   0.8248256  42.2097778
  52.9054146   0.2997100  41.4704399  52.5281105   0.7271548  42.8725548
  41.1564522  45.2353973  67.9744797  40.8167496  45.9081917  67.3844070
  40.3982086  44.9668121  68.4932938  27.4727364  52.2555275  44.1490707
  28.1375694  52.0654678  43.4871712  27.3412495  51.4228363  44.6024666
  41.9608307  26.4357986  56.7022324  42.8289375  26.6670322  57.0326195
  41.9115067  25.4852200  56.8032150  82.7690201  59.7150078  72.8543625
  82.5428314  59.7413101  73.7840805  82.1035767  60.2570419  72.4305496
  71.3410492  21.6870689  57.7263794  72.2748871  21.4786415  57.7533875
  70.9668655  21.0339184  57.1350937   6.3976784  41.7838860  85.0824432
   5.8438077  41.1639404  84.6079712   7.0204310  42.0987549  84.4272537
  11.9068117  52.9002571   6.6454206  11.4830503  52.8728905   7.5032721
  12.7218704  52.4128647   6.7652431  38.1575737  10.9635792  32.1986847
  37.7415962  10.1323624  31.9700451  38.3167953  10.9006643  33.1404495
  53.9758606  45.0862083  26.2454529  53.1388168  45.5255051  26.0950966
  54.6006393  45.5698471  25.7051048  10.0532837  36.5782166  22.3233128
  10.5291672  37.3291550  21.9685516  10.0513830  35.9379692  21.6117592
  63.5830956  57.5525742  48.1928024  62.7083969  57.1699562  48.2616386
  63.4441910  58.3895836  47.7496834  71.2617111   2.1414099  61.2612801
  70.8109665   1.9578264  60.4370499  70.6875610   2.7575665  61.7161789
  80.0924530  69.4624252  51.2622833  80.3652344  70.1791687  51.8350868
  80.8540802  69.2967224  50.7066803  50.5217743   4.8017282   5.9589391
  50.2725525   4.8141165   6.8830423  50.9163437   3.9393969   5.8288212
  80.1172638  30.2432346  25.2507057  79.1826096  30.0686798  25.1403084
  80.4205780  30.4858494  24.3758507  76.4515381  66.3723068  87.5345840
  76.5016632  67.2330170  87.1187744  77.0704498  66.4218369  88.2630997
  65.1075439  11.3465462  87.5171356  65.9530029  11.5799065  87.1337662
  65.0047150  11.9481039  88.2545547  77.2569122  17.5833435  77.8393936
  78.1293564  17.4136887  77.4840088  77.4173279  17.8905983  78.7316360
  36.5105591   1.1306790  52.3456612  36.1884499   0.2344511  52.4418526
  36.9856644   1.1265421  51.5147018  28.9904346  70.6068039  84.7315140
  28.0630016  70.8434296  84.7420502  29.3033161  70.9023361  83.8765259
  26.6594429   1.9054075  13.2732162  25.7181358   1.7420812  13.3323584
  26.9770260   1.2527854  12.6491518   9.5245123  22.3674641  24.2678394
   9.8685055  22.5267696  25.1467724   8.8346252  21.7162285  24.3950405
  56.4535522  49.3512764  74.9064026  56.1967049  49.7472000  74.0736313
  57.2665367  49.7976303  75.1431580  52.2130013  59.6426773   8.7075996
  52.6813431  58.8090973   8.6625214  52.8939514  60.2904930   8.8888950
  20.6611023  53.5572090  89.0737000  20.7487259  53.4894447  88.1229324
  19.9401398  52.9660797  89.2905197   2.1650355  56.5659103  73.5868759
   1.6232873  55.9304924  74.0548325   2.7378881  56.9338264  74.2597122
  54.8715668  32.0166130  84.6948929  55.0088501  32.7785225  84.1319733
  55.4383087  32.1718521  85.4504929  63.9261169  11.5002775  59.5078163
  64.1694489  10.7622566  58.9489403  64.3862839  12.2493591  59.1291962
  70.9316788   8.0093708  44.4227333  70.6529465   8.5868511  43.7120628
  71.7492065   8.3948040  44.7378807  60.0158577  29.8135948  20.0245590
  60.1370621  29.4771709  20.9124565  59.0988350  30.0863934  19.9948940
  14.9447498   2.0379517  66.5235138  14.3011656   1.8055915  65.8541565
  15.1917257   1.2018921  66.9187851  17.8392467  53.3063812  28.7921829
  17.8129196  52.3582039  28.6637440  18.1959190  53.4189148  29.6732903
  71.6333313  48.1509361  50.0798569  72.0134811  48.8604660  50.5978127
  70.8795624  48.5493279  49.6447067   4.9426274  60.8141022  77.6821136
   5.0078154  61.7682838  77.6431961   5.2873020  60.5854950  78.5453491
   5.7025428  15.7693434  42.0231361   5.7500095  16.5406494  42.5879936
   6.3506041  15.1659660  42.3867035  26.7361889  13.1570959  20.3433475
  27.3052864  12.7974844  19.6628761  27.3338585  13.5984488  20.9468632
  64.2042770   4.8835974  31.0728626  63.3007164   5.0562639  30.8083076
  64.3580246   3.9732389  30.8201923  68.3770294   8.0950871  79.5280838
  68.7658920   8.4465542  80.3290100  67.5624084   7.6842628  79.8176346
  54.8382072  58.4439888  23.1230202  55.5683098  58.3032455  22.5202160
  55.2164879  58.3119698  23.9923325  75.3515015  18.2490501  71.2920761
  76.1153717  18.8249607  71.2593918  75.4831467  17.7210503  72.0795517
  82.0394287   3.2197759  55.1486359  81.5868988   2.5004234  55.5890656
  81.5803604   3.3164322  54.3142815  64.7715683  22.0612736  13.3536434
  64.5402832  21.2366714  13.7811556  63.9365196  22.4143314  13.0465965
  68.8676605  48.9526329  61.6649971  68.2537231  48.2733917  61.9441833
  69.5253067  48.9813576  62.3599091  86.6483612  15.5475807  16.6348991
  86.9952545  16.2345219  17.2041168  86.5948105  14.7748680  17.1972866
  11.2320662  62.7957230  50.6374245  10.7871723  62.8213921  51.4845619
  11.8958998  63.4829521  50.6945953  49.4553528  69.0216599  29.9291039
  49.3046455  68.7157669  29.0347042  48.7173691  68.6728745  30.4290695
   8.4439945   4.8293815  58.8899231   9.2463779   5.2515564  58.5830345
   8.5764914   4.7189312  59.8314514  20.3458729  51.7005653  61.9667397
  19.6556263  51.5541382  62.6135368  21.0243988  51.0642090  62.1923294
  62.9938774  36.2792397  79.1107025  63.2403259  37.0487022  79.6239471
  62.3397636  36.6036568  78.4917374  10.9095755  49.9716873  33.7127647
  10.3861990  50.7194901  33.4244957  10.6794758  49.2695084  33.1043015
  16.8986588  15.7126999  17.7589798  17.5349236  16.2765217  17.3190880
  16.6525230  16.1981583  18.5463657   0.0668267  44.7861977  86.8671951
   0.6748248  44.2379341  87.3631592  -0.3197309  45.3678322  87.5218048
  29.9520760  54.3656044  23.2969398  29.3520203  54.2840118  22.5556507
  30.1277447  53.4631615  23.5633430  31.4737549   4.9571500  62.5644531
  31.8246098   4.5748286  61.7601128  32.1960182   5.4766064  62.9176254
  29.0997849  50.6643639  42.7119217  28.8983345  49.7848740  43.0315208
  30.0507431  50.6675720  42.6028252  30.4338951  56.3266983  56.4673653
  30.1295700  55.8388100  57.2326012  31.1783581  55.8209763  56.1414032
  86.8101959  27.7308674  59.9218483  86.6434097  28.5646057  60.3614998
  86.5266190  27.0674496  60.5508919  30.2538166  33.2729454   7.0370183
  29.9345131  32.6386452   6.3951936  30.0395622  32.8841438   7.8850522
  75.6101227  61.9243507  23.6258430  75.8536530  61.3429031  22.9055347
  75.5070801  62.7832108  23.2159958  57.0402527  11.7409477  38.9387474
  56.9974442  12.3234987  38.1804390  56.7743988  12.2890043  39.6771164
  53.9683228  17.5366631  65.9511032  53.7646294  18.4581451  65.7910767
  54.0934372  17.1639595  65.0783691  53.7457924  46.5344810  76.1066208
  53.4174843  45.6392593  76.0228500  53.3902855  46.9922371  75.3448486
  72.8872528  14.6106815  76.5178528  73.5334015  14.8255520  77.1905746
  72.2814026  15.3517370  76.5222778  67.8404999  46.2869339  37.2272530
  67.4577026  46.1829491  38.0983925  68.7852478  46.2990265  37.3806610
   9.0358219  13.8658991  46.7847862   9.9035320  14.1070309  47.1090813
   8.6724405  14.6827278  46.4427681  62.0140839  17.3423462  89.1560822
  61.3356438  17.7779655  88.6401520  62.0912971  16.4723854  88.7643661
  51.2925644  57.1884041  27.4506283  52.1177292  57.3179741  26.9831371
  51.5321121  57.2332420  28.3762836  56.5822411   9.8818626  26.1528282
  56.6877403  10.8293819  26.0673409  55.6348343   9.7477150  26.1785736
  40.4547958  44.6214256  80.4751129  39.7775078  44.5699081  79.8006821
  41.2748642  44.6901855  79.9862518  10.8332233  66.8959579  14.9266491
  11.5101376  66.4289780  15.4164934  11.1862249  67.7782669  14.8119307
  69.0971756   3.6099179  62.0794067  68.5102692   3.8284400  61.3555145
  68.5212936   3.2516901  62.7548790   8.6048527  11.1886044  46.6272240
   8.3871107  11.0855494  47.5536156   8.9813747  12.0665007  46.5659065
  23.7454758  58.6503563  19.5650826  23.7454395  59.4460068  19.0329437
  24.6615543  58.3733025  19.5816021  59.1032639  70.1775894   0.3680325
  58.1675415  70.2861328   0.1981131  59.5280800  70.7942505  -0.2282004
  22.8700962  63.4949188  30.4162693  22.8785896  62.5582466  30.2192841
  22.5804768  63.9081154  29.6028690   4.8666177  61.6564484  13.3957024
   4.7738471  62.3552856  12.7482042   3.9912226  61.2752991  13.4638290
  49.1928635  44.2509384  35.4529495  48.2534103  44.2264023  35.2711334
  49.3638077  43.4445076  35.9394455  26.3441849  69.9775085  54.8596878
  26.4495010  69.0916977  54.5125885  26.8950653  69.9951706  55.6422806
  28.1688404  23.8397884  27.7334919  28.5721169  24.2509022  28.4980736
  28.3622913  22.9076195  27.8328285  61.2273483  17.7887611  40.7605553
  61.8259048  18.3445282  40.2614746  61.7789688  17.0806007  41.0929031
  55.6744804  21.3647785  24.2792625  56.2607079  20.8986225  23.6832180
  55.6782990  20.8388176  25.0790005  69.9270554  61.5651207  70.9357910
  69.6128159  61.8980484  71.7764130  69.8772430  62.3176880  70.3463898
  59.2848358  65.0402603  64.7027283  58.8717957  65.7505951  64.2117538
  59.1290665  65.2615509  65.6208801  79.3043976  28.3620224  59.1980591
  79.8600464  27.7769718  58.6830826  78.4151382  28.1729317  58.8985748
  59.8441696  28.3676281  36.7858658  60.3017845  29.0539894  37.2713814
  59.7088509  28.7401562  35.9145775  18.9210472  64.0959854  26.3200550
  18.7106438  64.8292465  25.7418785  19.7507458  63.7566833  25.9843311
   1.2572019  64.2839890  87.5401001   1.3398771  65.2375793  87.5478745
   0.7354400  64.0824738  88.3168869  84.6757278  48.7976341  27.4609585
  84.4026947  49.0877495  26.5906029  84.4020767  49.5042839  28.0457611
   5.2503195  40.0885315  83.1841965   5.4654980  40.1818390  82.2561798
   5.3053675  39.1472969  83.3493652  55.4014435   5.6656427  86.4674072
  54.7049332   5.0227036  86.3342438  55.7591400   5.8159614  85.5923691
   1.7864980  24.9623928  54.3114395   1.2760087  25.6917362  53.9597435
   2.4600430  25.3787975  54.8491898  14.4770222   2.9224405  37.8710976
  13.6435432   3.3100328  37.6040421  14.6448727   3.2898126  38.7389069
  69.8898773  24.3829727  68.1909027  69.5800171  23.9486256  67.3961945
  69.9344330  23.6844254  68.8438034  19.0512714  45.8027039   2.1493442
  19.4903564  45.8267250   2.9995558  18.4328365  46.5327187   2.1784544
   1.5773187  64.6911621  68.0252533   1.9637972  65.2594604  67.3589935
   2.3229976  64.2277603  68.4066315  31.6093311   3.0509477  57.4973755
  31.1448460   3.8804047  57.3856354  31.0386181   2.3999510  57.0890579
  22.6930828  61.1455536  33.2856903  22.7646313  60.3190956  32.8081169
  21.7513161  61.3040886  33.3502998  44.1122475  43.5991058  26.5697403
  44.7656441  42.9098244  26.4505939  44.6244621  44.3828697  26.7686958
  42.3325920  32.1451721   2.0542045  41.9143143  32.9436226   2.3763103
  42.2059021  32.1742439   1.1058711   2.0121877  43.8348579  19.5500450
   1.5759636  43.0008392  19.7242641   1.4782087  44.4845352  20.0072289
  57.5411797  63.0106773  38.0567093  57.5159035  62.2557297  37.4687958
  56.9231186  62.7919426  38.7541199   3.6200156  27.2510815  70.1340866
   4.2717047  27.5359383  69.4934692   3.3568122  26.3800812  69.8369064
   4.4197230  40.3603897  41.6411057   5.1136212  40.2766571  42.2951126
   4.5610075  41.2230377  41.2510986   9.3109283  66.4663620  39.6251030
   8.6330814  66.3341675  38.9623222   8.8739462  66.2776489  40.4555664
  66.5132599  21.3752327  65.3271027  66.7949829  22.1566963  65.8026886
  67.2832565  21.1105633  64.8238220  39.0797462   5.6437650   8.3465662
  38.6776161   6.3100939   7.7893147  38.8612747   5.9137955   9.2385216
  29.2092152   1.6546634   6.4103765  30.1111927   1.9749159   6.4206161
  29.2755432   0.7628951   6.0689359  77.5133286   2.6646011  16.1877575
  76.8822250   2.2468174  15.6017542  77.2618790   3.5881786  16.1913261
  43.8197556  20.2148552   6.9460421  44.6980858  20.5765305   7.0641661
  43.4922981  20.0854912   7.8361373  19.9690418  38.4218521  74.4500809
  20.7214985  38.1516533  74.9764175  19.6804504  37.6194801  74.0151749
  57.3948631   4.2844315  60.4122925  56.6160545   3.7293828  60.4524193
  57.8914833   3.9467678  59.6669159  60.7746925  40.8409348  88.5012817
  61.2527390  41.6691856  88.4599915  59.8572922  41.0878105  88.3844147
  29.1264153  17.2965355  71.9077759  29.7361622  16.8722210  72.5114288
  28.7233295  17.9937000  72.4251938  47.8788300  55.4719620  61.1794510
  47.2037773  55.2171974  60.5504608  47.5031700  55.2584763  62.0335808
  28.7333050  62.6927681  59.9026489  27.8802662  62.9310532  60.2656555
  28.9471397  63.4083061  59.3038940  59.9811058  31.7559700  16.5057182
  60.4577217  31.2564144  17.1686764  60.3614731  32.6333542  16.5475788
  17.9256325   6.5146313   3.1408634  17.0296078   6.7195582   2.8737004
  17.9416046   5.5603189   3.2134230  49.8309898  21.7036705  17.5404644
  49.6840057  22.5000801  18.0507202  50.7199249  21.4328251  17.7699604
  82.6779480  57.4189644  38.9563217  82.2669754  58.1645775  38.5188332
  82.9825134  56.8599358  38.2415085  51.4821434  40.6287079  88.8141708
  52.1677589  41.1982269  89.1631775  50.6657410  41.0872269  89.0128555
  73.6658478  56.7414436  25.0533924  74.2075500  57.1464462  24.3760700
  72.7955170  57.1170349  24.9203968  54.0631599  23.4061680  67.7812729
  53.2858734  23.9643517  67.7592163  53.8979530  22.7937069  68.4980927
  62.8291664  38.6051254  77.1626740  62.0633736  39.1426888  76.9606323
  62.8258324  37.9219246  76.4922638  58.1845131  14.4616232  13.3202171
  58.1752052  14.9492798  12.4966049  57.7347488  15.0334759  13.9422522
  81.3813934  33.0483475  55.0099068  81.7314301  32.2280502  55.3574982
  81.9939346  33.7180824  55.3140106  57.1602554  27.7241020  86.2249527
  57.3407440  28.6533489  86.0829926  56.4595413  27.7130928  86.8769608
  72.4369965  33.2725487  18.6675014  72.4446869  34.2145348  18.8373222
  71.8445435  33.1682320  17.9229603  74.3387299  34.8191032  21.3557053
  75.1767807  34.4424782  21.0872784  74.4915390  35.7640114  21.3610859
  67.1605453  14.6284618  47.2368355  66.8699341  14.1293526  46.4735107
  66.5989838  15.4035940  47.2441444  57.7351265  14.2317324  87.3950729
  58.0868912  14.3340721  88.2793884  56.9074974  14.7124147  87.4094086
  48.0317574  29.0602016  64.4410553  47.8758736  28.4994373  63.6811371
  47.3519745  29.7318821  64.3865433  73.8478088  39.4120903   8.5495882
  73.3583298  39.5334740   7.7360082  73.2488251  38.9301643   9.1198483
  76.6279602  27.3741856  85.8945923  76.1030502  26.6145744  85.6422119
  76.8460999  27.2198658  86.8137360  36.4586258  70.7025986  21.2054424
  36.0680275  69.9038086  21.5598507  36.9244423  71.0905075  21.9462337
  54.3990822  62.7982063  43.4284477  54.1924400  63.4515419  42.7601051
  55.1575356  62.3300934  43.0793724  54.8311195  25.6523514  75.5755768
  54.6031685  26.3481197  76.1921539  53.9892349  25.2820358  75.3103790
  29.2245770  26.5719147   2.6292231  29.6442223  26.3554325   1.7965980
  28.4250870  26.0456429   2.6384556  23.6874428  28.6231289  47.0536575
  24.5893421  28.9234791  47.1658974  23.7078094  27.7018661  47.3126831
  75.1388016  14.5746365  47.0124702  74.6521454  14.3051691  46.2335052
  74.9406891  15.5061932  47.1083031  47.3078957  12.6520443  77.7136459
  47.1344490  13.5021286  78.1180038  46.5747185  12.5184956  77.1129379
  63.4757385  27.3399620   4.2182341  63.3145790  27.8554230   5.0085239
  62.8560257  27.6860390   3.5760350  59.5003967  38.9347115  27.8545055
  58.9357834  39.6600418  27.5874100  59.0352592  38.5251961  28.5840092
   5.8929853  30.2865925  24.4587688   4.9945331  29.9603519  24.4079418
   6.1348577  30.4648132  23.5499420  54.2979202  34.2548180  47.6925888
  54.3937798  34.0505867  46.7623558  53.4272423  34.6461487  47.7634048
  75.1091080  24.5721931  32.7123032  74.7061005  23.8598843  32.2158813
  74.4265900  25.2409477  32.7686234  64.7028503  15.4151268  23.6467514
  64.6233978  16.3183537  23.9535103  64.3151321  14.8895407  24.3465118
  69.1382675  10.0653629  42.7183495  69.1857376  10.9171019  42.2841644
  69.4827652   9.4480286  42.0730171  64.7101974  59.5530930  88.8487930
  64.1604004  59.3402939  88.0946884  64.8170853  60.5033760  88.8067245
  81.8267593  33.4088211  14.6821327  81.1169815  34.0095215  14.9092951
  82.5044479  33.9702797  14.3056583  11.2595711  46.2977028  32.3816833
  10.5133762  46.1852913  32.9705734  10.9577475  46.9314308  31.7308960
  73.0831757  65.5716248  23.9117222  72.4064331  65.4576035  24.5789928
  72.6690826  66.1145935  23.2409458  78.2229919  63.1512947  10.6584301
  78.4399033  63.9600716  11.1221800  79.0632629  62.8299751  10.3314285
   2.8748693  29.3968563  27.6452656   3.3588440  28.6546268  27.2831936
   2.9268360  29.2770481  28.5935154  23.0409584  45.4541855  68.4387360
  23.2444782  44.6511726  68.9183044  22.4448643  45.9326859  69.0148849
  23.8852253  22.7277298  77.4807434  23.4789238  23.1657982  78.2285690
  23.4177380  21.8956623  77.4076004  72.5222015  58.4443169  53.3529549
  72.6905746  57.7549400  53.9953232  72.2786560  57.9742851  52.5554657
   4.7829013   2.2878036  84.9825134   4.6213365   2.2091882  85.9226990
   3.9622455   2.0115497  84.5745468  63.9610367  21.4974709  34.0752945
  63.5416374  21.4579945  33.2157745  64.1668243  20.5861282  34.2834702
  78.0224762  12.3314829  63.5220985  77.4814835  12.2807474  64.3101196
  78.6757431  13.0016994  63.7228012  82.0934753  34.8656158  88.1956787
  82.2968140  35.4505653  87.4658051  82.2136154  35.4061508  88.9764633
  78.5925064   5.8668399  84.7077408  78.1952667   5.2602620  85.3326340
  77.9570084   6.5781026  84.6272888   8.4289207  54.3469734  52.7470970
   8.8238926  53.5596199  52.3725281   7.9820561  54.0388985  53.5355377
  39.6472473  58.4247246  19.0621490  40.5888596  58.5514565  19.1785049
  39.5594368  58.0862274  18.1711140  10.0934887  26.2146187  26.2503853
   9.9169569  26.6124973  27.1028881  10.5957212  25.4255409  26.4537354
  32.2315750   7.1582527  50.8787575  32.8288918   7.5148163  51.5362549
  32.4177361   7.6631484  50.0871391  26.3956699  32.5922012   7.0121469
  25.4737339  32.8496246   7.0120249  26.8453846  33.3120003   6.5695658
  10.2365112  35.0277405  85.2398376   9.6888790  35.4539604  84.5805511
  10.3041649  34.1197891  84.9444046  39.8123665  55.0484886  31.8678284
  40.0131340  55.5853958  32.6344147  40.6620026  54.7143211  31.5802879
  51.3092308  70.1022949  23.2972603  51.6321411  69.2250671  23.5032520
  50.8099289  69.9899063  22.4883709  48.4796600  49.2183304  72.1398392
  47.8642502  49.0685234  71.4221649  47.9258347  49.4454651  72.8867798
  12.6275549  15.7293968  10.5637846  11.8137636  15.6556988  10.0652428
  12.9704828  14.8363113  10.5958929  81.2643127  68.4908524  34.8278122
  80.7945709  68.0249252  35.5195389  81.2361755  69.4093094  35.0959129
   1.6143628  56.7146149  18.7907715   2.3868792  56.9384651  18.2717896
   1.9505737  56.1572342  19.4925671  58.0153542  15.3846531  68.6889877
  58.2941780  16.2785835  68.4905472  57.4101219  15.4802151  69.4243774
  86.2288818  36.2026939  16.2174568  85.2891541  36.2246857  16.0367565
  86.5106735  35.3391304  15.9156532  43.0464211  53.6238670  40.6711769
  42.8240585  52.7081642  40.8393326  43.9769325  53.6877861  40.8863449
  27.2677631  55.9912186   2.7388179  27.0338364  55.1424332   2.3632262
  27.1231976  55.8851013   3.6790686  51.9792366  17.0093727   8.4869757
  51.6626701  17.6969700   9.0728321  52.5593643  16.4782410   9.0324898
  53.8808784  60.8776436  83.4127884  54.6009865  61.4194908  83.7353973
  54.2307396  59.9866867  83.4176331   6.0809422   2.6939158  10.2707119
   6.0533481   3.0448270   9.3805819   6.3569798   1.7839727  10.1609917
  56.5113754  38.6913910  29.2761230  56.7699165  39.4058228  28.6939030
  56.7465973  37.8960114  28.7983456  83.0869522  65.3913116   6.5371094
  82.6241837  66.0052719   7.1073103  82.3915176  64.9124985   6.0861807
   4.4906311  44.9161491  18.8767376   5.1291418  44.6565361  18.2125568
   3.7380474  44.3454018  18.7215118  85.8102417  64.7153091   2.6548128
  86.1935349  64.1872940   3.3551776  85.4214554  65.4649887   3.1054389
   8.7223864  36.1328087  73.1676788   8.5170279  36.0068703  74.0940628
   9.5539351  35.6755829  73.0423737  55.0435066  23.4744415  72.3066559
  54.9557152  23.0716114  73.1705093  54.1707726  23.4042187  71.9198227
  75.5962982  21.8844070  73.4851074  75.1406250  22.1863613  74.2708740
  74.9552536  21.9878731  72.7818375  21.8063679   6.0963130  17.6286106
  22.5968876   5.5730667  17.7609901  21.7050343   6.5876198  18.4438286
   2.6949148  30.9392204  61.6157875   2.9870906  31.3974476  62.4037552
   1.9509914  31.4532280  61.3017693  73.6092148  59.9669533  25.8708210
  73.3464737  59.2149048  25.3401432  73.1383209  60.7068748  25.4873962
  61.2820015  29.0826283  71.0019302  61.6261520  29.9713058  70.9122543
  62.0254059  28.5159607  70.7958450  65.9740448  42.9877625  61.0620613
  65.2376938  42.7040977  61.6038666  66.2745667  42.1887589  60.6290359
  57.1903839  32.0321121  60.9024811  57.6583900  32.3746529  60.1409874
  57.5177765  32.5501518  61.6377907  22.7196026  62.9009399  56.3180809
  23.1197910  62.5691376  55.5143471  23.4386463  63.3253632  56.7861328
  34.4269524  22.1554108  72.7114639  34.2150612  22.3113499  73.6318054
  33.6261292  21.7845421  72.3408279  15.2135248  33.4081993  81.7023239
  15.7107124  32.9172249  82.3565292  15.7048712  33.2896004  80.8894577
   9.7309446  59.8678398  85.4412308  10.5715179  60.3054810  85.5759125
   9.9375267  58.9341583  85.4836197  37.5694275  47.5343895  82.1928864
  36.9913025  47.3803101  81.4457169  38.1300926  48.2592697  81.9164276
  58.5140839  26.4910069  26.5086136  59.2464523  27.0757275  26.7034817
  58.4367828  25.9369049  27.2852898  79.0182877  33.6520424  77.2999496
  79.5346680  33.4261551  76.5262909  78.2354889  34.0772133  76.9496689
   9.8503828  14.2948599  34.8393593   9.4907551  14.4944477  35.7036858
  10.4064360  15.0458984  34.6320457  42.1091652  52.3053474  35.5257454
  42.4066467  53.0552444  36.0409012  42.7049789  51.5965767  35.7683945
  78.8785782  39.6706047  17.3313961  79.5301895  38.9733505  17.2574635
  78.8541183  39.8774948  18.2656517  84.8467331   7.1911674  44.6449471
  85.0357208   6.2612586  44.5193062  84.3142471   7.2221022  45.4397621
   9.7625580  37.2125320  19.1309223   9.9290848  36.3581848  19.5291538
   9.5625019  37.7865410  19.8703308  37.9506607  10.1560755   7.5592237
  36.9990005  10.2233210   7.6370273  38.1966591  10.8858452   6.9907589
  27.9644203  48.4024048  88.2175217  27.8922977  47.9533424  87.3752747
  27.2624397  48.0277634  88.7495880  41.4245682   9.6789999  77.5496979
  41.2081528   9.3595543  76.6737061  41.5114136  10.6264257  77.4444580
  83.6807098  41.2506866  33.8541107  83.9753036  40.6635704  34.5503464
  82.8917847  41.6628304  34.2061844   9.9011183  33.5926971   2.9682026
   9.4433317  33.4465179   3.7960279  10.8188515  33.4056778   3.1657410
  43.8404045  66.3220444  24.3274517  44.7509308  66.0360718  24.4009418
  43.8762169  67.0918579  23.7597027  40.0195312   9.6659088  25.1034737
  40.7559433  10.1922188  24.7921410  39.3267899  10.3029451  25.2781906
  70.0817337  60.4982414  12.3639097  70.9029236  60.8171349  11.9894972
  70.0831146  60.8299599  13.2617912  66.6624603  27.2044315   5.1445065
  67.0810318  26.3575974   4.9898882  66.5706329  27.5889359   4.2727528
  78.3584824   5.7433949  17.4838161  77.7942276   5.7620635  16.7108326
  77.8838806   6.2547259  18.1392002  74.5154724  40.3624382  79.1769409
  75.4332581  40.1254349  79.0437775  74.5191193  41.3185730  79.2219849
  67.5363464  19.0521660  26.8336143  66.6868591  19.3819408  27.1266193
  68.1552048  19.3647232  27.4935837  23.9647160  63.5235252  32.8954697
  23.8373852  62.5749092  32.9076576  23.4896812  63.8189850  32.1187592
  10.1147299  23.0585194  73.1321716   9.1589680  23.0219707  73.1697845
  10.3368025  22.6586094  72.2913437  76.4761963  66.5895004  16.3189468
  76.5909958  67.0434799  15.4841070  76.5454407  67.2797852  16.9784546
  49.6668892  11.7408438   0.4432625  50.2394791  12.2946129  -0.0875022
  48.7814598  12.0257311   0.2172367  67.3490829  57.2377968  80.4398193
  68.1126709  56.7275887  80.7097397  66.6032333  56.6645889  80.6169281
  84.3943100  21.6857319  60.1411362  85.0417480  22.3679981  59.9634552
  83.7433395  21.7865829  59.4466591  46.2029953  62.7133217  50.4643097
  46.8933220  63.3226357  50.2027435  46.0861397  62.8715897  51.4010735
  43.6533241  43.0752106  20.2228336  43.7278633  43.0955849  19.2687588
  44.4804916  42.6958389  20.5196533  77.7938538  61.6436768  62.1632042
  77.1548996  62.2037506  61.7224312  77.6850204  61.8421211  63.0932617
   3.9773390  37.7897453  58.1780014   4.8865566  37.6765709  58.4550323
   3.7754273  36.9929047  57.6875839   9.6580076   8.7413235  84.6135330
   9.5223894   9.6886539  84.5934067  10.2528191   8.6001167  85.3500748
  13.1137924  51.9011192  46.6913719  12.5444155  51.6991959  47.4338455
  13.3897610  52.8055153  46.8401794  20.6586895  54.1935692   4.4208050
  19.8984261  53.7396278   4.7843561  21.3401070  53.5227242   4.3775434
  53.9614563  42.8662224  58.9078865  54.4508781  42.0667191  59.1015091
  53.4879265  42.6674767  58.1001091   3.7408750   6.3237586  78.1984863
   2.8593323   6.5955253  78.4539413   4.3195834   6.9539828  78.6276093
  40.7108688   1.4007514  16.8270760  39.8424988   1.6531805  17.1408386
  40.5815468   1.1997550  15.9001942  23.3779507  58.6646080  74.0630646
  23.1614475  59.3280907  74.7181625  24.2535839  58.3643150  74.3066254
  41.1922226  66.7119064  84.0876007  42.0107040  66.8627777  83.6147766
  41.1981964  67.3619156  84.7902222  76.7201004  51.3161774  64.5497742
  76.1913300  50.5310593  64.6919632  77.5823212  51.0907402  64.8990555
  51.1817589  55.7460365  15.1738920  51.7142029  54.9785004  14.9650211
  51.6122894  56.1364212  15.9344654   2.6908779  57.7174683  31.5966606
   3.1552172  57.9807320  30.8021088   2.7380924  56.7614365  31.5960255
   5.2488227  52.6014175  47.4192390   4.6458383  51.9705391  47.8124695
   4.9755440  53.4473000  47.7742577  63.8214951  58.9881325  25.3739357
  63.4645004  58.1526566  25.0726700  64.4140244  59.2618294  24.6737671
   0.1014000  30.0001545  47.3420830  -0.3680391  29.6603413  46.5802536
   0.4509269  30.8426628  47.0518379  65.3258972  68.2942810   4.9433031
  64.8230667  69.0946045   4.7920275  65.8112106  68.1589050   4.1294403
   2.7856593  15.6721983  21.1231403   1.9929090  16.2008018  21.2145634
   2.6977320  15.2548275  20.2662258  16.8932076  39.5759583   7.8259902
  17.2989712  38.9882774   8.4633436  16.3507271  40.1628418   8.3527889
  75.9542160  48.7865410  12.8253794  76.2068634  48.2124290  12.1023359
  75.1150284  49.1584435  12.5539265   2.6046393  70.1473160  56.1616669
   2.1049523  70.5888596  55.4749489   2.2241151  70.4687195  56.9790611
  66.2643967   6.6462860  74.6444855  66.8674088   6.8959794  75.3446732
  66.3101120   5.6905308  74.6185226  55.3232460   9.3190403  35.1848145
  55.1729927  10.2421637  35.3885231  56.0396843   9.0594654  35.7640953
  79.5188446  38.8708458  82.7266998  79.5973740  38.0479431  83.2092972
  79.1527481  39.4867477  83.3614273  60.6227493  54.5510559  13.6385679
  61.3566284  53.9390564  13.5827942  60.5130043  54.8755226  12.7447500
  38.3114777  53.7454453  26.6793346  38.5046806  53.6629105  27.6131935
  37.3576622  53.6853752  26.6258602  67.2758179  29.9776096  14.1484385
  66.5486145  29.9087429  13.5298386  66.8559494  30.1196575  14.9968252
  33.2215805  69.1519699  38.2647324  32.2709160  69.2419968  38.3307953
  33.5244942  70.0138092  37.9788857   1.1370208   2.7917416  25.2289085
   0.5250685   3.4013264  24.8164120   0.5928115   2.2660418  25.8151741
  28.7261791  65.7878876  42.6673470  28.3565159  64.9749069  42.3228989
  29.5764828  65.8664856  42.2348709  49.0351295   2.8169527  80.8040771
  48.2233849   2.4464958  81.1505737  48.8656273   3.7575259  80.7509384
   7.8539562  20.3668556   4.7961926   7.3850241  20.3447971   5.6303678
   8.7758551  20.4448090   5.0416651  86.2278442  13.4998045  15.0124044
  86.0738068  13.8149729  14.1218023  86.2023010  14.2889671  15.5535154
  14.8170061  51.0107841  24.8591003  14.9754543  51.2145882  25.7808323
  14.4659710  50.1203156  24.8676071  51.9194870  16.9305115  61.3288841
  52.2659874  17.8002987  61.1297836  51.3496704  16.7243176  60.5879173
   2.1476095  21.4700489  40.0420494   2.8533885  21.4521694  39.3956833
   1.6880206  22.2923317  39.8721619  12.9875984  61.1408844  16.0632515
  13.6363173  61.8286324  16.2129059  13.4489021  60.3277130  16.2686443
  65.0195770  19.9496708   8.4134932  64.1586227  19.6700668   8.7246466
  64.8301163  20.5593185   7.7002845  28.5149021   2.8273048  59.3889580
  27.6391163   2.5239933  59.6281891  28.5165939   2.8233025  58.4317665
  11.8583641  16.3821869  75.2103882  11.7594118  15.9136057  74.3816147
  12.7821245  16.6317081  75.2356491  80.5489960  40.0436287  50.7497864
  80.6807098  39.9430885  49.8070374  80.2527542  40.9477119  50.8551674
  66.9023438  10.1737585  84.9921722  67.0381393  10.6309423  85.8220978
  66.2307663   9.5198259  85.1860504  27.6960678  45.5558167  81.2666016
  27.0841904  45.8932877  80.6124268  27.1790295  45.4962616  82.0699463
  72.2683182   3.7314115  10.7935276  71.9460373   4.2032404  10.0255804
  71.7669067   2.9160891  10.8015556  25.8476925  62.8790321  36.5199394
  25.9731712  62.5024719  37.3909645  25.3681011  62.2071648  36.0353584
  65.9538040   6.7798657  80.2233429  66.5897369   6.1877279  80.6248322
  65.7000809   7.3736429  80.9299469  13.4831572  13.5554314  31.4429207
  13.7969694  13.4042339  30.5513515  12.5383596  13.6755018  31.3471527
  31.3018875  54.2453804  53.9660263  31.0056477  55.0850487  53.6146965
  30.4952660  53.7829475  54.1935081  10.7399120  26.2845001  85.7684250
  10.0831938  25.5935116  85.6818848  10.3919697  27.0116196  85.2522202
   5.0218959  30.2714882   5.9145980   5.3249993  29.5989857   5.3045979
   5.7980385  30.4970951   6.4273710  12.3181229  43.8222275  88.0398636
  13.0438147  43.3531303  87.6280975  11.8585091  43.1538506  88.5480576
  25.9049473   2.4816875  78.2193222  26.3208961   1.8217797  77.6645813
  26.6259289   2.8612595  78.7216644  36.9790649  49.8026657  12.3396502
  37.3583603  49.4096756  13.1257324  37.6779251  50.3527832  11.9858131
  46.6372185  43.8021011  60.8549995  45.8139420  43.6277122  61.3111038
  46.4588051  43.5733109  59.9428291  81.3478775  48.8774643  60.5010185
  81.0705032  49.0947418  59.6110268  80.5303268  48.7668457  60.9864082
   4.4348173  21.7897530  46.8151398   4.6183038  22.6291790  46.3933258
   4.2113466  22.0188046  47.7172661  56.7538757  51.2297134  54.9598503
  57.0419235  50.8263588  55.7787323  57.2315483  50.7563400  54.2786903
  72.7205658  10.8680887  32.2008400  73.5828629  10.8796921  31.7854710
  72.8229141  11.4138699  32.9805069  34.1043816  -0.0032238  36.5705376
  34.9241676  -0.2059899  37.0211716  34.2781982   0.8213822  36.1166191
  69.2770386   8.2256317  23.3843784  68.3227615   8.1508799  23.3819218
  69.5257263   8.1480894  22.4633064  42.2753830  69.7576141  38.4269447
  41.7709694  68.9508820  38.3221245  41.6794968  70.4511642  38.1438560
  49.7205696  13.8813639  59.4675751  48.8806992  13.7367868  59.0317497
  50.0110588  14.7364101  59.1501694   4.6372180  12.6629019   9.0428581
   4.2345543  11.7980537   9.1211681   4.0417886  13.1539478   8.4766703
   8.5343742  61.2180176  37.2769127   9.0956020  61.1540833  36.5041466
   8.0115232  62.0059776  37.1286736  67.8996201  59.3393059  83.0277252
  68.7413559  59.1527863  82.6118774  67.5091248  60.0221519  82.4823151
  55.2743874  32.3534927  21.3074646  55.3488884  32.6611061  20.4041080
  54.8794632  33.0872231  21.7785339  69.0755463  22.4269886  29.5226879
  69.3953552  22.8211689  30.3342152  69.3738022  21.5183792  29.5639801
  49.0051727  65.2787094  84.1926651  49.2397156  64.5836945  83.5777054
  48.4342194  64.8511276  84.8309555  27.1655693  55.6732140  74.9117508
  27.0470104  55.8747978  73.9835587  26.9277802  56.4821815  75.3648148
  76.4142914   4.0720735  58.1709862  76.0694199   3.2253683  57.8874588
  76.1767654   4.1296840  59.0964546  41.7373543  70.8080750  27.1890697
  41.2129211  70.9898376  26.4092255  42.1338272  71.6501160  27.4126930
  25.4378948  20.2408867   4.7831635  25.4479141  20.0987396   5.7296968
  25.7159519  21.1503525   4.6745906  83.1773834   2.4095271  31.4771900
  84.0179901   2.1446822  31.8506603  82.5319824   1.8689140  31.9326229
  31.7741108  42.3612328  19.3331738  32.4989662  41.7747574  19.5496578
  32.0255852  42.7544823  18.4975033  30.4734764  66.5798645  40.6063347
  31.0686035  67.2734756  40.3218155  30.1898823  66.1596146  39.7944260
  36.8574715  64.4499893  28.7521935  37.2479515  63.8190231  29.3568764
  37.2321396  64.2282486  27.8997326  45.9909782  61.8076973  84.8096695
  45.5872765  61.0511246  85.2349396  46.9005280  61.7928314  85.1075439
  33.4933243  39.0220985  17.0387135  34.1000214  38.3705597  17.3903542
  33.2931671  38.7111015  16.1558495  64.3788910  40.6042709  43.3320961
  63.6677437  40.8027534  42.7229156  64.7926178  41.4507065  43.5012436
  81.1573944   7.2526178  60.9087639  81.5276031   7.3963847  61.7796860
  81.4026260   6.3536768  60.6896744  68.3897934  18.0602512  43.2565651
  68.0152588  17.1950359  43.0911484  68.4168777  18.4780712  42.3957977
  77.6249542   6.1025100   4.1616821  76.6854477   6.1113319   4.3446612
  77.9489670   5.3213406   4.6100392  59.7687149  19.6532631  60.0052643
  59.0968208  20.1784039  60.4400291  60.5261078  19.7029095  60.5884628
  76.0564957  46.3973198  74.3636169  75.6881943  47.1159973  74.8775101
  76.3634109  46.8120918  73.5573959  38.8008080  21.2694702  72.3967590
  39.4758377  21.1513710  73.0650558  39.2879105  21.3610191  71.5778732
  62.8899879  48.8987198  77.1317749  62.7612305  48.4028320  76.3232269
  63.2261276  48.2557411  77.7561340  28.1856556  12.4709187  47.2515488
  27.9959564  13.0560379  47.9849510  27.7709427  11.6425686  47.4925499
  70.7274323  16.5458412  21.3432236  70.9855881  17.4079933  21.6692333
  69.8672028  16.6870003  20.9478664  76.8163910  67.9854355  14.0438757
  77.5349960  68.3524170  13.5289297  76.0626144  68.0095749  13.4544106
  32.3925858  56.6239128  33.5560799  32.0029945  57.0070839  32.7701836
  32.0052986  55.7504768  33.6139412   2.3635068   5.1036606  58.5662003
   2.3021574   5.9041071  59.0875015   3.0750003   4.6078725  58.9714203
  33.9205284  69.6470032  33.0270462  34.2839432  70.4990463  33.2682495
  33.0083466  69.6856003  33.3145638  62.5049515  42.6090584  37.3582535
  61.9716415  42.7089691  36.5696907  63.3642998  42.9506073  37.1110764
   7.8537111  17.6233883  66.4464340   8.7533293  17.3842869  66.6694870
   7.5289364  18.0827160  67.2208862  56.0621490  36.2382927  15.3983068
  55.7096481  36.4109459  16.2713280  55.4999084  35.5488625  15.0450287
  14.8422518  45.8616829  70.0506287  14.5888395  46.7770386  70.1695404
  14.7126579  45.6966705  69.1167068   2.7486269  27.9262447   1.0347143
   2.1174376  27.5226097   1.6304581   2.3420732  28.7546654   0.7804220
  76.3003235  40.6976051  25.3635445  75.4592514  40.9630394  24.9915543
  76.3749771  41.2039948  26.1723900  39.3079338  33.2832375  17.6542301
  39.6940575  32.5980377  18.1997967  39.2940102  32.9086952  16.7734585
  71.8868561   0.3734417  14.9631100  72.4711761   1.0956160  15.1938982
  72.2787170  -0.0103961  14.1786728  13.8678980  30.0084858  79.0330963
  14.2065744  30.0223026  79.9282684  14.6038074  29.7019119  78.5032959
  41.8405457  17.6764469  87.9440155  41.4809303  18.1150131  88.7150955
  41.7396126  16.7430325  88.1305161  47.2053185  35.8138657  27.8219986
  47.9293518  35.7393761  28.4436550  46.4185104  35.7883186  28.3665314
  52.1402626  45.2093925  49.9702911  52.1286621  44.7429504  49.1345100
  52.7802620  44.7346802  50.5006485  55.7761116  53.6550369  15.1119890
  55.9241753  54.4687729  15.5938015  56.6409340  53.4113770  14.7819138
  28.5975037  21.5625668  22.6821918  27.7565670  22.0165596  22.6278877
  29.1969814  22.1069489  22.1717949  78.7672272  70.1147842  62.4439926
  78.6130142  69.1967392  62.6668015  77.8989639  70.5168228  62.4706154
  75.3837128  14.0170965   6.2829285  75.0362778  13.7091169   7.1199880
  75.0638809  14.9160843   6.2070508  75.5074387  44.1131554  23.0823936
  75.8505249  43.2212868  23.1380157  75.4229813  44.3945389  23.9933929
  43.9332962  15.7248135  76.2134628  44.7462616  15.4035149  75.8234863
  44.1396141  16.6151962  76.4978638  17.7536907  66.3892746  89.2931519
  17.9252205  65.4625473  89.1258469  17.9314651  66.8204651  88.4572678
  86.7552643  16.2271786  44.0093765  86.8540497  15.4579382  43.4483604
  86.5482635  16.9396839  43.4046288  67.3968277  22.4743938  39.4268837
  66.9274368  21.9797611  38.7551384  67.5475616  23.3326874  39.0308495
  23.3398705  36.5128860   6.8502283  22.7569771  36.4488449   6.0936794
  23.8288136  37.3233910   6.7079425  28.4743443  60.1931458  58.8974075
  28.1269894  60.1909485  58.0054588  28.3391666  61.0894852  59.2048759
  67.8922119  63.0404091  65.1183929  67.9845810  62.1743393  65.5154037
  68.2480850  63.6426086  65.7717972   6.5282078  31.3139229  37.8482819
   5.6063132  31.0759296  37.9467773   6.5630598  32.2405281  38.0858154
  81.7490692  49.3593025  67.0415649  82.6245651  49.3060265  67.4248276
  81.8853149  49.1922836  66.1089478   9.1476307   8.4596767  61.8499718
   8.3663635   8.0807171  62.2527618   9.6776857   7.7036452  61.5976028
  36.4938431  68.6839218  32.2466621  35.7027931  68.1566391  32.3582153
  36.1765938  69.5251999  31.9182854  33.4123726  27.6987324  15.4719238
  34.1649704  27.5251579  14.9065037  32.9343987  28.3982487  15.0264492
  49.1598701  65.8232880  27.9420090  49.1386833  65.0023270  27.4502678
  48.2736626  66.1753159  27.8587093  63.0983505  55.4693604  77.4622192
  62.7955704  56.0703239  78.1429596  62.3471146  55.3722572  76.8770294
  62.2729340  24.1634941  66.8169022  62.5855484  24.0848560  67.7181854
  62.4806709  23.3191032  66.4168015  83.6495438  58.3603210  14.1427956
  84.3908539  57.7580986  14.0793562  83.5549240  58.5257187  15.0808372
  13.0444946  46.5182304   4.9718699  12.5719547  45.7749710   5.3467116
  13.8190842  46.1293564   4.5656443  33.7139969  70.5697784  13.1957512
  32.8417091  70.7726593  13.5336676  34.2191010  71.3698044  13.3408289
  42.9851341  39.9827194   2.2709520  42.5509605  40.8311996   2.3593040
  42.3368263  39.3488274   2.5777340  12.2969418  40.9841576  60.5235023
  12.9884930  40.5815277  61.0487442  12.6997004  41.7736282  60.1619072
   5.5387673  27.0798435  42.0849838   5.1187210  26.2814388  41.7650757
   6.3244963  26.7724705  42.5370712  16.8946533   7.3970265  68.9910049
  16.4807758   8.1991463  68.6723480  16.2474785   6.7114849  68.8253860
  51.4171066  58.1918488  43.1269913  51.7573929  57.8540878  43.9554596
  51.8787918  59.0204315  42.9984398  27.8970451  57.3771782  53.6386986
  27.6182117  57.2117081  52.7380829  27.4540806  58.1903877  53.8809891
  36.1089478  56.8063011  44.5405388  35.6716843  56.3024368  43.8541336
  36.2917900  56.1659622  45.2281189  65.9010620  34.0028687  86.6164856
  66.5408401  34.2383728  85.9445801  65.8189697  34.7897301  87.1553192
  83.7751694  21.1693916  67.6132584  83.4097977  20.3298969  67.3339996
  83.8200989  21.6897602  66.8111191   8.7808390  37.0309792   8.4034100
   8.3164101  37.8643494   8.4810610   9.5346642  37.1216660   8.9862957
  23.6365032   6.1297870  35.8850021  23.5378475   6.7381482  35.1526108
  24.5657196   5.9000473  35.8820305  79.5744400  67.8058777  58.6256828
  80.1258163  68.1333008  59.3363266  79.9244308  66.9362183  58.4322166
  45.5609932  66.9159927  58.2530785  45.3820305  66.5075073  59.1000404
  45.8608170  66.1958008  57.6984024  60.0516472  53.3319664   1.4848080
  59.2566147  53.2406883   0.9596174  60.5658913  53.9971313   1.0272690
  76.8370132  61.2464371  42.2052727  76.8968735  60.7462730  43.0192032
  76.4962006  62.0998688  42.4731064  53.4219513  46.4558907  13.7870846
  53.7601089  45.9155350  13.0730133  53.5139275  47.3548546  13.4714298
  36.8157501  43.8874397  70.9446564  36.6734352  44.8163033  70.7624664
  37.6237297  43.8649826  71.4573898   3.8040605  18.4999332  53.0849075
   4.6953135  18.3210030  52.7851028   3.3521228  17.6596928  53.0075684
  60.5914307  60.1264305  51.5946274  61.4619980  60.5061264  51.7136879
  60.0089417  60.7031822  52.0888863  84.7856064  66.3397827   4.6704254
  85.6170807  66.1134872   5.0871682  84.1189804  65.9726105   5.2509642
  11.0526333  39.1894379  58.7284737  11.5378428  39.6472168  59.4149437
  10.4457836  38.6209221  59.2025566  46.2604980  52.8414459  36.5759125
  46.8686028  53.2766953  35.9784164  46.8145370  52.2688065  37.1063423
  56.2001991  36.4186592  46.5708542  56.6517525  35.7602081  47.0988503
  55.3024979  36.4176025  46.9030647  18.8936367  61.4749336  73.4595947
  19.3239098  61.4668045  74.3145981  18.6130657  60.5698738  73.3240509
   6.2966738  35.2392006  19.6097012   6.1827812  36.0904198  20.0324154
   5.4051418  34.9203682  19.4691753  75.6119232   4.0825124  65.7954559
  75.8544006   5.0082521  65.8164673  74.8171387   4.0551305  65.2627182
  62.9552689  17.2238178  13.8156528  62.2778015  17.7036476  14.2921305
  63.2254028  16.5300312  14.4172506  79.7591476  44.9332809  46.4094238
  78.9396439  45.2160454  46.8152428  80.1817780  45.7459717  46.1316757
  14.1822786  52.4838448   1.0499716  13.9823399  51.5484581   1.0861480
  13.5582962  52.8856964   1.6544493  51.2783432   4.9872947  54.4390411
  50.7606697   4.8418870  55.2309418  52.1788025   5.0691652  54.7532082
  57.3166924  16.4789867  40.5454941  56.8081207  16.4851456  41.3563843
  57.9924889  17.1430759  40.6815681  78.1248016  55.7453537  78.5932541
  77.4345169  55.9973984  79.2066116  77.9925995  56.3159943  77.8362045
  53.2883797  70.6860352  15.5076685  53.5619812  71.0830688  14.6807852
  53.4630852  71.3587952  16.1657696  19.8014526  44.7196808  33.9717941
  19.7053528  43.7674599  33.9552460  20.5815239  44.8724518  34.5050659
  72.4577332  55.5226097  73.9818802  73.0644073  56.1098137  74.4328461
  71.6583405  56.0385742  73.8770676  55.7253380  66.3780289  58.5408897
  56.2656898  67.1672440  58.5782623  54.8263969  66.6997986  58.6087189
  85.8186417  33.4652824  70.5344467  86.1307526  32.7411079  71.0770264
  86.5696030  34.0549736  70.4669800  67.0637512  40.7251358   5.7272558
  67.0363388  41.6819115   5.7349024  67.2085571  40.4823570   6.6417608
  54.9661903  53.7047462  55.4351959  55.5627670  52.9567604  55.4642792
  55.1037903  54.1534309  56.2694473   2.8937702   6.6424656   8.9610128
   3.8312738   6.8057046   9.0643196   2.5624733   6.5740261   9.8564405
  57.8382835  57.7598991  79.8084869  57.8498192  58.0270844  80.7275696
  57.6384811  56.8241196  79.8335953  26.4936066   0.0482744  71.7907410
  26.8335342   0.3057187  72.6477127  25.9067688   0.7622333  71.5415115
  28.8488998  51.0252953  64.9612503  28.1665554  50.5613060  65.4463806
  29.1757374  51.6818619  65.5763321  56.7587013  59.7401009  49.9685745
  56.8003349  59.9663963  49.0394402  57.3152924  58.9658051  50.0516777
  74.8791809  60.9394264   3.1172643  74.6870193  60.9401817   4.0549769
  75.7256470  61.3805923   3.0458829  44.9662056  66.2412186  50.2698212
  45.0985298  66.9792480  50.8648300  44.1056938  65.8946686  50.5057297
  41.1159401   8.7750740   5.0066023  41.6615372   8.5636225   4.2490788
  41.6611366   8.5574512   5.7626662  35.2475853  21.1705456  26.9782162
  35.6975822  20.3280182  26.9159069  35.5383034  21.6550694  26.2055893
  18.7758331  60.9135818  82.4212494  17.8324623  60.7878952  82.5236511
  18.9742908  61.6829491  82.9550323  63.1938477   6.2733521  86.5311279
  63.7331657   5.4909158  86.6458588  62.5379601   6.0190845  85.8819885
  39.2263794  39.5401764  88.6627655  38.3343658  39.5381622  88.3155823
  39.2192841  40.2191734  89.3374100  74.9996643  29.3683510  10.9569435
  75.0243149  29.6094971  10.0309448  75.8890152  29.5319977  11.2708111
  57.3503189  59.9929962  34.0635147  58.1940384  59.7413254  34.4390564
  56.9814186  60.6101341  34.6954079   9.9766808  36.8900681  51.6304131
   9.8964787  36.8797226  52.5841904   9.7888823  37.7957611  51.3840714
  23.1474228  64.3890686  40.1263733  22.7536316  63.6665421  39.6373749
  22.4022961  64.8595810  40.5000496  85.7734222  59.9649353  72.7539444
  86.3605499  60.3803673  72.1223297  84.8955307  60.2125435  72.4637222
  15.7949123  11.9864101  71.1299133  16.2991066  12.3425159  70.3983307
  15.3939562  12.7527666  71.5399933  22.0863762  70.2245483  77.8470154
  21.9765663  69.2839890  77.7072983  22.6863842  70.5011368  77.1543961
  81.9818420  42.0401344  24.4841919  82.2019043  42.9327164  24.7508469
  82.5637665  41.4848061  25.0030403  77.1054382  38.6770477  29.2008648
  78.0183563  38.9642334  29.2189980  77.1507263  37.7494011  28.9692383
  15.0265779  51.0077934  54.3361664  15.0789642  51.6570892  53.6348114
  14.9111891  51.5250320  55.1332741  67.1621094  59.3260651  45.3085670
  66.8990326  59.0546799  46.1879807  67.6201477  60.1560593  45.4410286
  21.8873100  69.9542847   7.3307862  22.0084858  70.8625259   7.6076436
  21.0552635  69.6926727   7.7251053  43.0871773  47.8326569  61.7935371
  43.8410301  48.2902946  62.1656914  42.4997864  47.6949615  62.5366707
  11.7167454  57.1006393  13.6576309  11.0415859  57.5458794  13.1456223
  12.1517057  56.5235100  13.0299673  34.3077812  30.9423981  23.5853233
  34.0206528  30.0684910  23.3206043  34.0704918  31.0023918  24.5107021
  69.1486740  14.3736620  48.8629074  69.7349091  15.1041622  48.6655998
  68.4780655  14.4138346  48.1810722   2.5468957   8.6520834  85.0096893
   3.3293099   8.5826817  85.5567169   1.8182944   8.5166512  85.6155167
  66.1452026  63.0962715  45.6195602  65.4178772  62.7189102  46.1143646
  66.9264832  62.6901627  45.9949379   8.5280304  32.1306610  32.8754501
   8.2063046  31.6213875  32.1315651   8.0588884  31.7748604  33.6301308
  13.8509045  70.0568695  85.5810318  13.6994600  70.5495529  84.7744598
  13.5466347  70.6385193  86.2776947  36.1944962  27.3434658  22.7580338
  36.3307419  27.7891331  23.5941257  36.0065079  28.0485878  22.1386051
  64.5351486  62.4914207   0.1066934  64.7529678  62.5661087   1.0357846
  65.0938034  63.1390457  -0.3230949  76.2384262  68.8352203  61.1157646
  76.6142120  68.0038757  60.8261337  75.6718292  69.1064911  60.3935394
  49.9194984  41.0902672   7.2270489  49.3053894  41.0772781   6.4929271
  50.7829247  41.0311012   6.8181148  59.2310066  49.3529701  42.0664673
  59.5777168  50.2451401  42.0738373  59.9962883  48.7999001  41.9093361
  31.4040470  32.9794006  16.4069366  32.0072937  33.7136803  16.5216446
  31.8658352  32.2292786  16.7815018  58.6401978  54.6937485  35.5242653
  59.4124680  54.1990776  35.2501678  58.7445412  55.5500145  35.1093559
  56.5202522  51.3401642  37.7841759  56.2344475  50.4826965  38.0992928
  56.9106483  51.7592583  38.5511055  57.7177429  56.4177475  40.2182198
  57.9242477  56.7672157  39.3513527  57.5335197  57.1915131  40.7507401
  54.7612534  31.8584003  38.1022263  54.9215088  32.7758179  37.8811073
  55.5979233  31.5451889  38.4459076  51.1056442   6.6531262  65.2048721
  50.2607689   6.3028011  65.4871674  51.0499229   7.5906987  65.3894958
  58.3283958  44.2206841  21.3240147  57.9570999  44.4492989  20.4718952
  59.2718658  44.1738777  21.1694031  19.4407330  58.8297424   6.7092891
  19.5798645  59.0075035   5.7790875  18.5098343  59.0028610   6.8495998
  35.2359314   1.7496963  68.5035477  35.4331703   0.8428832  68.7381134
  34.3389244   1.7213084  68.1706772  54.9291077  47.0647202  71.7040405
  55.1176758  47.7570152  71.0704803  55.2248001  46.2612572  71.2759705
  79.6664352  53.0948029  52.0983925  80.1421356  52.9343681  52.9133759
  80.3473053  53.1295319  51.4264984  57.8729248  57.0221710  88.6468811
  57.6611404  57.2153206  89.5601578  58.1928139  56.1201134  88.6608047
   4.8081226  10.3658419  17.0745831   4.9057426  11.2672586  16.7677460
   5.4720888  10.2721205  17.7576637  12.0256205  49.6580582  62.4185219
  12.6481047  48.9595833  62.2163315  12.0808821  50.2521973  61.6700745
   1.4148648  57.8701897  35.4801865   1.2575828  58.4105949  36.2544289
   2.2504435  57.4375267  35.6558075  85.0201340  38.3192101  85.4087219
  85.7764130  38.8458214  85.6674957  85.3664017  37.4315338  85.3172455
  39.8517151  66.8310471  40.2056503  39.0675278  66.8289185  40.7545395
  40.5752373  66.9439163  40.8220940  17.2139454   3.2017648  52.0596924
  17.6459160   3.7740526  51.4255638  17.1879311   2.3461549  51.6313400
  58.2869568  58.0093842  21.1515350  58.5455780  58.8424301  21.5457230
  59.1145096  57.5772324  20.9402637  67.1631165  51.5890350  63.4261131
  68.0533371  51.4569702  63.7521553  66.8464890  52.3585739  63.8991737
  52.6258583  55.9471512  80.8148499  52.8812904  55.4389992  80.0449371
  52.3385468  56.7891121  80.4616089   7.5500536  65.4685287  28.9504700
   7.9417925  66.3197174  29.1460476   8.1108809  64.8374481  29.4015121
  41.3880501  61.4792366  73.1587448  41.9859352  61.0803261  73.7909088
  40.7898750  60.7725334  72.9158783  13.0334482   6.3128266   4.9366417
  13.6136866   5.6456618   5.3033113  12.8747749   6.0244670   4.0378070
  69.7267456  16.9907169  86.6440048  69.2438507  16.8350353  87.4556808
  70.5915833  16.6127949  86.8035889  70.3345413   8.1024828   7.6943669
  70.1392441   9.0395355   7.6992750  71.2325439   8.0432720   8.0204182
   7.7716932  40.2155228  80.4453430   8.0784016  40.0406647  81.3350525
   7.9588604  41.1437836  80.3055725   2.1192577  45.8145638  54.0089455
   3.0286384  45.8965454  54.2962379   1.6686471  45.4130096  54.7518692
  72.4900360  64.6814804  69.2734985  72.1257172  65.0991516  68.4930801
  72.6461868  63.7748528  69.0091476  15.6640778  30.6595860  56.4589424
  16.4166546  31.2468433  56.3883209  15.3326283  30.8005943  57.3457832
  66.2225342   4.9425373  50.8609200  67.0109711   5.4831181  50.9096298
  65.5839005   5.4006610  51.4072685  68.0805817  10.6992254  33.5237045
  67.9419098   9.8482008  33.9393463  68.8058929  10.5537529  32.9162560
  64.7125244  23.0572739  62.6588974  64.0737305  22.3458672  62.7044907
  65.2958374  22.9033928  63.4020653   0.0012560  59.2085495  77.1007843
   0.6609962  59.9016647  77.1245651   0.1808228  58.6801758  77.8784790
  79.7319031  25.0789452  68.4598312  78.9820404  24.6262054  68.8457947
  80.3848724  25.1002274  69.1594162   0.3763811  23.3135319  39.0723114
  -0.3305295  22.8274059  38.6478233   0.7734255  23.8239956  38.3666077
  29.3656406  55.5076294  84.8716888  29.7174854  55.8203926  85.7051239
  29.0120869  56.2917099  84.4516220  24.4344730  53.4935379  10.4966917
  25.2335682  52.9710426  10.5650978  24.7364712  54.4005470  10.5452662
  75.1113815  43.6356506   9.9745293  75.3187027  42.7600899   9.6479731
  74.6121750  44.0432510   9.2667913  36.6878204  60.9068336  73.0937576
  36.2747498  60.3146782  73.7222137  35.9662361  61.4350510  72.7523804
  60.2082558  66.0170975  61.2123985  59.5881462  65.2886581  61.1795807
  59.9988365  66.4733810  62.0273705  52.4258766  37.7696648  74.6742020
  51.5230827  37.7639771  74.3561401  52.7810631  38.6055336  74.3718796
  64.5204468   7.0744886  28.6808033  63.8586197   7.3876991  29.2973328
  65.0771484   7.8362727  28.5195484  66.4945755  10.3005676  76.2655182
  66.8017426  10.7604609  75.4842529  67.0753479   9.5435133  76.3416672
  16.2122383  59.4867134  70.7312775  16.1404762  58.5459709  70.5697632
  15.9915257  59.5882950  71.6571274  81.7260742  12.2612772  26.0443916
  80.8962479  12.5821476  26.3974609  81.6659546  11.3089066  26.1192684
  15.4299927  44.2165794  88.1607971  14.9928389  44.3891716  88.9946671
  16.1962833  44.7901344  88.1688766  66.7222137  11.0235376  17.7894897
  66.5475159  10.0846844  17.8548107  66.7420578  11.1985779  16.8486404
  29.6952229  38.2066612  88.1875916  29.4653854  38.9232788  88.7790833
  30.0173244  38.6416664  87.3981247  46.8416557  65.3096161  85.9032288
  45.9288635  65.2523575  85.6208038  46.8553886  66.0392303  86.5226746
   7.3768721  51.8936119  18.8192978   6.8781967  51.4128876  18.1586456
   8.1545916  51.3563805  18.9701920   6.2334380  49.7828789  17.3839397
   5.8333497  49.2361336  18.0601273   6.2048545  49.2447395  16.5928535
   7.2861900  42.3513489  14.7995243   6.8029265  41.5418777  14.6338692
   8.0909653  42.2584496  14.2896824  59.1008987  56.8876648  44.5729332
  58.7451210  56.7777786  43.6911278  59.0891647  56.0068398  44.9474220
   6.0437093  63.2189484  29.5488853   5.4210620  62.7912445  28.9609985
   6.2680974  64.0372543  29.1058655  32.6725235  48.7517776  30.2459869
  33.5856361  48.9787521  30.0700855  32.7094154  48.1972618  31.0253334
  27.0096645  60.1367874  24.1411209  27.7726727  59.7495575  23.7120514
  27.3760090  60.7891464  24.7381573  45.5221596  10.3920412  67.7857056
  45.8292847  11.2045650  68.1878433  44.7703552  10.1308584  68.3174973
  29.8441257  55.6291885  14.4133730  29.1827793  55.2568130  14.9966307
  29.3653679  56.2681236  13.8853693  47.4467850   4.4188662  21.0995026
  47.6382790   3.5950081  21.5476322  47.9049377   4.3481135  20.2620544
  74.5760422  68.5234528  12.6848431  73.9847717  69.1851883  13.0436392
  74.7369461  68.8084793  11.7853451  45.8686333  10.4708996  50.4386711
  46.6643066  10.6954727  50.9210663  45.9776993  10.8935127  49.5867729
  28.6534729  69.1876526  49.4362946  27.8917637  68.9322205  48.9159203
  29.3719864  68.6634979  49.0824089  31.1299458  58.7481804  46.1641960
  31.1312675  59.4649277  46.7986298  31.7051048  59.0497093  45.4609871
   6.9632406  23.1230335   3.8588734   6.2974329  23.1128845   4.5464983
   7.1145473  22.1993866   3.6583371  51.2757759  66.2641144  71.4759674
  51.2071571  67.1365128  71.0880966  50.4242706  66.1174850  71.8878860
  34.8926888  56.3115730  35.1194496  35.3405113  55.5943413  34.6708183
  34.1299171  56.4974747  34.5718651   1.3942562  12.4793549  55.7253609
   1.9833130  12.0651999  55.0947113   1.9061446  12.5319548  56.5324783
  48.4854584  44.5131226  11.3333445  48.5341377  43.9923325  10.5316963
  49.2713852  45.0591164  11.3123493  79.7847595  42.2044334   6.9424090
  80.6546555  42.3932381   6.5904551  79.1934509  42.7522621   6.4261994
   9.5587912  59.4652481  43.1639252   9.1089640  59.6681900  42.3437424
   8.9878759  59.8214035  43.8446922  46.3645782  51.5752792   4.5176792
  46.2277374  52.5201607   4.4490724  47.3152084  51.4737396   4.5648060
  56.5488701   4.5119834  88.7220612  57.0302696   3.7401178  88.4242172
  56.2491798   4.9329967  87.9163589  25.4692059  17.5818081  17.6329441
  26.0511799  16.9385662  17.2282467  25.2646008  17.2125988  18.4920444
  45.7846298  16.6245937  80.6113358  45.1015701  16.3720818  81.2325516
  46.4327011  17.0869408  81.1428146  29.5102863  64.9847488  58.4810982
  30.3059826  64.6720734  58.0505981  29.8238792  65.4404831  59.2622528
  10.6082449  62.4832497   2.5846858  10.5596094  61.8861694   1.8381168
  11.2296772  62.0684586   3.1830201  61.4975433  31.7950859  74.9123383
  60.8494911  31.2761784  74.4358902  62.3182182  31.6419086  74.4440842
  37.5307465   3.5289481  40.3191185  37.3843956   4.4717450  40.3962402
  36.6840286   3.1368771  40.5326195  24.0953808  10.4371319  84.6626511
  24.9254742  10.0538282  84.3793564  24.2486706  11.3817720  84.6429596
   9.3159256  11.0738792  43.2931976  10.1378593  11.3760166  43.6796799
   9.1895161  10.1966085  43.6546516   7.9671111  14.7093229  63.7670937
   7.1953616  15.0999594  63.3571701   8.0447788  13.8471727  63.3585625
  14.7258768  67.6349030  86.2702484  14.3721066  68.4361420  85.8841248
  14.7743120  67.0181580  85.5398331  63.7733994  23.8857918  69.2850266
  63.5096855  23.1326180  69.8136292  63.7442131  24.6259174  69.8913269
   8.5071392   8.3379335  15.8631144   7.5882225   8.1251926  15.7001247
   8.5904436   9.2552586  15.6027174  53.5215569  32.2260017  80.2229080
  53.0975876  33.0096207  80.5727997  53.6673660  31.6704292  80.9886246
  45.9714279  52.2799911  49.1470108  45.8558960  52.1538239  48.2052231
  46.6862984  52.9125671  49.2180023  21.2386036  56.2609940  54.2907143
  20.5039387  55.6476974  54.3098793  21.9696712  55.7482910  53.9458809
   7.4684920  39.8762932   0.4251255   8.1637859  39.8784180  -0.2327453
   6.6966476  39.5581818  -0.0431634  47.7884483  63.3799248  87.9783783
  47.3425293  63.8572502  87.2786942  47.3039703  63.6094246  88.7713699
  55.0587730  55.8553238  82.1821518  54.2986412  55.9313622  81.6053925
  55.1072693  54.9228477  82.3927994  66.9881897  26.3513927  57.6362457
  66.1101532  25.9704666  57.6230507  67.2032700  26.4252739  58.5660362
  74.5985794  37.5860405  18.0707302  74.3782425  36.8518829  17.4974155
  75.3587341  37.2826042  18.5670395  57.7015839  40.7449608  27.6007710
  57.8536034  41.4727936  28.2035789  57.3451576  41.1564789  26.8134670
  65.5690918   9.0717955  26.0245514  64.6995239   8.6737976  25.9836311
  66.1390228   8.4489965  25.5734043  15.8329887   4.8895583  15.6348372
  16.5743198   4.9485316  16.2374821  15.5604467   3.9730597  15.6793613
  82.1564407  64.4833527  29.4057255  82.7158813  65.1546555  29.7963867
  82.5040207  63.6569748  29.7411633  77.4247284  46.6824379  55.1362267
  77.1065063  46.1567307  54.4023361  76.8517380  46.4467964  55.8658714
  82.8393478  70.1661606  22.1940269  82.9152679  69.6519623  22.9978104
  83.7179794  70.5179214  22.0508423  79.9873657  35.9775085  52.5852737
  79.3615112  36.6992035  52.6460724  79.4564667  35.1896172  52.7019157
  53.2437782   7.0059986  16.0078506  52.5599213   7.5450964  16.4052773
  54.0104752   7.1430998  16.5642776  54.3183556  71.7559433  88.1616745
  53.9471283  71.8417511  89.0397720  55.0514793  71.1500626  88.2697296
  63.1983376   3.5345688  13.1036253  62.9426994   3.9922318  12.3027344
  62.4564743   3.6561480  13.6961546  55.4165573  66.7339325  52.4192429
  56.2647896  66.7173386  52.8624802  54.7949219  66.4291306  53.0802269
  20.5824871  40.1472244  21.0447712  20.0618191  39.5197906  20.5433102
  21.0301132  39.6152992  21.7027359  79.9070663   1.5768907  56.6675415
  80.4255295   0.7843186  56.5287590  79.3088989   1.3501765  57.3796005
  23.0572090  20.0925732  81.9196930  23.0777893  21.0148430  82.1750870
  23.8216763  19.7081375  82.3486786  60.4776611  11.0975132  44.9382439
  60.9784622  11.8600597  45.2279854  60.4687080  10.5143480  45.6972351
  20.8697529  28.3453083  23.6546955  20.2882042  28.8964405  23.1309700
  21.3206997  27.7959156  23.0135689  70.7356949  50.6252441  21.3101864
  71.2064514  49.9474983  20.8251266  69.8588638  50.6292305  20.9262829
  63.4520760  17.0559158  35.1029320  63.0232124  16.5454025  34.4161415
  62.7309914  17.4182568  35.6176872  48.8208847   2.9478662   0.9806539
  48.4582367   3.4859564   0.2769666  49.1914787   2.1869245   0.5335950
   5.1225243   6.3789425  46.1540451   4.3983312   6.1302152  46.7284241
   5.3459592   7.2701344  46.4225311  65.1533356  34.5442505  27.4280624
  64.8644409  33.9776115  26.7127323  65.8546219  35.0725555  27.0468521
   6.1497850  46.8247833  65.9309998   6.0512009  46.3251839  66.7415009
   6.6525764  46.2493172  65.3545761  32.2474861  15.7348156  81.5200424
  33.0239220  16.2569351  81.7219620  31.5127640  16.2779903  81.8053131
  14.1480913  14.8175058  56.8760223  13.5725965  14.1849375  56.4460297
  14.9727144  14.7575760  56.3936996  61.3606262  55.9869766  86.2250290
  61.0456429  56.8033409  86.6130600  62.2669106  55.9136238  86.5242004
  61.2109985  51.4810028  57.0785828  60.4975929  51.3976402  57.7112999
  62.0058403  51.4769554  57.6119118  67.0390549  66.0625000   8.7413044
  66.8649979  66.2861862   9.6555815  66.4488220  65.3318329   8.5569487
  47.7678719  13.0299044  16.5896549  48.4946442  12.9080181  15.9787722
  47.4315948  13.9036903  16.3905354  49.0793839   7.5072999   0.2077724
  49.1000023   8.4257650  -0.0609813  49.9993896   7.2725053   0.3289967
  57.4374733  14.5065660  17.6765003  57.2519417  15.1177759  18.3894043
  56.7459755  13.8477383  17.7397976  48.4325638  34.4747810  25.6181393
  47.8818512  34.9392586  26.2483845  47.8133736  34.0812073  25.0033779
  23.4068985   1.9632779  31.8515873  24.2481422   1.6283708  31.5411415
  22.7779675   1.6852859  31.1857052  62.1077805  57.2193146   9.4689436
  61.4525299  57.2142029   8.7711945  62.8976784  56.8676414   9.0583067
  66.3277969  69.6932678  25.1365871  65.6615143  69.3426819  25.7276726
  67.0554047  69.0747757  25.2020626  66.2493286  22.9341774  80.0330582
  66.6800919  23.5439186  80.6321335  66.3418732  22.0794067  80.4538193
  71.1561661  52.8404961  29.5923862  70.8809586  52.0206528  29.1820908
  72.0595398  52.6802979  29.8653126  45.8452225   6.7771959  11.5933323
  45.4680710   7.1215243  12.4029169  45.8436470   5.8275471  11.7133169
  42.9968414   4.5015993  51.8739243  42.8642502   3.6756492  51.4086761
  43.8937759   4.7568016  51.6580200  48.0217438  62.1837845   8.9627085
  47.8799477  62.7853584   9.6936245  47.1656189  62.1141243   8.5402946
  30.1266594  23.8004494  22.5413399  29.6407948  23.9222298  23.3570213
  30.3233185  24.6890373  22.2447491  28.1082287   6.1422768   1.0846286
  28.4260960   7.0361552   1.2118036  28.3200951   5.6939707   1.9033879
  66.4374390  20.0376377  37.9858551  65.7284088  19.9503899  38.6229553
  66.1747284  20.7747326  37.4345779  19.7131310  48.0396423  84.8735504
  18.8565865  47.6720619  84.6557312  20.3307133  47.3307648  84.6937943
   4.0602508  60.2150497  22.9173222   4.3544812  59.9362526  22.0501823
   4.1470375  59.4331207  23.4625587  28.4258938  60.7660599  31.3552589
  29.3602734  60.7142410  31.5564594  28.3626099  61.4463959  30.6849117
  22.8852558   2.5973299  73.1082077  22.4728603   2.9410634  72.3157349
  23.2813148   3.3633399  73.5236588  41.8213844  52.5317459  26.0180435
  41.8956299  51.6101112  25.7704372  40.8904190  52.6558647  26.2027931
  45.8995667   3.0141108  86.6550598  45.7930489   2.4744940  85.8716660
  45.7948608   2.4020710  87.3835373  49.2167168  26.5645199  20.2862282
  48.9993172  26.3677940  19.3750381  49.1918640  27.5200253  20.3374691
  51.9732285  44.6770096  79.6015701  51.4084473  45.3071404  79.1541443
  52.5853081  45.2168922  80.1016922  40.1328278  13.8912172   4.4036956
  40.6878815  14.1942825   5.1222334  39.6549530  14.6721525   4.1243949
  74.7712479  30.7213955  80.1502457  75.5608063  30.7302265  80.6913071
  74.0565338  30.5830269  80.7717438  23.5510521  42.8832245  84.3490982
  24.0650635  43.3442841  83.6861877  23.2297783  42.1005211  83.9014511
   8.0532846  57.7086563  51.4039574   8.5480347  57.0525703  51.8948822
   7.2390981  57.8126144  51.8964272  80.3902817  58.9911461   1.4591953
  80.9150925  58.2573547   1.1392584  80.3985825  59.6229935   0.7402162
  22.5983772  17.3046188  74.5259094  22.3395042  17.8378506  73.7743301
  23.5471611  17.2126045  74.4388733  12.6106281  18.4702568  51.4226723
  13.2509365  17.8937130  51.0057411  12.5925875  18.1868286  52.3367729
  52.5564232  38.3504448  31.8614178  51.9584007  37.6297989  31.6632519
  53.3503838  38.1455078  31.3675938  85.4465103   6.8854365  56.8429298
  85.3767319   6.7135353  57.7819786  86.3853760   6.8444610  56.6610451
  64.5931244  56.5464668   8.2783461  65.2522507  57.2355995   8.1954002
  64.3387833  56.3485680   7.3770261  41.6375771   2.9472053  35.3020782
  41.3930931   3.7675242  35.7304916  41.7091064   3.1733541  34.3747292
  73.5642776  12.0218258  68.1075439  73.2804337  11.7021618  68.9639740
  74.5137177  12.1126833  68.1884308  69.7038651  28.6840439  54.2746964
  69.9010162  29.6084671  54.4257050  69.0697479  28.4600124  54.9558220
  58.7245636  12.3729267  56.5453033  59.4527283  11.7626600  56.6618423
  59.0723801  13.0535879  55.9691467  75.5680771  13.3949718  35.3370819
  75.7912445  14.0803404  34.7072449  76.0448456  13.6353111  36.1315384
  35.2792168  48.6704712  88.7904587  34.4012527  48.5964966  89.1645508
  35.6000328  47.7694397  88.7523651  70.2803192  14.3931293   1.0971595
  69.7857361  14.8612757   0.4245075  69.8091049  13.5676136   1.2099227
  83.0741272  12.5996141  66.3797607  83.0435257  13.3110485  67.0194168
  82.9574966  13.0326586  65.5341263  81.3272018  19.6091003  63.0083771
  81.7220154  18.8350029  63.4097786  80.4938202  19.2972679  62.6555634
  30.8172626  25.4302883  19.7268944  30.1232471  25.0889969  19.1628971
  31.5178375  24.7810631  19.6641731  70.8717346  39.8808289   8.5962925
  71.0302429  40.7706337   8.9115019  70.4280548  39.9997025   7.7565012
  21.1969795   8.9809256  41.3007088  20.3587685   9.2852936  41.6485519
  21.8541813   9.4299974  41.8323593  43.8455124  29.8902988  89.0260010
  43.3917046  29.0955849  88.7454300  44.7686157  29.7167473  88.8416367
  26.7967949  12.8216534  16.3735390  26.6546803  11.9075871  16.1275330
  27.3569221  13.1718187  15.6808081  46.9550552  54.9309120  56.6283302
  47.4290924  55.3641815  57.3381157  46.7301979  55.6381531  56.0237808
  49.2329445  51.9619713  83.3413696  48.7153816  51.9612274  82.5361633
  48.9253273  52.7297821  83.8231049  61.9989777   9.1219301  77.8120193
  61.8972168   9.8159714  77.1607285  62.8987579   8.8161173  77.6975555
  62.8945732   2.7927999  64.0510864  63.5238342   2.5756860  64.7389297
  62.1635780   3.2007270  64.5152740  73.8589859  22.2462044  85.8498230
  73.7452393  23.1241875  85.4859085  74.2699966  22.3915482  86.7019882
  66.7294388  13.7814960  14.3645897  65.8664703  13.3846750  14.4830837
  66.9667053  14.1029902  15.2344055  42.5712547   3.7695680  13.4635992
  43.3303185   3.2461910  13.2064428  42.4699821   3.6004975  14.4002905
  81.4225998  65.9503403  81.5129089  81.1197052  65.1930695  82.0139313
  80.6774750  66.5511932  81.5130157  34.5617790  71.4481277   0.5893931
  33.7562218  70.9660034   0.7761305  34.5867462  72.1385422   1.2519094
  79.8524628  58.9947548  71.8772278  79.8824997  58.0581436  72.0723953
  79.5938721  59.4033699  72.7033005  47.0737114  47.0872116   8.4249563
  46.1416740  46.9527130   8.5965605  47.3307686  46.3332520   7.8941998
  10.9282827  11.7425947  62.6358070  11.7209864  11.2093344  62.5767632
  11.0433636  12.2549734  63.4360924  75.5354767  50.1424446  51.7869644
  75.4211960  49.8776360  50.8742485  76.4839478  50.1986885  51.9030724
  12.0696878  32.0695152  81.8409119  12.9869118  32.2278976  82.0641785
  12.0419388  32.1288681  80.8859634   5.0454340  28.2210217  15.9926634
   5.4399509  29.0849152  15.8731785   4.1338291  28.4034615  16.2205296
  72.7641449  66.3476181   2.1000550  73.6982040  66.5380936   2.0135195
  72.3353500  66.9896545   1.5342289  43.1403542  36.9677429  11.1900415
  42.6084175  36.9576111  10.3943195  43.4928055  36.0800819  11.2538462
  71.0652237  10.2568140  58.1035271  70.6378555  10.2374926  57.2472458
  71.7033157   9.5441589  58.0688782  59.9715919  55.4719810  62.2683258
  59.1601219  55.8638229  61.9455109  60.3435516  55.0289230  61.5057144
  42.5528374  38.6326408  30.3795071  42.7911644  39.4509125  30.8152390
  42.1503334  38.9082489  29.5559406  39.5826225  20.1698208  85.6595840
  40.1019859  20.5917530  86.3440323  39.2605362  19.3648777  86.0652390
  26.9320107  53.4040108  80.9247284  27.6731300  53.3325043  81.5262756
  27.3129749  53.2648010  80.0577087   7.8241997  67.9169388   1.2709525
   8.3639698  67.1692047   1.0144809   8.4535751  68.5831146   1.5472246
  16.9752407  60.5509682  17.9217072  17.4755020  59.8167076  17.5655708
  17.6371002  61.2044258  18.1479073  54.2386360  21.6733227  56.6484451
  54.0057983  22.1240273  57.4601593  54.1997185  22.3541985  55.9767876
  79.4598694   2.8673358  25.5705757  79.1593018   3.6115859  25.0490513
  80.2703781   3.1723509  25.9783440  39.2196808  68.8029099  14.1971598
  39.3460159  67.9003754  14.4899111  38.2712364  68.8946762  14.1062412
  83.3531036  70.9149704  30.6132641  84.0153046  71.1648102  31.2577000
  82.6729584  70.4780197  31.1258087  41.3087769   0.3859866  43.4065323
  41.8236732   1.1475192  43.6733322  41.9528503  -0.2253821  43.0492783
  79.2184601  42.6060257  76.4457092  79.9401016  43.0284653  75.9798584
  78.4295120  42.9964638  76.0697403  40.3429184  47.3508873  79.8933792
  40.2847633  46.4605064  80.2398911  41.2776909  47.4872246  79.7389603
  60.0730629  36.7810249  44.8038406  59.7162628  35.9327698  45.0672531
  60.8246078  36.9145317  45.3814163  41.2575645  65.7270279  44.3816299
  41.8431702  65.0456238  44.0514984  41.0503197  66.2579575  43.6126099
  78.1326141  48.3586159  41.1597061  78.8422394  48.9977798  41.0953674
  78.2732162  47.9287453  42.0033150  39.9734039  70.7563705  49.1319046
  40.6486244  70.3132935  49.6457062  39.4780579  70.0460434  48.7241096
  59.9500351  47.6341820  50.5008812  60.8669014  47.7763710  50.2655792
  59.4918327  47.5877914  49.6617546  67.5637817  58.9335251  18.9350300
  67.5336227  59.5337677  18.1900253  68.3978195  58.4738312  18.8386288
   8.3556747  44.1731911   0.4451966   7.8090892  43.9993134  -0.3211207
   8.2313995  43.4079666   1.0066406  75.3020172  37.0889740  34.3257599
  75.1772690  36.7508163  35.2125092  75.9104691  36.4728279  33.9178581
  34.0793304  33.3319397  21.5514488  34.1991539  34.1405678  22.0494423
  34.1600456  32.6352730  22.2028847  12.7348719  36.4641418   1.8567034
  12.2318439  36.5704384   2.6641040  12.8980007  37.3583450   1.5566623
  48.7174187  20.1044483  28.5751991  48.3002357  19.7786045  29.3727074
  49.1669083  20.9038067  28.8494587  27.9452686   3.7449105  65.9249573
  28.6536312   3.1117175  65.8086777  28.0498180   4.3576202  65.1970215
  43.0174866  46.2885361   6.8310013  42.2714119  45.7643280   7.1222167
  43.7340469  45.6594582   6.7471347  66.8749008  71.5046616  67.2297363
  66.5203552  70.7135086  67.6354523  66.4551926  71.5417862  66.3702621
  40.3089104  64.5809479  58.6880150  39.4087296  64.4222565  58.4039001
  40.4452705  63.9643211  59.4073296  62.0646744  30.5731583  24.3784504
  62.2944756  30.7770061  25.2850208  62.9059067  30.5140591  23.9256115
  19.5631371  68.9222565  37.4796333  19.9403019  69.7715836  37.7090378
  18.6797523  69.1273422  37.1733551   4.2521024  57.6043816  84.7491684
   5.0415082  57.4415741  84.2328720   4.3799653  58.4807167  85.1123734
  39.8895454   4.6662292  81.2825775  40.0889397   4.2956290  80.4228516
  40.7447395   4.8814411  81.6548157  37.2798576  51.5150070  73.5475845
  36.6511230  51.3861465  72.8374329  37.1285019  50.7771912  74.1383057
  30.5697517  53.3238678  76.3840027  30.5124187  54.2392921  76.1102524
  30.4044075  52.8240166  75.5846024  34.5686035  30.3320103  26.9067535
  33.7625351  29.8720016  27.1410027  35.1027718  30.2984924  27.7003365
   7.9841299   9.4429617  27.2861843   8.1803808   9.1553030  26.3945732
   7.0406284   9.3105278  27.3783703  63.4608803  29.0302868  78.0342865
  63.6981544  29.4722500  78.8495178  63.3008041  28.1223946  78.2918549
  66.8750992  31.8134441  42.3018188  67.1784744  31.9691372  43.1962204
  65.9555130  32.0789604  42.3111839  18.6725178  67.9480591  77.7880859
  18.1227093  67.1645508  77.7804718  18.3291893  68.4885025  77.0765533
  80.7330627  57.3865852  27.5857029  80.1403046  58.0607414  27.9179344
  80.1858139  56.8461266  27.0159245  63.9465027  20.5845070  82.8137436
  63.0527725  20.5225887  83.1508560  64.4905472  20.6862011  83.5947113
  12.7614393  32.4605942  25.7778015  11.9535799  32.9513550  25.6269741
  12.6396580  32.0570984  26.6372147  55.0242577  48.6278496  26.8536911
  55.1963806  48.3235779  25.9626122  54.5441360  49.4478416  26.7382374
  68.1790695  23.9139843  13.4491940  67.7429352  24.6897564  13.8016081
  69.0561676  23.9377670  13.8317699  75.2713547  44.9807892  72.1502609
  75.2878799  45.6451797  72.8391266  76.1090393  45.0832138  71.6985703
  84.5271225  23.9447021  33.6315498  84.4604416  24.8974915  33.5684700
  83.6687393  23.6650734  33.9496918  19.8049183  11.9798450  36.6894379
  18.8602905  12.0845404  36.8032265  20.1518936  12.8707600  36.7353706
  64.8130798  26.7299480  84.4964752  64.6077957  25.8105812  84.3266068
  64.1987839  26.9896202  85.1830902  73.2831955  32.5646172  83.5101395
  72.8683701  32.0877876  82.7912674  73.9698181  33.0821877  83.0895386
  63.5073318  32.2247314  33.7061768  64.1480408  32.9274254  33.5968971
  63.8337479  31.5148563  33.1532211  18.4178352  58.7467346  44.8803978
  18.7614937  57.9783173  45.3361015  17.5583191  58.8946152  45.2748489
  78.9918137   9.0932217  84.0850143  79.3611603   9.8957129  83.7164688
  79.6191864   8.4101133  83.8483810  12.6373701  35.8212433  18.8990116
  13.2826948  35.5888672  18.2313366  12.3353071  36.6937981  18.6467476
  67.8622818  14.0479965  56.4141769  68.5718613  14.3870010  55.8684692
  67.7856903  14.6811028  57.1280022  60.1054382  41.2866859  45.5861168
  59.7558403  40.3967934  45.5402908  61.0555725  41.1707344  45.5922470
  64.1801682  19.6809101  15.0975904  63.4979477  19.0764675  14.8052692
  64.7951584  19.1312084  15.5832348  79.4170685  59.0700150  83.2833939
  79.9886398  59.4815254  82.6351700  79.1465225  59.7887344  83.8547821
  16.9861393  46.2835350  80.5935516  16.8520660  46.0484543  79.6754074
  17.9256096  46.4534340  80.6625595   3.9611773  67.1748352  61.7343559
   3.5412943  67.2675934  60.8791809   3.6675599  67.9395599  62.2295532
  30.8176041  20.6556187   8.9599581  29.9489574  20.7119808   8.5618286
  30.7239704  19.9953499   9.6466236  66.6715012  55.6458931  52.3463097
  66.7990112  54.6997261  52.2774811  67.0045319  55.9932709  51.5188713
  79.8672714  15.7323551  73.7850418  80.0239639  15.7816105  72.8420410
  79.5947037  16.6168823  74.0290680  65.0857468  48.2999878   7.4228663
  64.8213730  48.5075645   8.3191071  64.3302002  47.8463440   7.0492549
  70.8115921  10.2010231  78.7561035  70.6268311  10.9528217  78.1931763
  70.3072357  10.3682833  79.5522766  85.2381744  59.3321648  61.7890701
  86.1078720  59.2612457  62.1825562  85.0674133  60.2733383  61.7534714
  57.3727493  51.0226784  85.6242447  58.0004120  51.6494141  85.9840775
  56.5211868  51.4450493  85.7368469  71.3295670  23.5121403  41.6044579
  70.8378601  24.2854633  41.3279953  70.9858932  22.8029385  41.0611725
   6.4983826  22.1200542  58.6958923   7.0421896  22.6406364  58.1047096
   6.2998700  21.3250885  58.2010651  51.5942078  34.6559715  85.1815186
  51.1165199  35.3101425  84.6715088  51.4565163  33.8356705  84.7078323
  22.4948425  13.7843132   7.1720681  22.9785900  14.5831900   6.9622669
  22.3091164  13.3864279   6.3215241  73.9760895  48.6748009  57.2307434
  73.1036606  48.9473839  57.5149879  74.0096970  48.9085922  56.3031387
  72.2062149  43.8477974  54.8350830  72.7278900  44.6089134  55.0896187
  72.6646118  43.4860306  54.0766449   6.5803127   1.2851138  47.0063705
   6.9844556   0.4281497  47.1424332   6.4727488   1.6419005  47.8880539
  51.8235321  60.0190048  16.9252853  51.1252747  59.3643532  16.9354076
  52.6291656  59.5114174  17.0229607  19.9942589  37.2285995  11.0988111
  20.6739960  37.6126785  11.6525908  20.0875969  37.6777763  10.2587166
  58.7007294  23.6762505  46.1016235  59.4117393  23.0706539  46.3112564
  58.7812843  23.8231678  45.1592026  78.3448868   7.2655730  22.3236580
  78.8860779   8.0550699  22.3169060  77.6935730   7.4274888  23.0061512
  52.2005959  64.5308304  55.5739555  52.2215424  64.5082397  56.5306625
  51.7096176  63.7472649  55.3265648  12.7060699  46.1697845  28.6047535
  11.7674274  46.3210640  28.7156410  12.7816763  45.2258644  28.4649963
  17.1046581   0.6794705  14.2340527  16.8181553   0.3348185  13.3882608
  17.6456184  -0.0172479  14.6057749  11.8683262  45.7171326  16.1143570
  11.7390785  45.1380730  16.8655033  11.1295738  46.3247299  16.1504230
  31.1917019  17.7746468  82.9941177  31.1836815  18.4510555  83.6713486
  32.0099182  17.9207535  82.5193481  63.4609184  14.7383366  49.1275215
  63.0238037  14.2593794  48.4234200  64.2113266  14.1912222  49.3594360
  43.8769531  53.0674286  57.4708557  43.9510345  52.7850571  56.5592575
  43.5514259  52.2960701  57.9348297  80.6566849  50.8178711  33.3996582
  81.0840149  51.6495934  33.1950569  79.8864746  51.0639687  33.9119453
  82.0543747  59.8595352  37.6699982  82.5562286  59.6065254  36.8951683
  81.3121033  60.3546715  37.3234329  64.2763214  47.8675613  42.4121552
  65.1215210  47.7219810  42.8372154  64.4503403  47.7327881  41.4806061
  79.4748001   3.5003810  59.1655846  79.4571686   3.6897430  58.2274666
  79.1872330   2.5897863  59.2315674  53.5920982   8.3804722  74.0659103
  53.2476273   9.2707758  73.9956741  53.6855698   8.2333765  75.0071106
  38.3738861  37.4662704  82.5801849  37.7201614  37.8512917  81.9965515
  38.2521172  36.5215149  82.4861450  39.0661430   6.1576943  57.7339897
  39.9131927   6.5954809  57.6498451  39.1445274   5.3769712  57.1857567
  61.0259590  16.1784668  47.5993690  61.9094162  16.4138050  47.8828354
  60.9560013  16.5340328  46.7134171  23.4813633  45.1813278   7.3663754
  23.5930595  45.6183586   6.5221238  22.7020702  44.6371651   7.2531395
   2.7738507  44.8877525  43.3271599   2.4434297  45.6787949  42.9013557
   2.0043442  44.5017433  43.7455940  24.5469990  60.0865746   6.8441291
  23.6099510  59.9452400   6.7092400  24.6747513  61.0205002   6.6777115
  43.3804626  31.4682674  82.1367340  43.8482666  32.1520500  82.6161423
  43.7790680  31.4704189  81.2664871  74.7586517   5.5710163  22.9764404
  75.1502457   4.7550216  23.2879486  74.1811295   5.8465834  23.6883144
  26.0585670  15.2734318  80.3108978  25.7680397  16.1828022  80.3806763
  26.7485600  15.1912460  80.9692154  59.4145584  62.0347099  29.0860157
  59.9240456  62.3039093  28.3216934  58.6567116  61.5785904  28.7201500
  62.3914413  46.5673752  31.6717739  61.8840561  46.1339226  32.3579979
  63.2171860  46.0841064  31.6429729  64.0068512  25.9183235  35.2533150
  64.1066055  26.6991787  35.7978745  63.5318832  26.2242584  34.4806290
  22.7127533  63.5671272   9.5176601  23.3571396  63.6458397  10.2210817
  22.0575523  62.9590569   9.8599949  11.6588259  24.2286854  15.3835192
  10.9329090  24.4548931  15.9649887  11.2696123  24.2137470  14.5091505
  48.7927399  38.0832024  69.1875839  49.4310532  37.9536018  69.8889999
  49.0897369  37.5063095  68.4838638   3.0888226  34.2181549  68.3683472
   2.5446281  34.7453041  67.7833633   3.9380505  34.6597900  68.3682098
  20.9910011  52.6288223  32.3122368  21.7500401  52.2694740  31.8529339
  21.0147762  52.2145309  33.1748085   5.6338549   5.5105410  50.2303810
   6.2233744   5.1533213  50.8945274   4.8733935   4.9294801  50.2476654
  72.7050858  35.6935577  75.5257645  73.4660568  35.6330872  74.9482651
  73.0689926  35.9380608  76.3766632  11.4551229  61.0112762  70.2531738
  10.7575760  60.4253387  70.5469971  11.9965763  60.4699059  69.6787338
  37.0733223  27.3122177   1.3457106  37.5685539  27.0844154   2.1325297
  37.7197418  27.2870922   0.6401995  71.8730316  37.3550377  13.6532364
  72.8293152  37.3453064  13.6939669  71.6516647  36.6440239  13.0518303
  75.6550827   5.0082331  52.3738899  76.4774399   5.2160730  52.8174667
  74.9790344   5.3999162  52.9268608  69.0835342   2.0643368  14.2238789
  69.7982559   1.6474259  13.7426367  68.2954407   1.6140829  13.9198923
  34.5800781  60.6170616  66.6998367  34.1638947  60.4990730  67.5537033
  35.5154457  60.5096245  66.8723984  83.9075928  57.2120934   9.1491289
  83.2612991  57.0781670   9.8423777  84.5918961  57.7414780   9.5586538
  12.0983400  19.0348930  81.3056793  11.9178934  18.8024330  80.3948441
  12.7725697  18.4142647  81.5822067  72.5175629  39.4243279  74.0297470
  71.6634903  39.1698494  74.3790894  73.1354523  39.2116547  74.7291870
  10.2009926   2.1219134  27.8855247  10.5723391   2.8509662  27.3887196
   9.2592020   2.1767366  27.7234879  55.7628021  63.3831215  50.5452957
  55.8777657  63.6254196  51.4641609  54.9633331  63.8356895  50.2764778
  54.8149490   3.1587422  30.2029324  54.0287666   3.5513558  30.5824070
  54.9307747   3.6132343  29.3685150  25.9382954  38.4049721  80.7298737
  26.7047501  38.7421455  80.2660904  26.2776794  38.1210480  81.5786591
   4.8197770  43.5774193  54.3760719   5.1417489  43.4958115  53.4783478
   3.9926419  43.0956764  54.3785896  32.3029518   7.6905255  36.0406609
  32.6733513   8.0201435  36.8594322  31.9508839   6.8295598  36.2665291
  49.8657150  28.1424370  23.2282715  50.0778732  29.0322151  23.5102558
  50.4967308  27.9545040  22.5334835  44.2327843  70.8544006  67.5128632
  44.1308594  71.1926422  68.4024887  44.4090424  71.6300735  66.9804306
  38.7197456  64.9593735  45.1470299  38.6250305  65.3211670  46.0281448
  39.6500130  65.0602798  44.9454041   3.7475309  68.9942856  21.2772217
   3.0454633  69.3068848  20.7065945   4.3247709  69.7504807  21.3830395
  35.9350243   0.1569793   6.3293581  36.0160866   0.1376822   7.2829242
  36.3114052   0.9992095   6.0739818  65.5970993  70.2715683  49.6338196
  64.9070969  70.6572037  49.0939865  65.8054276  70.9495850  50.2765656
  38.7793121  37.0085411   2.9926937  37.8822098  37.3207016   2.8744030
  39.0149307  36.6302376   2.1455805  11.6400051   1.9470648  48.2865448
  11.3521681   1.4976878  49.0811768  11.5104542   1.3053617  47.5882149
  59.9224052   6.1380091   1.7719145  60.6427002   6.2091780   1.1455455
  60.0350456   6.8903079   2.3529398  38.7356796  58.3170967   2.5962753
  38.9490623  59.2474442   2.5244741  37.7808876  58.2946091   2.6603086
   5.8110166  69.9806595  73.9640656   6.6865311  69.8866043  73.5887527
   5.7018156  70.9240417  74.0837784  85.8064728  52.1990585  57.9310760
  85.9853821  53.0760307  58.2704010  86.5777359  51.6865349  58.1733818
   9.8732910  23.1794930  76.9749680   9.8183813  24.1280651  77.0908585
  10.5431929  23.0587997  76.3019943  46.9100876   5.8108463   0.6661726
  47.6683006   6.3570256   0.4587308  46.5507202   6.1939006   1.4663950
  46.3119698  17.0635338  69.3457718  45.9130516  17.2838287  68.5040131
  47.2533035  17.1479187  69.1941147  21.8100243  69.0896378  88.8226089
  21.4719276  69.3094177  87.9544983  21.0482254  69.1509628  89.3989182
  74.9965897  23.9327545   3.1692820  75.7240906  24.4827518   2.8786342
  74.4821625  23.7777271   2.3770916  44.6755257  70.4428635  59.7036934
  44.6445045  69.8785095  60.4762077  44.0248108  70.0703735  59.1086731
  32.9206696  29.4158821  80.0740356  32.5304756  28.9323997  79.3458710
  33.5342369  30.0214424  79.6580276  54.7622795  35.0627670  43.2182922
  54.0740776  34.5517426  42.7923088  55.5705719  34.7786560  42.7914734
  20.1480789  55.0873756  32.3274994  20.6812057  54.3099327  32.1614037
  19.5328064  54.8149109  33.0082588  24.2800312   5.5761142  21.1921787
  23.6914635   6.3096313  21.3704243  24.2508068   5.0464926  21.9889717
  73.6706848  55.8764114  29.4680576  74.4019928  56.1974716  29.9956417
  73.7231598  54.9234161  29.5407124   1.4035110  28.4845886  19.8342800
   0.6787506  27.8724060  19.9615059   1.0628555  29.1346874  19.2198238
  61.0363503  13.8911896  15.9521723  61.5916748  13.3649015  15.3769636
  60.7836990  13.2922707  16.6548061  81.1420746  65.4341049  86.8903503
  81.2045593  64.5806885  87.3193054  81.3655319  66.0636749  87.5758743
  52.5216370   9.1305618  69.6359940  52.9781723   9.3344402  70.4522324
  53.1730766   8.6720953  69.1052780  39.1475220  55.4236221  44.5066833
  39.2636566  56.3446503  44.7400246  38.3377533  55.1652832  44.9468727
  71.6681824  11.3952055  48.5483971  71.7069778  10.4387999  48.5444069
  71.2138824  11.6130943  49.3622551  40.4206467  52.8140984  28.6206112
  40.9960327  53.3412170  29.1749668  40.3008575  51.9984245  29.1069794
  85.6705246  56.5347099  13.6637106  86.3719330  56.1188049  14.1649904
  85.4205856  55.8793564  13.0123482  60.5217743  14.6031246  35.7185097
  60.5080414  14.8073368  36.6535721  60.4674721  13.6481991  35.6810799
  45.2570114  54.1165009  60.5111465  45.9844017  53.8791924  59.9359741
  44.8050117  54.8213348  60.0473175  79.4653854   1.3868687  70.5252304
  80.3618088   1.4932956  70.8435440  78.9447098   1.9717075  71.0757675
  50.3453217  45.4665756  83.5242920  50.2970734  44.7819099  82.8571014
  49.4692688  45.4878807  83.9094009   3.4982820  12.3286524  60.7377892
   3.4569445  12.0941696  59.8106728   3.2461176  11.5285149  61.1986847
  52.3901939   1.8161545  20.4401894  53.3087234   2.0667031  20.3413830
  52.2230530   1.8845668  21.3801975  79.9471664  60.9755058  41.2736588
  79.0600739  60.7934990  41.5837708  80.5165634  60.6384354  41.9653320
  68.0387192  40.0060425  20.6585960  67.2043686  40.4112396  20.8950462
  68.4408569  40.6243210  20.0484772  63.9010468  46.0148239  27.0192509
  63.2352829  46.6503525  26.7563972  63.4109116  45.3268166  27.4694099
  34.5685120  68.1440201  85.7767868  33.8223839  68.4378204  86.2994766
  34.6707001  68.8182373  85.1050644  34.2415657  59.7558899  74.9948578
  33.9134789  58.9018860  75.2764130  34.9299545  59.9677315  75.6253204
  54.6419067  56.1249161   2.2544804  53.7191620  56.3067474   2.4325609
  54.7204628  56.1945343   1.3030533  43.9073219  60.2297134  11.5637455
  44.4495583  60.0155716  10.8045645  43.4895935  59.4017715  11.8009109
  62.1282845  68.7450485  25.0439453  61.9383163  68.5739670  25.9663754
  61.4255409  68.3019485  24.5685005  35.9049950  69.9551086  67.4277878
  36.5927963  69.5575027  66.8938675  36.3358612  70.1641083  68.2565842
  76.4278870   2.6478670   2.7370076  77.0480347   2.2215421   2.1454937
  76.7550201   3.5433955   2.8221231  35.6238899  40.6006355  73.4059601
  35.1975098  40.8453484  72.5846558  35.7047882  39.6480026  73.3592606
  40.0376854  28.0662479  78.0123062  40.7668037  27.9373703  78.6189423
  40.4440460  28.0646400  77.1456451  29.8116302  59.0565796  62.8762779
  30.0238152  58.5076790  63.6312065  30.3376217  59.8467865  62.9993057
  78.5556335  69.8094101  31.2371902  77.6388321  70.0245438  31.0656757
  79.0429688  70.5720062  30.9254646  49.8692703  34.6055603  19.1210556
  49.3295479  34.1245918  18.4936790  50.7190742  34.1659660  19.0924225
  60.9329720  53.3114586   8.9080563  61.6105309  52.6353455   8.9115810
  61.1008835  53.8229408   9.6995249  39.5521889  31.9540367  83.8057175
  39.2128563  32.2621574  84.6460419  40.4891205  32.1468544  83.8405380
  40.3325233  46.6278343  12.3791046  39.5007324  47.0874977  12.2647762
  40.4399948  46.5595131  13.3277950  19.8672447  27.6789398  87.6770706
  20.2266426  28.2572880  87.0043335  18.9187336  27.7405434  87.5640945
  40.7736130   7.4019313  38.2931633  40.7966499   8.3300943  38.5260010
  40.2871895   6.9881301  39.0061798  33.0040474  57.2513008  82.7894440
  32.5073891  56.6510773  83.3455811  33.3998947  57.8722878  83.4009247
  74.3617401  48.0486069  49.6269188  73.6193237  47.8257065  50.1884995
  74.0588760  48.7994537  49.1163025  53.8273048  24.6575718  17.1053371
  54.5786743  25.2247066  16.9320374  53.0967751  25.0843830  16.6576920
  72.1533203  51.0872421   7.8465276  72.8376007  51.4391136   8.4158974
  72.4065323  51.3668137   6.9667802  37.8530426  56.8891830   9.8727417
  37.6418686  57.3127899   9.0407600  38.0635376  57.6125717  10.4631910
  45.6773262  64.8340073  41.6914673  46.3728294  65.3027573  42.1527481
  46.1375427  64.2960358  41.0472450   4.6200113  19.3671627   5.9200850
   4.6755610  18.9912300   5.0415516   3.8077407  19.8735218   5.9130077
   5.2175164  69.4768066  55.4936409   5.6999264  69.8112793  56.2497101
   4.2964993  69.5661850  55.7385292  42.4128151  46.8094864  86.6222229
  42.7312355  47.1149063  87.4716721  41.4592285  46.8271599  86.7034302
  26.8067532  46.2700958   2.3757608  26.3934937  46.1918182   3.2355993
  27.5130577  46.9028282   2.5061972  77.1693802  53.5136414  49.2456512
  76.2454300  53.7586098  49.2959366  77.6230164  54.3310051  49.0398216
  57.6120224  61.1360016   8.3458376  57.4421158  60.9067192   9.2595081
  58.1805611  60.4359703   8.0249710  67.6321793  49.9469223  76.1260300
  67.8926392  50.8397522  75.8996506  67.7079086  49.9098053  77.0795059
  76.0667953  56.1330223   7.8122478  75.5132523  56.0667229   8.5903397
  75.4899216  55.8938293   7.0868278  69.9779205  55.6493111   3.0746584
  69.1133423  55.9927483   2.8493104  70.4695358  56.4147377   3.3724294
  11.2927837  10.3748960  39.7700424  11.2756147  10.0551233  40.6720848
  11.0591154   9.6121435  39.2410431  24.3858223  60.5554428  29.8439350
  24.9235992  60.0353889  30.4410706  24.9193687  61.3263474  29.6508865
   7.8939605  13.2645435  23.3019714   8.7176933  13.5895195  22.9385338
   8.0219727  13.2949200  24.2500858  24.6451530  51.1253281  60.6107178
  24.1134548  51.5890045  61.2576599  25.4818344  51.5902939  60.6107292
  62.9077034  29.5334377  40.7134514  63.7045288  29.1821671  41.1108322
  62.4427719  29.9514122  41.4382706  30.1877117  48.1188774  78.1987915
  30.7707558  48.4112206  78.8993835  30.5931969  47.3171120  77.8686600
  52.7450638  32.8250771  27.3707409  53.0679779  33.4442329  28.0254230
  53.5358887  32.4843559  26.9527206  35.1900978  19.9435120  88.8180161
  35.6137733  20.5394154  88.2002563  34.8623543  19.2275639  88.2737427
  42.7492332  54.9143867  27.5202045  41.8961296  55.2120094  27.8362236
  42.5484467  54.1677742  26.9558582  40.6988144  59.5448608  31.3173218
  40.4660683  59.1361618  32.1510048  39.8582153  59.7586937  30.9124775
  73.6994171  55.6280899  61.1806641  73.5354691  55.4838943  60.2486992
  72.9787598  56.1894608  61.4665833  61.6714783  47.0315323   3.6246450
  61.4259033  46.1195107   3.7800212  60.8547935  47.5202217   3.7268376
  38.7516289   1.6014179  61.5495605  39.3960037   2.2848852  61.7336464
  38.9986572   0.8779403  62.1255722  75.6419907  40.3610916  10.6845846
  76.5263214  40.4343758  10.3256607  75.1047592  40.0828018   9.9428520
  67.5364990  45.8730354  51.7899094  66.9680252  46.3381310  51.1761055
  68.2471695  46.4880829  51.9712677  75.2521820   5.1283584  76.6453247
  74.3924103   5.5350266  76.5373917  75.6686172   5.6308570  77.3455429
  71.3282394   5.5479112  61.3065147  70.8909149   5.8013434  60.4936485
  70.8247681   4.7991118  61.6259651  10.6228914   9.0369730   7.2551131
  11.5515871   9.1244125   7.0403814  10.6149836   8.6704750   8.1393347
  40.4354897  20.4779835  74.5906677  40.8187523  19.6061478  74.4945221
  39.9327507  20.4302692  75.4038162  55.8044128  24.3399506  52.9291344
  55.4548912  23.5643578  52.4903641  55.1653633  25.0281639  52.7441864
  32.7830505  21.9877911  17.2761841  31.8879452  21.8665466  17.5929203
  32.7187157  21.8759098  16.3277245   9.1675539   0.7767262  10.8951693
   8.4092960   0.5355074  10.3631067   9.7618179   0.0303656  10.8175306
  71.2485199  28.5667515   3.9586511  71.0934143  27.6450310   3.7522323
  71.2309113  28.6042824   4.9149528  54.1054535  26.8033333   7.6216812
  53.9442215  27.0983639   8.5178928  54.5891838  25.9835663   7.7227578
  60.5085144  44.2477951  11.0199347  61.0773811  44.8480377  11.5019417
  61.0207596  43.9979172  10.2509117  84.6478882  13.2807112  46.8629150
  84.4236221  12.5993357  47.4966888  84.5164719  12.8669434  46.0098267
  68.6380157  41.0725250  56.5970535  68.7717590  41.5308914  57.4266624
  68.5554123  40.1511765  56.8430748  20.0968304  16.3164406  28.8685246
  19.4084568  16.3332386  28.2036266  19.7447338  15.7607164  29.5638180
  36.6700706  57.2712517  51.7343712  36.4912376  56.7476196  50.9533081
  36.1144981  56.8871269  52.4126167  50.3540001  71.2654266  19.4024334
  50.9585609  71.9712067  19.6318188  50.6570091  70.5149384  19.9134960
  61.0390816  28.8683662  22.4129696  61.3594284  29.3096294  23.1996708
  60.6809464  28.0400047  22.7320137  73.9838715   0.2877518  40.9208183
  74.4923782  -0.4960888  40.7128639  74.2331085   0.9206063  40.2473145
  14.3987188  40.1563759  80.3787918  14.0263195  41.0381546  80.3834457
  15.0195084  40.1624031  79.6502228  31.5961857  49.5381317  53.5336037
  31.3719368  50.2520981  52.9367828  30.7831173  49.3552437  54.0044518
  66.0986328  26.2414932  47.5407829  66.2201462  26.6757431  46.6964569
  65.5936508  26.8664322  48.0610542  74.7676773  69.6079483  10.2388172
  74.2281113  68.9461365   9.8062544  75.3370667  69.9428940   9.5461168
   8.2884436  54.1795235  70.8254013   7.6095729  54.6747017  71.2838364
   7.9941335  53.2698860  70.8720169  74.6786804   7.3220820  20.6825218
  74.6692734   6.7868781  21.4760571  75.4365540   7.0069270  20.1900406
  44.3646545  42.1676826  42.1381416  45.3139229  42.2493973  42.2299995
  44.0082397  42.7920570  42.7700882  68.4655762  48.7489243  10.3753309
  69.3444138  48.9543266  10.0564442  67.8824081  49.2677307   9.8212662
  12.6387329  47.1758156  64.6853638  11.8590975  47.3232651  64.1499557
  13.2005520  46.6222382  64.1430130  10.0665760  13.6786299  20.3284168
   9.5631037  12.8685379  20.2478065   9.8280010  14.1870422  19.5532837
  26.5189953  50.4751129  33.9499588  26.6236782  50.2229500  33.0325241
  25.8524742  51.1619606  33.9350166  40.0527306  51.4154587  51.8282127
  40.5116005  51.5865669  51.0057831  39.5430527  52.2097969  51.9878616
  11.7647257  53.0557976  37.5515099  10.9950848  52.4913063  37.4791756
  11.4330072  53.8641129  37.9424362  72.2647705  13.8964682   6.4440608
  71.8070602  14.2045774   5.6618819  73.0127258  14.4872513   6.5321994
  66.1445160  49.7956161  40.5044823  66.0602341  50.1618462  41.3848267
  65.7638779  50.4607353  39.9309273  20.1651020  69.5156021  86.6996918
  19.4291077  69.0793686  86.2704544  20.0070724  70.4487305  86.5564346
   6.5053096   1.9083730  38.9024506   7.0273380   1.1178386  39.0394669
   5.7760797   1.6215558  38.3527298  20.5938129  48.4437981  33.2878914
  20.5653038  48.2288055  34.2201996  21.4030380  48.9439850  33.1820717
  19.5253868  56.4007912  51.7568130  19.4634247  56.3786583  52.7117500
  20.2547150  56.9943161  51.5778160  60.6538010  39.7333488  68.3320618
  61.2500687  40.0930595  67.6753159  60.9380417  38.8259888  68.4422379
  61.2456360  17.3272953  36.6594238  60.4639740  17.1406975  36.1394081
  61.2683868  16.6310749  37.3159256  23.5600243  50.7361412  42.3573189
  23.4609280  51.6565018  42.6009407  23.2416115  50.2512207  43.1186981
  37.2549744  48.4543343  18.6669693  36.5459862  48.2756805  19.2847481
  37.1831818  49.3912163  18.4844093  12.0113630  46.6639862  23.8557358
  12.5219755  46.0014954  23.3903179  11.2057753  46.2123756  24.1073475
  79.9723740  57.0707779  75.0416412  79.5678711  57.0706787  74.1741104
  79.5332947  57.7803993  75.5105591  76.9668274  43.2320290   7.3263874
  77.2083740  42.4474411   7.8186383  76.5014877  42.8994370   6.5588737
   2.9462874  20.5801735  82.4956665   2.6594231  21.4150410  82.8657150
   3.9001882  20.5991554  82.5727692  59.0496254  46.5166664  55.5042839
  58.4834290  45.7693138  55.3116302  59.1685333  46.9510727  54.6596642
  43.0638084  60.0918808  75.1937637  44.0080833  60.2255402  75.1118011
  42.7807465  60.7595406  75.8185349  25.1773682  62.3913422  10.6593332
  25.9524651  61.8306122  10.6270590  25.5229492  63.2816277  10.5945559
  59.4986343  63.8952293   8.7434158  58.7148781  63.9823837   8.2008686
  59.3887062  63.0557175   9.1899195  21.4731598  53.7448196  64.2340240
  21.2713490  53.8066139  63.3003807  21.5642681  54.6537323  64.5200424
   1.5712214  34.2290230  81.1991272   1.0149248  34.5915070  80.5096512
   2.0802405  33.5463295  80.7620163   1.1484686  50.8623199  84.6082993
   0.4639660  50.5187950  85.1824799   0.7371438  51.6020164  84.1612091
  51.3621216  64.7113266  85.5827484  50.6058960  65.1093750  85.1515732
  51.5445862  65.2867203  86.3256226  58.7973442  68.9695435  65.5783844
  57.9259186  68.5947800  65.4503098  58.7211723  69.4837112  66.3821640
   9.7106857  42.8958397  36.2765388   9.5545959  43.2587700  37.1484032
   8.8545599  42.5739250  35.9943161  69.2262344  60.6758766  55.9178505
  69.9632950  60.8375664  56.5067787  69.1892090  59.7228546  55.8365517
  46.5841675  42.1589165   6.0883179  46.8241730  41.8426590   6.9593005
  47.3423424  41.9531364   5.5414572  22.1442471  26.0062313   3.5911806
  21.8013077  26.2544136   2.7326763  22.8089485  25.3441525   3.4013052
  37.4757195   6.1540051  81.1276169  38.2037010   5.5336614  81.0895920
  37.8677063   6.9635024  81.4551697  71.4878616   3.0023527  42.1609802
  71.8759232   3.0919206  41.2905693  71.8806763   3.7097981  42.6723022
  26.8898602  10.1764088   4.4625177  27.1898842   9.2743406   4.5742860
  27.6925793  10.6978207   4.4647899  78.7298660  59.3312225  44.6818504
  78.5067902  60.1127472  45.1875038  78.9849854  58.6848030  45.3400955
   5.4232149  36.4536858  11.1552687   5.3478360  37.3684311  11.4269123
   5.9193716  36.0350533  11.8586950  65.4114914  17.3894958  52.0157967
  65.4383163  17.1745090  51.0834351  66.2620316  17.7910137  52.1935730
  26.1934757  32.9850006  23.4986458  26.1876125  32.1275558  23.9240704
  27.1188145  33.2268257  23.4598980  29.4107704   4.3554001  55.2426262
  28.9250183   4.7549272  54.5210609  29.3260193   3.4133341  55.0957870
  64.1800308  29.7853031  75.4189758  63.3352356  29.4259815  75.1479721
  64.2952728  29.4750099  76.3171234  43.9435196  64.5146790  12.0348101
  43.2659912  64.6759033  11.3781567  43.6410103  64.9851456  12.8115845
  84.4796906   6.6362224  61.9691696  83.5865860   6.7498960  62.2942314
  84.9698639   6.3110991  62.7243233  85.8547516   8.0116100  34.0359650
  85.4979935   7.6335521  33.2322083  85.5213547   7.4481244  34.7342224
   4.1078348  62.3207588  24.7580357   4.1394205  61.6602249  24.0659904
   3.2137861  62.2707176  25.0962734  54.8479652  34.2162209  58.7666779
  54.6356964  33.2901917  58.6498566  54.7934265  34.3570557  59.7118912
  11.6648111  48.4731216  15.4626789  12.5538349  48.8278008  15.4709997
  11.6096640  47.9842262  14.6415977  56.5187416  62.5613441  30.0656071
  55.7558022  63.0751457  30.3304901  57.2687035  63.1084747  30.2989101
  11.1117563  41.9373894  81.4415817  11.0551996  42.2746162  82.3356247
  11.3881340  42.6900444  80.9187393  54.0539207   4.7377911   1.3216261
  54.6341171   4.5303264   0.5891200  54.6436691   4.8738437   2.0631924
  29.9083862  24.7175770  72.8388519  28.9896927  24.9773617  72.9077454
  30.0051956  24.0087719  73.4748230  37.4491272   7.4511957  59.4440536
  37.9591255   7.0091753  58.7652664  38.1056671   7.8184991  60.0359001
  32.1091118  69.3638611  45.6105156  31.2127838  69.3031235  45.9408760
  32.0354652  69.1573563  44.6787643  65.3721466  66.9580460  83.4955521
  64.7367401  66.4110184  83.0337753  65.8297806  67.4318390  82.8010559
  30.9013214  47.8413048  19.3553123  31.8080025  47.7755699  19.6550407
  30.6780281  48.7651863  19.4685059  38.4329185  45.7702255  24.1378269
  38.7081299  44.8704376  23.9621315  37.7217293  45.6835480  24.7725945
  57.0194550  12.9306278  46.0078354  57.0088196  12.8633537  45.0530624
  57.1133308  13.8673592  46.1809082  75.2472610  68.3576889  89.3034744
  74.4861374  68.6790924  88.8201370  75.9996643  68.6931076  88.8160095
  18.0839405  53.6090012   5.7694197  17.8881721  54.2136497   5.0536652
  18.3533745  54.1741562   6.4934611  64.7609558  46.4114990  83.4718094
  63.8251419  46.6100960  83.4396286  64.8310318  45.6882591  84.0949020
   3.6808765  71.0328827  77.3604813   2.9014969  71.3383331  76.8962631
   4.2934275  71.7665939  77.3086929   5.9526224   8.6025639  35.6200066
   5.9048009   9.1545210  36.4005737   5.0906110   8.6883669  35.2128105
  86.1237030   6.5681772  73.1817703  85.7103653   5.7108941  73.2839966
  86.4912872   6.5530000  72.2980957  67.8941650  12.5212612  21.6319790
  68.2496948  11.8910522  21.0053501  67.4315109  11.9843407  22.2753315
  58.5462379  18.0998020  14.2301674  59.4884491  18.1562004  14.0711517
  58.3032455  18.9717674  14.5413942  44.1016846  13.7537642  78.9178848
  43.4413528  14.1000147  78.3176270  44.9087982  14.2063379  78.6729889
  35.2242661  57.9619865  48.3167725  34.7202568  58.3535347  47.6034012
  36.1194839  57.9169464  47.9809380   6.4806790  35.8069992   8.7709732
   6.1894889  35.9261971   9.6749830   7.2998633  36.2991219   8.7163486
  25.7797661   9.6468344   9.8825026  24.9535236   9.4839897   9.4274921
  26.4500237   9.3013506   9.2929020  10.6730881   3.7992673  46.7213173
   9.7228699   3.6979151  46.6661453  10.9453859   3.1534886  47.3732796
   0.5838683  20.7179813  66.5838089   1.2151543  20.5343418  65.8881149
   1.1172233  21.0292187  67.3151703  73.9832611  20.7308483  15.2053175
  73.5274734  21.0084419  14.4106894  73.7915039  19.7958088  15.2771730
  82.5368118  22.7112942   2.2606301  82.9015579  23.3508034   2.8723643
  81.7296600  22.4124908   2.6794968  35.0541534   7.6800413  51.3178482
  34.9027176   8.3548288  50.6560593  35.5183716   8.1341429  52.0210686
  45.4061508  32.7695732  83.6664810  46.1985321  32.3838158  83.2929153
  45.5573196  32.7591476  84.6116104  56.5929642   7.2905521  41.8947906
  55.8367386   7.8552718  41.7352715  56.4982834   7.0153856  42.8066864
  35.5960846  64.3597717  49.1483231  35.2484970  63.4989395  48.9151344
  35.8834190  64.2641068  50.0563545  58.3319092   4.4673748   3.9660959
  58.1875191   5.1619864   3.3235240  59.2705078   4.2863169   3.9162512
  29.6986923  68.1598434  60.7187347  30.3455257  68.0474854  61.4153099
  28.9987736  67.5457001  60.9404831  53.0771904  51.5499191  -0.1766803
  53.4006882  50.6994133   0.1203333  52.5692749  51.8844185   0.5624844
   8.3645010  57.5289116  69.3456879   7.9142570  57.0776405  68.6316376
   9.1161661  56.9709396  69.5454330  47.8440475  71.0944061  27.5370235
  48.6158791  71.6492462  27.4244995  47.5853195  71.2260971  28.4491348
   0.7731478  28.4187584   7.9669447   0.7426316  27.9686432   7.1227317
   0.1115787  29.1068439   7.8955541  74.3559341  62.9700508  71.6422424
  74.2535019  63.9144516  71.5245972  75.1712952  62.7590637  71.1873703
  18.8325768  64.2021484  75.1965637  19.6543617  63.7172089  75.2722778
  19.0406246  64.9374847  74.6201630  24.9304771  23.7675152  88.8721313
  25.4117603  23.9363022  89.6821365  24.6117516  24.6278381  88.5992050
  44.1280594  63.7888222  85.2594070  44.8188820  63.1604919  85.0491714
  43.6645584  63.9208145  84.4323807  72.0729599  14.3299160  20.4209671
  71.8846283  13.5695114  20.9710102  71.4689331  15.0048914  20.7304630
  50.1985397  25.3057518  11.0912209  49.9956169  25.5100460  10.1783581
  50.1301689  26.1455097  11.5454969  85.4630203  21.4352150  17.1537170
  85.1719055  20.6556339  16.6807060  85.8623734  21.0945168  17.9541378
   5.1394787  42.9610062  24.4032097   5.3720751  42.9563293  23.4747105
   4.1981902  43.1345062  24.4134502  33.7241249   1.4484580  30.7598267
  34.5047264   1.8750790  30.4064388  33.9804611   1.1704268  31.6391563
  43.1204643  24.5044594  18.8116570  42.9875107  25.4010181  18.5038605
  43.9564438  24.2407284  18.4271946  71.5196838  39.3994026  23.8212795
  71.9126511  39.8704948  24.5560474  71.8707886  38.5116310  23.8906765
  38.7086143   4.6555533   3.1885290  39.3998680   4.3309388   2.6114457
  38.7369537   5.6066866   3.0847261  57.7542000  35.5796089  25.1993122
  57.4408493  34.8300514  25.7054806  57.9031372  35.2299576  24.3207970
   4.7480240  54.6790695  43.0493507   4.0434289  55.2075462  42.6745300
   5.1312194  54.2242165  42.2993507  19.1522560   8.0796089  76.2381134
  19.5018959   8.5668850  75.4920959  18.4219151   8.6130676  76.5515747
  33.1643448   6.3274636  81.7696152  33.7207642   7.0284743  81.4301834
  32.4802628   6.2231717  81.1082611  69.9746552  29.9727364  80.6467056
  69.3006744  30.6140652  80.4215851  70.1771698  29.5374069  79.8186340
   2.1172369   2.8814080  51.1100426   1.5889858   3.1234426  51.8707008
   1.4782978   2.7250960  50.4146614  59.4159050   8.0754385  52.8330765
  59.8795853   8.9085398  52.9177818  59.8951378   7.6027098  52.1525688
  57.6446648  19.8136806   9.9028988  57.0928879  19.0533562  10.0864115
  57.2302437  20.5315132  10.3816500  49.7881355   1.4935014   3.3600824
  50.3707542   0.7531965   3.1905651  49.4984055   1.7739556   2.4919605
  65.0372391  55.8029289  81.5022354  65.1406937  55.9890137  82.4354553
  64.2424088  55.2720795  81.4505386  52.9705544  42.6511421  35.1677055
  53.8425980  42.4432831  34.8322029  52.7122612  41.8730431  35.6617470
  68.8449020   6.4416785  29.9739494  68.0172043   6.1334448  29.6049671
  69.3894348   5.6564407  30.0297470  57.8942337  20.3866196  15.5090456
  58.4006042  19.8595104  16.1270866  58.2573662  21.2683182  15.5925503
  47.4316864  41.4835014  47.6007843  47.0126610  41.7577095  48.4165421
  48.1097221  42.1413918  47.4468842  69.8819275  17.4614773  15.3388920
  69.9649277  18.2689972  14.8316879  69.9156265  16.7633381  14.6849070
  66.6517410  65.3729172   1.9319170  66.8378220  65.1936264   1.0102563
  67.2604980  64.8120956   2.4126716  56.6947289  13.3087482  50.1033554
  55.8357239  13.7214947  50.1927147  56.8967476  12.9837875  50.9807510
  41.6469727  31.8418293  77.5372849  41.4044456  31.2125874  76.8579712
  42.1793556  32.4934959  77.0810699  17.3516178  54.6911888  72.1251831
  17.5579853  54.6862411  73.0598526  18.1809025  54.9056129  71.6979370
  55.1923103  52.5879288  86.1293640  55.2537346  52.5555763  87.0840454
  54.2833939  52.8329811  85.9560089  13.8918104  25.7269192  26.4210148
  14.7416553  25.8421688  26.8461170  13.3895388  26.5008278  26.6760101
  40.9977303   6.3728023  44.6435165  41.8358307   6.7222157  44.9463844
  40.4124146   6.4694834  45.3947067  76.4291229  19.3930264   9.0222464
  77.0607300  20.0733299   8.7888155  75.7300873  19.4827881   8.3745441
  83.8119354  69.4786758  63.3109436  82.9450989  69.7695389  63.5941887
  84.0221558  68.7492142  63.8939743  79.7033463  11.6595831   2.3254170
  78.8129807  11.3474073   2.1641040  80.0978012  11.7185812   1.4552690
  85.6104584  20.8607044  54.4084282  86.2810593  20.3060303  54.0098495
  85.4529114  20.4669323  55.2665405  84.6597519  52.4097252  71.7392807
  84.1112289  52.4526062  70.9560165  84.4107132  51.5875053  72.1613770
  32.7507591  63.1465149  60.1141014  33.1761665  62.3191223  59.8889885
  33.0300674  63.7536583  59.4288292   4.7174406  31.2566776  76.7444000
   4.5135622  31.7589188  75.9554596   4.8696613  31.9197330  77.4177628
  79.4254456  38.9074326  11.0607052  79.9480591  39.4044685  10.4313707
  79.2182007  38.0902061  10.6074667  12.6311846  61.2971115  45.7618294
  12.2184629  61.5272598  46.5942497  13.3485556  61.9239731  45.6687813
  74.5297699  52.1959877  53.2185020  74.8949203  53.0045280  52.8591194
  74.8897171  51.5035286  52.6642723  51.2079849  12.8180428  62.4002800
  51.8141594  12.1345081  62.1146851  51.1866837  13.4388447  61.6720047
  76.9757996   0.7909468  11.7879868  77.7764053   0.9660310  11.2934141
  76.9100800  -0.1638019  11.8071661  86.1124115  12.9974260  28.8128605
  86.7127609  12.8915253  28.0748901  85.4871750  13.6603022  28.5197639
  69.3677979  42.1660385  19.3931389  69.2143250  43.0012779  19.8347893
  69.0026398  42.2878609  18.5167542   1.8609900  70.2871475  19.7738953
   1.0227244  70.2686462  19.3121586   2.2910500  71.0817413  19.4578228
  15.9948397  70.0023956  79.0923004  16.0734596  70.7644577  78.5184479
  15.3294640  69.4556046  78.6745300  64.2434158   8.4695711  12.7592144
  65.2006073   8.4663601  12.7588930  64.0070267   9.3888273  12.8829966
  70.7055511   6.3051629  58.8488579  70.5813446   5.9507070  57.9684219
  71.5118103   6.8176346  58.7891922  28.3569546  34.6800117   5.5598297
  29.1985645  34.5652122   6.0011301  27.7913132  35.0768013   6.2222800
  50.9039650  37.8539886  66.0823822  50.6086082  38.7335548  66.3176651
  50.2584763  37.5468750  65.4457779   2.9794164  60.9312134  16.6948414
   2.2789364  61.0750160  17.3311443   2.8604753  61.6254730  16.0466995
   0.9881507   4.9301500  34.4800529   0.0847422   5.0694942  34.1960335
   1.4862478   4.8551340  33.6661110   6.9199147  16.8931293  71.1794662
   6.2040887  17.0993900  70.5783997   6.4858909  16.6900196  72.0080795
  22.2980614  69.2254944  18.9614811  21.4164906  69.5147171  18.7260818
  22.5476971  68.6232681  18.2605953  30.4500542  52.0866089  48.5588150
  30.2076206  52.9787407  48.8069267  31.2310677  51.8972511  49.0788078
  43.7525406  51.2007790   3.7944508  43.7444458  50.8481216   2.9046199
  44.6720505  51.1648445   4.0579724  60.3443298  15.8121586  64.6312943
  59.9834442  16.0595398  63.7799454  59.7771301  15.1034832  64.9350967
  85.1600952  28.7891903   5.4119101  84.2360535  28.5397663   5.3988962
  85.3467484  28.9687843   6.3333974  84.3380814  56.2258720  49.2358742
  83.6832657  55.9968605  49.8954201  84.7587509  55.3943405  49.0171928
  50.2092438  17.4582386  12.1998730  50.4332314  17.8556194  11.3583574
  51.0293617  17.0732937  12.5088243   8.1420803  70.7964935  72.1814957
   8.4788570  69.9768372  71.8195953   8.8904982  71.1829300  72.6362228
  62.1413498   6.4555597  19.8152885  62.1986198   6.5599570  18.8655243
  62.9008980   6.9290943  20.1545277   0.8135472   1.3578758  44.0411949
   0.9501986   1.1392069  44.9630089   1.5573694   0.9608658  43.5880470
  55.7196884  50.6094437  61.9629097  54.9990730  50.7805023  61.3565369
  55.2916107  50.4424286  62.8026085   3.9221117  11.0833654  40.6357422
   4.2637691  11.4973927  39.8432236   4.4808984  11.4144239  41.3388710
  37.8647270  31.5365295  74.9452591  37.7086906  30.9357395  74.2165985
  37.3216133  32.2994308  74.7471695  81.1736069  32.4941559   0.9084865
  81.6529922  32.8169441   1.6715260  81.4791870  33.0409737   0.1847210
  62.7612991  24.9629250  11.7773352  62.2761536  25.6524448  12.2305784
  62.1133690  24.2751904  11.6242294  27.1617699  11.4756556  70.5102539
  27.8989773  11.0290136  70.0939941  26.4282722  11.3365717  69.9111938
  48.7426224  70.5445023  45.3166046  48.0952950  71.2461700  45.3863220
  48.5174522  69.9397812  46.0236015  39.5623322   0.2204198   5.8139338
  39.1982727  -0.0282680   4.9643183  39.0591278   0.9921999   6.0734930
  42.5695839  11.2018623  21.3554840  42.6425667  10.3361216  21.7572289
  42.9909477  11.1058636  20.5013962  35.8154869  37.7904587  74.1778717
  35.0180130  37.4408760  74.5754395  36.1047897  37.1034393  73.5774231
  12.0254288   0.3741589  14.0822468  11.9963284   0.7648337  13.2088871
  12.5406303   0.9901700  14.6031408   3.8420973  24.4008026  19.0317917
   3.8088272  25.3451099  18.8787975   4.4323821  24.0691910  18.3551598
  74.1636658  43.6350479  87.7920151  73.7560501  44.4886093  87.9386902
  74.0136490  43.4542694  86.8640900  28.7074490  63.3673630  22.3927593
  29.4786606  62.9394722  22.7647438  28.7434216  63.1568375  21.4596901
  72.6000900  27.0460167  63.9792671  73.2784271  27.7002602  64.1467667
  72.2494431  26.8374596  64.8451691  77.4079819  20.1173096  40.9526405
  77.7475662  20.4348297  41.7893562  77.9780426  19.3824959  40.7261276
  48.8913727  43.1497269  46.0917244  49.1742668  42.3527069  45.6434364
  48.2465172  43.5402412  45.5018959  48.4284325  50.6276360  35.6628304
  48.0144806  50.7629166  36.5152206  49.1940231  50.0850487  35.8517838
  18.3955860  27.6136074  13.0943298  18.6994362  27.1415062  12.3190699
  19.1509380  27.6199532  13.6822357  34.0044632  44.1338310  13.3320732
  33.0963287  44.1141663  13.0301876  34.3720436  43.2996483  13.0400848
  39.2577629  21.8940201   8.7411757  39.9572716  22.2613621   9.2815266
  39.5516052  22.0343895   7.8410735  70.4928436  47.5081253   5.8254786
  71.4196091  47.7017288   5.6845832  70.1010056  47.5654449   4.9540362
  17.9812775  22.9246864  74.4945679  18.0379868  22.0434628  74.8639679
  17.2172871  22.8942814  73.9186935  68.0768280  54.8096085  77.1119385
  67.1734695  55.0921593  76.9693069  68.5311432  55.5991554  77.4059448
  51.8629227  65.7400436  45.4881096  52.4103470  66.4776001  45.2187080
  52.4854164  65.0438919  45.6981277   2.2010534  13.0865622  79.1815491
   3.1026297  13.3986912  79.1043015   1.6892644  13.6997910  78.6540527
  54.4991646  31.3347874  11.4719610  53.6622925  31.7053261  11.7522745
  54.2899094  30.8452263  10.6764898  22.3756962  64.5935516  67.0802917
  21.7479553  65.2845688  66.8689575  21.9280968  64.0546570  67.7325821
   9.4257107  24.9518986   7.1305690   9.6255627  24.0512123   7.3856316
   8.5095472  24.9250050   6.8546119  10.5504055  45.6531334  85.3008347
  10.7706423  46.0235214  86.1555557  11.3495760  45.2075233  85.0197906
  58.4144211  31.8371487  46.3348694  57.6725883  31.4565659  46.8050575
  59.1837616  31.5407410  46.8211670  36.3709297  69.9492264  37.8642578
  36.8417206  70.3813095  37.1515923  36.6118698  70.4458923  38.6462440
  39.4549828  33.4044952  20.9298496  39.1605492  33.2718735  20.0287666
  38.9952507  34.1929016  21.2184582  22.5371056  68.3239899  74.3111343
  22.6165676  68.9551239  73.5958786  22.7969551  67.4883957  73.9232025
   7.7371793  56.4938164  79.3848648   8.6811180  56.3932762  79.5077591
   7.3553925  55.7406616  79.8356781  18.4690857  62.0706940  55.9666023
  18.7516670  61.2747345  56.4169655  17.5214310  62.0971107  56.0988426
  11.9263773   6.2820549  46.8432999  11.4519815   5.4534793  46.7751617
  11.3518610   6.8450136  47.3621826  54.2861748   2.1304300  59.5446777
  53.9565926   3.0208964  59.6658287  53.8659821   1.8269258  58.7399712
   2.5884595  47.1765022  63.3480568   3.1996310  46.4998245  63.6392784
   3.1007214  47.7205238  62.7498436  78.7223969  50.3476295  86.6762314
  78.4678268  50.6216621  85.7951355  79.5201874  49.8348770  86.5464554
  62.7859230  28.1995831  20.0622349  62.7673111  27.2439461  20.1136360
  62.0605965  28.4835358  20.6185627  35.1647072  59.4591293  10.3514338
  34.8120613  59.5949631   9.4719906  35.0810509  58.5172653  10.5001936
   1.3793243  53.6374207  56.4892006   2.2626572  53.7328110  56.1330338
   1.0226014  54.5256615  56.4860725  62.8989410   2.7255416  77.4188080
  63.4584808   2.4666235  76.6866150  62.0711288   2.9781616  77.0099792
   9.6424112  40.7049217  64.6060562   9.9684992  41.5716362  64.3637695
   8.9683027  40.8777504  65.2632751  58.4309082  43.3074036   7.0149498
  58.7906151  44.1647644   6.7874055  58.3018150  43.3456802   7.9626327
  74.4757690   2.1308632  43.3287811  74.8091583   1.5641667  44.0244370
  74.0178680   1.5364521  42.7344475  17.8356037  63.3308601  60.0504074
  17.3940887  64.1748734  59.9558487  18.7279015  63.5555496  60.3141327
  72.6213226  65.7298660  82.0867767  72.0549622  66.2448807  81.5121231
  72.5331116  66.1450195  82.9447403  27.6968288  59.1328011  36.1864243
  27.9369068  58.3501778  36.6825104  28.4273796  59.7361259  36.3225441
  85.4187851  56.8107796  88.7686691  86.2263412  56.3181534  88.9149246
  85.0668411  56.9597778  89.6462555  80.6478882  32.7933769  58.3947449
  79.9666519  32.6474991  57.7383385  80.8116455  31.9267178  58.7666588
   2.0422335  42.6597977  75.8666992   2.5185046  42.8174973  76.6818848
   2.1002152  43.4885521  75.3912582  21.2337456  57.4603081  56.7887650
  20.9921799  56.9722824  56.0015450  21.9188690  58.0616989  56.4969292
  79.0006180  64.7448959  37.5818901  78.1873474  65.0486450  37.9850769
  79.0555038  63.8196716  37.8210068  21.8808289  34.6861229  75.8513260
  21.9117527  35.6428223  75.8487320  22.0072727  34.4399223  74.9350128
  51.2501526  42.4211502  24.3938541  51.8042450  42.9473953  23.8174133
  51.7738304  41.6429138  24.5844803  80.2525177  10.2513552  63.0878105
  80.0280457  10.9979658  63.6431618  80.4552917   9.5471764  63.7036438
  78.0453033  48.0769691  51.5950203  78.0328751  49.0321579  51.5342522
  78.8497009  47.8778915  52.0741196  23.4685383  46.1398735  54.9307709
  23.7905865  46.2691307  54.0386887  22.5215912  46.2624207  54.8636665
  24.8374596   8.4894333   6.0574007  24.6213989   7.8074059   5.4214849
  25.5483799   8.9823589   5.6477094   1.7071019  15.8650150  78.3026657
   2.3259773  16.4607544  78.7249451   0.8521798  16.1251583  78.6456909
  59.0689697  45.9780998  23.2881222  58.3979645  45.5226860  22.7796116
  59.8393898  45.9806595  22.7200718  23.5411205  50.4050217  10.3225603
  23.9630203  51.1728134   9.9369068  22.6676922  50.7098541  10.5683937
   6.3029933  32.2414131  11.7699757   5.4062572  32.2454262  11.4351921
   6.2370701  32.6433830  12.6361771  49.8910522  50.4467316  29.5776958
  49.7387695  50.0904808  30.4529819  49.0142670  50.5820427  29.2182980
  37.9301262  64.5494995   5.2792740  38.0053978  63.5998116   5.3722816
  38.8067932  64.8796539   5.4759588  82.0056458  49.9253998  52.2916412
  81.3000412  49.3526573  52.5921669  82.8067093  49.4972992  52.5937309
  26.0457649  68.6687622  36.2148552  25.8383312  69.5641632  36.4821854
  25.4349174  68.4842224  35.5013847  77.6582565  21.3173656  65.6389160
  77.3228226  21.9634590  66.2604294  78.5472794  21.1326904  65.9418335
  58.2615280  52.8910980   7.6742973  58.3654747  51.9526558   7.8316293
  59.0557022  53.2840652   8.0363693  28.6176853   5.5309634  33.0472107
  28.4038963   5.7950268  32.1523361  29.2665958   6.1719513  33.3375244
  54.7251129   0.9491544  32.2317505  53.8727837   0.5202422  32.3079262
  54.5712013   1.6840892  31.6381054  57.9350853  55.0466118  22.2724762
  58.6528053  55.4150505  21.7573433  58.1687469  55.2388649  23.1805897
  57.5844460  18.1954346  62.4146576  57.4577942  18.9899921  61.8961296
  57.6080284  18.5021744  63.3210678  63.6053314  31.3658180  16.0867672
  62.9778748  30.7990150  16.5353947  64.3619690  30.8029232  15.9228125
  64.1253357  38.3311043  28.0544128  63.8401718  39.1109695  28.5305710
  65.0796661  38.3412819  28.1277943   5.9868956  49.9489250  32.3841286
   5.9354773  50.8976746  32.5001335   6.6668029  49.6691818  32.9970741
  41.4017143  48.5555115  20.1312084  42.1008949  48.4066696  20.7677822
  40.5995483  48.5611839  20.6534462  60.1781731  62.8029137  78.8892746
  60.6056633  63.5466385  78.4645844  60.8424225  62.1137085  78.8907852
  47.6247787  31.4380245  82.9564133  47.5732956  30.4982815  83.1309586
  48.0621567  31.8010654  83.7265701  28.5341148  21.4699001  16.1128769
  27.9345074  20.7437191  16.2842369  29.0644188  21.5351467  16.9070759
  39.2240906  17.6961212  73.6014938  39.2258492  16.7450924  73.4929886
  39.5948715  18.0310268  72.7850418  83.7143631   8.6138115   4.9392781
  83.3404388   8.2279778   5.7314572  82.9557495   8.8296890   4.3969383
  59.7423820  66.8935013  87.4023438  59.8437157  67.8253708  87.2085037
  59.1440773  66.8678665  88.1490784  65.1928711  68.7199783  13.6685076
  64.6489105  69.3300858  14.1666098  64.7089539  68.5767899  12.8551493
  53.0763283  30.3792992   0.8873672  53.2791672  30.1932449  -0.0294053
  52.6083603  29.6017284   1.1917051  67.0053558  25.0010586  81.6494522
  67.0354691  25.9046173  81.9639435  67.8742447  24.6503067  81.8450012
  16.8203411  53.9541817  37.1739655  16.3140430  53.2591133  36.7535210
  16.3657722  54.1149483  38.0008583  81.5584946  17.3383846  24.4353657
  82.3215256  17.4687519  23.8723259  81.9237518  17.0412636  25.2687550
  29.8972797  10.1202154  35.3304863  29.6805592  10.8328075  35.9317169
  29.7676735   9.3241510  35.8459625  27.9119453   1.4529821  19.2262173
  28.7282200   1.6385828  19.6904182  27.2681427   1.3126839  19.9205284
  25.7327366   0.5455778  20.7725849  25.0023727   0.7686346  21.3496857
  25.4543705  -0.2582511  20.3337193  17.1073265  54.9973221  47.0728264
  16.6831455  54.1433334  46.9891281  16.6937714  55.5372162  46.3992386
  48.1940536  61.6912003  33.4035873  48.9682236  62.2539558  33.4174271
  48.3996582  61.0168877  32.7560844   7.4095659  36.0300789  45.4104919
   7.5203314  35.2167358  44.9181137   8.2959137  36.2679329  45.6826057
  11.6095314  62.0452499  18.3857498  10.9877758  61.3910255  18.7045708
  12.2278938  61.5473900  17.8509655  48.6072845   5.9738545  80.8319702
  47.9562912   6.5880713  80.4925919  48.6506767   6.1643443  81.7690201
  35.6424828  28.8194122  84.8635635  35.7948532  27.8747292  84.8392868
  36.5167694  29.2010937  84.9421463  51.4742393   3.0537925  22.5771446
  50.7861252   3.6279752  22.9133682  51.9922867   3.6138592  21.9990578
  10.8426285  56.1306953  66.4978714  11.1704054  56.2954102  65.6137543
  11.6236219  56.1528549  67.0508575  49.7160492  58.6888237  33.3987656
  50.1967735  57.9362869  33.7434731  50.3889427  59.3510742  33.2410469
  73.8116379  29.3123608  13.6799212  73.4708633  28.4340858  13.5104113
  74.0469208  29.6489811  12.8153038  57.1961174   8.6869001   0.3268947
  57.6453133   8.9767361  -0.4671137  57.6827049   9.0984116   1.0411243
  17.4066200  12.1418791   2.2218769  17.2762890  11.2083702   2.0551233
  16.5426598  12.5318651   2.0887856   1.4465386  46.8142395  17.7983475
   1.8003464  45.9819603  17.4847221   2.2056069  47.3956909  17.8426552
  24.5567493  20.6309681  19.7414093  23.9711533  19.9316158  20.0316086
  24.2955093  21.3924198  20.2592678  67.0475006  23.8652992   6.4970055
  67.9801254  23.9997768   6.6653976  66.6412125  23.8934689   7.3632426
  20.4398479  56.2381325  83.6121597  20.3515701  55.8635063  82.7357483
  20.3568687  57.1823196  83.4785080  80.5071335  52.5420380  36.4090309
  79.7682419  52.0451851  36.7603302  81.0820847  51.8786507  36.0274696
  52.3680840   8.9062386  56.7024002  52.1535187   9.0026655  55.7745552
  52.8523254   9.7026510  56.9202728  68.3684464  27.4488850  50.9315567
  67.4144669  27.5268860  50.9234428  68.6595154  28.1323318  51.5352211
  70.3838806  11.3825283  74.2824554  70.6787567  10.6465569  73.7461472
  71.0708237  12.0416718  74.1830978  70.8603287  32.6869698  12.6011438
  70.2373428  32.1442528  12.1178455  71.7176056  32.3249092  12.3770390
  64.2015762  57.5630417  52.1456108  63.5031319  56.9087830  52.1266594
  64.9909973  57.0646019  52.3568001  80.0951843  21.5874023  77.9332199
  79.1874619  21.3320885  78.0978012  80.5777206  21.2587528  78.6917572
  51.3308487  60.8790436  12.1034765  50.6339302  60.5814056  11.5187130
  52.0511627  61.1128616  11.5180597  54.0529289   0.4403347   2.2066588
  54.6030159   1.1690353   1.9191971  54.5960770  -0.0368225   2.8339887
  53.2824326  11.6141119  74.5759125  52.6337814  11.5319424  75.2750015
  54.0659943  11.9462509  75.0140305  71.2299194  53.6179848  42.1491318
  70.3956833  53.2034302  41.9290810  71.8509293  53.2571945  41.5163574
  51.6042557   2.7368019  58.6757736  51.9030266   2.7693388  57.7669792
  50.6592979   2.5979607  58.6124115  79.4905777   0.4340637  24.2884235
  79.9779892   1.1257206  24.7359428  78.5825272   0.7367231  24.2973518
  60.6627846  52.3378029  51.9692345  60.4891319  51.4428596  51.6774330
  60.4608002  52.3281136  52.9048309  75.1389465  17.4874039  83.8130417
  74.3470459  17.1532745  83.3917542  75.4383316  16.7661228  84.3665314
  64.1395264  17.2647705   9.0759716  63.5854111  17.5452290   8.3475933
  63.7204361  17.6358566   9.8524323  21.4601231  46.1200981  83.3690567
  22.3638306  46.2361183  83.0756531  21.4725895  45.3016014  83.8651810
  47.8835564  15.4962168  15.6574259  47.6399117  15.5205441  14.7320738
  47.5198288  16.3030014  16.0221615  65.1362381  17.0669746  67.2803650
  65.3495407  17.9988670  67.2323074  64.6496277  16.9745789  68.0994492
   4.9353061  43.1788216  65.9449768   4.7084317  42.3412857  65.5408783
   5.7993007  43.3893776  65.5908432   4.2085357  53.6028938  12.0018539
   4.3855028  53.4409790  11.0751953   4.8315582  54.2863274  12.2488241
  51.4117165  46.3940048  21.5690517  52.1425629  46.8226852  21.1237087
  51.2640533  46.9243965  22.3520679  24.5963306  33.1455307  17.4656029
  25.2209721  33.0557289  16.7458878  25.0354443  32.7439423  18.2153606
  38.4968796  17.4406834  15.4038801  38.0489082  18.2787361  15.2888918
  39.3460464  17.6726151  15.7798519  19.7440472  45.1736526  31.2625465
  19.5129147  46.1019821  31.2306595  19.7550468  44.9614906  32.1958733
  10.3139095  51.3574944  53.6892357   9.4545650  51.1057625  54.0274544
  10.9314127  51.0547714  54.3550301  25.0188560  56.3641968  58.0196838
  25.7660313  56.7196922  58.5009117  24.3209190  56.3032875  58.6719131
  71.7480240  54.1298866  79.0531998  72.6524811  54.3942032  78.8849106
  71.3945923  53.9212914  78.1884384  50.3564606  55.5310555  39.6943817
  50.6953545  55.6583252  38.8082733  50.2981567  56.4146919  40.0577240
  68.8383942  68.2247086  25.2055283  69.5520782  68.1852188  24.5688744
  68.7546463  67.3271561  25.5274239   7.9219155  68.9302826  58.0767365
   8.1234560  69.5802078  57.4035301   6.9753685  68.8036270  58.0116386
  24.8629456  44.6076851  80.6796951  25.0620441  43.7226944  80.9852829
  24.2484760  44.4789963  79.9571304  53.0347900  44.4381905  60.9194527
  53.3196831  43.6134338  60.5259514  52.7195473  44.9595184  60.1811638
  47.0236359  24.9503841  54.3959541  47.1474152  25.2537117  55.2953453
  46.3521423  25.5308762  54.0376854   8.6856537  23.2535954  19.6231194
   8.3405848  24.0940228  19.9245148   8.7960567  23.3647766  18.6788311
  32.3375473  23.4080410  37.9588051  32.9141426  22.6942616  38.2313690
  32.6742897  23.6745949  37.1033630  37.9009247  12.4257259   5.5898600
  38.6743355  12.9155464   5.3103218  37.1631927  12.9138279   5.2241578
  83.1036835  61.5329399  59.4230423  82.4776993  62.1344337  59.0198326
  83.0498276  60.7390671  58.8909760   8.1567707  67.3776627  55.4920158
   7.3995461  67.0428238  55.9723549   7.7832179  67.9665756  54.8363762
  16.8764839  56.5012817  79.4529724  16.2542496  56.7165604  78.7582016
  16.9733028  57.3146362  79.9482651  84.5014343  70.8119354  84.2121048
  83.9727478  70.0225296  84.3285294  85.0727615  70.6104202  83.4710159
   4.3374715  58.4125710  27.1396389   3.8847008  57.8630676  26.4998932
   5.2526064  58.4022598  26.8591881  54.4190979  34.8282623   5.3100224
  55.0064201  35.2146721   5.9596167  53.5459175  35.1181526   5.5741272
  72.8640976  57.8269882  16.5110893  72.3264618  57.6011200  15.7520313
  73.6989899  58.1094551  16.1377296  10.1763668  54.1061325  34.3661499
   9.5265417  54.1836281  35.0646858  10.2632694  54.9944077  34.0202446
  43.8217659   5.9907155  41.2698364  43.7410431   6.8121223  41.7546082
  43.0629272   5.4754820  41.5435677  64.7574539  30.1316319  65.1878738
  64.2461014  30.4584694  65.9280930  64.5234146  29.2055931  65.1253510
  16.5703697  53.8054962  77.1985626  16.6403027  54.0807495  78.1126633
  16.0107155  54.4667702  76.7914505  59.7585068  33.1106949  62.2116470
  60.2500992  32.4014282  61.7975121  60.1317673  33.9098053  61.8397179
  63.1862717  14.8364582  70.6891632  63.1678581  15.6576538  70.1977005
  63.2126045  14.1555557  70.0169220  73.6905289  42.9204216   1.3386914
  73.1771545  43.3818245   0.6755300  74.1347504  42.2235756   0.8556734
  63.4493141  56.2540283   5.7802334  62.8321915  56.9252472   5.4889374
  63.0050583  55.4256287   5.5996146  56.3228416   6.2556467  44.7400703
  56.8009987   5.8389235  45.4569626  56.4398346   7.1941190  44.8877640
  38.5688705  13.4252481   1.7893051  38.7414474  13.8369274   2.6360455
  37.8458748  12.8214617   1.9594601   4.5011039   9.1895504  69.1117020
   3.9841113   9.1981907  68.3061752   3.9268696   9.5824270  69.7690735
   0.3344021  61.8903275   9.0524874  -0.3483417  62.1546745   9.6691027
   1.1501267  61.9809265   9.5450497  58.4942551  17.4453106   0.6299160
  59.2162094  17.7537136   0.0822847  57.7183113  17.8710384   0.2653657
  14.8018456  47.5026131  36.3965797  14.3040361  48.1014252  35.8399467
  14.9941473  48.0116386  37.1840706  85.7297592  15.1305990  12.3895416
  85.3006363  14.3497667  12.0397110  85.0321579  15.6049595  12.8418312
  73.0939713  22.8280659  49.1460800  73.3363419  22.3876553  49.9606514
  72.8255463  22.1193695  48.5613289  15.9954786  61.3873367  79.2669830
  15.3985033  61.7912292  79.8968430  16.3279400  62.1199341  78.7483292
  62.7276497   7.8297248  10.6423340  63.4267426   7.8876767  11.2935982
  62.1294937   8.5417986  10.8690310  69.6452866  46.7501488  42.9380722
  70.3223877  46.5797920  43.5928612  69.9218979  46.2483139  42.1713409
   5.3437581  20.5377483  16.0323772   5.8635955  19.8725719  16.4835320
   5.9122930  20.8489876  15.3280106  56.3572578  66.7437897  42.8123016
  56.2750816  65.9798203  43.3831215  55.4630165  66.9228821  42.5216293
  49.6515999  23.5658340  84.5635071  50.4679260  23.3490829  84.1131058
  49.4355774  22.7769070  85.0606613  77.4767456  34.6393547  54.0020943
  76.5812607  34.4540596  54.2849541  77.5209427  34.2989731  53.1085510
  79.6343155  20.7997417  14.4686127  78.7755051  21.2214699  14.4973507
  80.1833572  21.4079227  13.9737415  33.5064392  54.3280640  75.5203400
  34.2345352  53.9247169  75.9930115  32.7349663  53.8388176  75.8061752
  81.9259567  40.2277374  59.7000275  81.0942688  40.1400681  60.1656876
  82.2183380  39.3270569  59.5603180  24.2056656   9.9488306  18.4726467
  24.8139668  10.6096249  18.1416626  24.1427593  10.1295643  19.4105225
  40.4113960  -0.0527616  24.9275455  40.6697540  -0.6366509  24.2144146
  40.5307045   0.8276644  24.5713882   4.6620378  58.3324203  45.3954506
   5.2308173  57.9907722  44.7055244   3.8928611  57.7630310  45.3755913
  70.8433533  62.5666885   5.6740932  70.2547302  63.2946815   5.8735442
  71.5007477  62.9435387   5.0892487  17.1460876  57.9884453  55.3266487
  17.3518295  57.2326202  54.7765312  16.3035946  58.3018570  54.9976997
  67.8147888  65.0854187  35.0186424  68.3043747  64.6386490  35.7092438
  67.9708710  64.5583344  34.2350273  85.0391998  54.0336494  43.6126747
  85.0527802  54.6370468  42.8697319  85.8657455  53.5552673  43.5478401
  35.1558876  20.0949497   7.9126172  34.3651314  20.3243790   8.4007740
  35.3311844  20.8614178   7.3666978  65.3156967  13.0242281  62.2142181
  66.2130585  13.3417311  62.1133614  65.3818054  12.0769758  62.0934906
  46.5046005  31.3413887  16.9603596  47.0498314  30.6072407  16.6775513
  45.8393173  30.9433174  17.5217590   6.7172608  28.6105709   9.1696815
   7.2713623  27.9026852   9.4984665   5.9082718  28.1758728   8.8998537
  75.5150070  29.2038651  84.2628860  76.1260376  29.1520863  83.5279083
  75.9656906  28.7592411  84.9808197  26.3405228  37.8983459  69.9165497
  25.6626549  38.2956161  69.3698273  26.7705612  37.2647095  69.3422623
   8.1303949  71.1053391   7.5157380   7.5715184  71.0704117   8.2920551
   8.4779673  71.9971924   7.5107627  54.1190720  15.5396824  71.9900894
  53.3170204  15.0201607  72.0452576  54.0747910  16.1292782  72.7428513
  85.6384583  18.4077110  28.0151863  85.9529877  19.2640858  28.3048859
  85.7120361  18.4356861  27.0612278  57.3413658  55.5446663   6.6124034
  56.8735733  55.3810081   5.7934918  57.8603058  54.7529335   6.7541504
  73.8780441   9.5292788  66.6372147  74.6188049   9.6027737  66.0354767
  73.9119492  10.3317156  67.1579666  78.3072739   2.3128068  49.4980240
  78.2757721   2.4778569  50.4403610  77.4626923   2.6237185  49.1720505
  53.5656433  38.1220169  64.1834793  52.9013710  38.7989159  64.3130112
  53.5784988  37.9769783  63.2374191  11.3943758  23.9201088  22.7908802
  10.8963976  23.3385963  23.3654175  12.0929222  23.3684044  22.4389038
  24.4165897   0.2893281  14.1791458  23.6612053   0.8180481  14.4362135
  24.7065716  -0.1251003  14.9917898  55.8170929  32.2887268  49.4224968
  55.6675339  33.0527191  48.8655586  56.3692245  31.7119102  48.8946114
  69.1071472   1.4856223  28.6837826  70.0552979   1.5765882  28.5890808
  68.7920761   1.3236040  27.7945614  21.1810017  42.8900299  21.1418133
  20.8052959  42.1341286  20.6904926  21.0882244  42.6840706  22.0719776
  72.2490234  42.6446838  27.2911510  72.1151352  43.2569199  28.0146656
  71.9558868  43.1227989  26.5154533  34.8437462   5.8796554  17.8908253
  34.5486755   6.7405624  17.5941715  35.5815353   6.0662842  18.4713993
  53.2886391  15.1964121  17.4654789  53.7515755  15.7905054  16.8747387
  53.1257133  15.7185593  18.2510033   3.3651807  31.3199863  82.3056183
   3.9361045  30.5606480  82.1886444   2.4880075  30.9481506  82.3980255
  79.3283920  51.5119247  65.3098221  79.8391647  52.0831108  64.7361526
  79.8134384  51.5055656  66.1350021  14.4398632  65.5321045  84.3102341
  13.4973717  65.6887665  84.2519379  14.7537880  65.6225128  83.4105072
  19.9606915   3.4657855  85.8306351  20.7864227   3.5054638  85.3481140
  19.3007984   3.7545333  85.2002411  60.7479668  26.5544338  41.2767410
  60.4883690  27.4581833  41.0976410  60.2860756  26.0373058  40.6168404
  69.3605118  20.6920147  23.2875862  68.6626434  21.1933346  23.7093582
  69.1605377  19.7797642  23.4974403  13.1424866  39.7849922  10.7383814
  12.6520643  39.4932137  11.5068760  12.9043522  39.1621857  10.0516243
  59.2435417  21.6127300  71.3301544  59.5729218  22.3506336  70.8170853
  58.5528831  21.9894485  71.8754120  84.4691238   6.8078065  10.3918133
  85.0180206   7.0130033   9.6349506  84.9233017   6.0873837  10.8287859
  36.2304764  71.5117416   9.0660982  35.5902519  70.9077530   9.4423227
  36.3743896  72.1651535   9.7506180  20.0572853   3.1578553   1.4253956
  19.9647903   3.1805282   2.3778462  20.7184563   3.8227594   1.2330698
  71.4055252  19.9727840  -0.1621022  71.2780533  19.0258541  -0.1045686
  70.7677155  20.3380089   0.4511171  16.3099537  54.2501564   0.5877978
  16.6053371  53.9701653  -0.2785649  15.4229937  53.8983498   0.6637149
   5.7481804  34.7513885  73.7036819   5.1931858  34.0912552  74.1189423
   5.1320081  35.3755455  73.3202896  63.8883972  37.2846565  17.8854046
  64.0881195  36.5663872  18.4857635  63.5686607  37.9876289  18.4509411
  37.5198708  69.0325699   6.1323013  37.0474663  68.3504715   6.6095915
  37.1650696  69.8533707   6.4738131  83.9294510  57.8017540  56.1032333
  83.9481888  58.3520355  55.3202438  84.8396378  57.5336685  56.2294083
  71.6518555  57.3379898  61.7762337  71.0526123  57.0648918  61.0815735
  71.3881302  56.8206215  62.5371628  73.1776810  68.0606995   8.6445036
  73.4159393  67.1996613   8.3008776  72.9015121  68.5578156   7.8745475
  26.2452812  71.1645508  33.4962273  26.3234215  70.3269501  33.0395508
  26.7917347  71.0642624  34.2756882  77.8608704  49.9337387   8.0499353
  78.7191620  50.1320343   8.4244318  77.3890991  50.7661209   8.0782290
  38.9512978  61.5116272  21.6284237  39.8909149  61.3535614  21.5369644
  38.6193390  60.7315712  22.0728855   4.7596397  46.6274986   2.9505246
   5.6419258  46.6733589   3.3188989   4.4211249  45.7817001   3.2442276
  76.3840179  13.9375725  53.4456406  76.0759048  14.8055344  53.1849823
  76.7002640  14.0547209  54.3414612  29.4505424   1.6698359  67.4718094
  29.4001007   1.1358447  66.6790009  28.7399120   1.3452079  68.0248489
  70.7734680  17.3563099  11.0276499  71.5705032  17.1394024  11.5113049
  70.3081512  16.5237141  10.9470520  48.7563667  65.9569244  72.7893143
  47.9124146  65.7276230  73.1784134  49.3746338  65.9195480  73.5190964
  -0.1986839  61.0731316  15.4572582   0.6181868  60.9225883  14.9815588
  -0.2260656  60.3761368  16.1127586  80.3078918  14.6608143  34.1054840
  80.5453720  14.7447996  35.0289421  80.1055222  13.7319498  33.9937401
  80.3798676  19.0882130  71.9071274  79.4297562  19.1948280  71.8607864
  80.5552673  18.9018440  72.8294830  85.1697998  62.9435310  70.8921204
  84.3307114  62.5421066  70.6662598  85.7772217  62.2068558  70.9598465
  75.8472290  16.6134796  66.8024216  75.2491760  16.1026955  66.2568283
  76.2795944  15.9639120  67.3568115  44.1708374  13.7453880  32.4302101
  44.5868874  14.3486624  33.0459976  44.8245888  13.0611315  32.2865601
  78.9334106  63.6178474  42.2437744  79.4321899  62.8489799  42.5199966
  78.6036987  63.9951401  43.0593567  45.9577827   2.8338947  13.1800385
  46.4547157   2.2519333  13.7550230  45.2097549   2.3085072  12.8960400
  19.1416874  68.1246262  71.4708710  18.2456112  68.1866455  71.8016815
  19.3543530  69.0137482  71.1872101   2.9894850  20.9920063  26.4324055
   2.3005633  20.8383865  25.7858601   2.7624691  20.4192657  27.1649780
  59.2558403  49.7611542  25.1672287  58.6958618  49.0389404  24.8825111
  58.6454926  50.4267349  25.4845734  48.7753105  48.0056877  85.6208878
  48.2275047  48.7177849  85.9511261  49.3428421  48.4213600  84.9717712
  45.9199982   5.3122196  79.1264648  46.5020638   4.5665421  79.2727432
  46.2046814   5.6775608  78.2887802  80.9247971  60.2958031  81.5491028
  81.4047546  60.3064728  80.7210007  81.2573166  61.0546722  82.0284576
  72.4217072  39.1628265  85.7646942  72.3556747  39.4587059  84.8567657
  72.1083679  38.2585716  85.7453079  54.7262802  62.4510002  76.0178757
  55.5781975  62.8141670  75.7758408  54.4183464  62.0132103  75.2243042
  47.5145340   6.8009353  77.3838654  47.4428825   7.0670075  78.3005447
  48.4226189   6.9921627  77.1492462  29.2568855   2.3760710  23.9807720
  28.3330746   2.2127531  23.7906933  29.2495918   3.1197047  24.5834217
   7.5828848  69.2580109  16.0635738   8.0748720  69.4165497  15.2579403
   8.2545738  69.1075363  16.7287235  80.7295227  11.4483528  33.4682465
  79.9474182  10.9498892  33.2314491  81.2877808  10.8168564  33.9218903
   4.5094366  15.4354200  30.7977943   4.0032187  14.6231785  30.7823524
   4.0421338  16.0202579  30.2012825  66.8659363  43.3746529  33.7343979
  67.2550278  43.5714264  34.5865211  66.9578552  42.4263306  33.6423721
  76.5671234  27.9888382  88.6921997  75.7298203  27.7773857  88.2793427
  76.3689423  28.0313091  89.6276932  82.3621597  56.7084503  11.3033133
  81.5902710  56.1865883  11.5226068  82.7177963  56.9776268  12.1502457
  43.6000099  46.6408119  79.3437424  43.7124710  46.1456223  80.1551361
  44.3639336  47.2163773  79.3065720  50.4427910  44.1625900  62.6717644
  49.9328995  43.5428658  62.1500511  51.0626984  44.5452080  62.0508385
  40.6201897  44.2266769  88.4458923  41.4338493  43.7225685  88.4540482
  39.9689903  43.6245613  88.0858536   9.7983189  60.8741188  66.1022034
  10.4157658  60.1472931  66.1841660   9.8304043  61.1123199  65.1756744
  70.9706879  57.5288849  72.7469635  71.2604523  58.3870659  73.0564651
  70.0546494  57.6594276  72.5018768   3.9683084  38.0368614  33.9177132
   3.3582344  37.7454758  33.2401199   3.6427746  38.8983459  34.1786880
  59.8153839  40.9525986  34.3483963  59.9281616  41.6180267  35.0271606
  60.6887436  40.8440132  33.9719772  46.8356438  50.9072952  10.3738871
  46.0336456  50.7989998   9.8627110  47.3792038  50.1586952  10.1281710
  76.6505890  17.1448574   0.2549795  77.2817154  16.4472656   0.0781080
  77.1510162  17.9536419   0.1469312  61.7008209  21.5125275  22.9351673
  62.5083656  21.7393398  23.3963165  61.9306564  21.5691338  22.0076962
  72.6187592  53.7399139  11.3629475  73.0587158  53.4607430  10.5599937
  72.5012741  52.9331970  11.8645782  14.5861139  56.6240692  34.9007568
  14.0597267  57.2131462  34.3602600  14.4454641  55.7580528  34.5180473
  67.7754898  60.0347137  34.1442223  67.0744324  60.6825218  34.2156067
  67.8989410  59.9182205  33.2021904  76.6881943  17.1838741  73.3436890
  76.4134750  16.3475761  73.7196732  76.7481079  17.7755394  74.0937347
  47.7885551  50.0982018   0.6913558  47.2722893  50.4950142  -0.0102425
  48.2789307  50.8278694   1.0699713  24.8563538  53.8160019   7.5236740
  25.1472893  53.9741669   8.4217682  24.3728790  54.6071091   7.2856965
  48.2382812  67.5470352  70.2836609  48.3368912  67.1160355  71.1326294
  49.1315041  67.7740326  70.0251007  76.8531036  50.2468262  57.8655014
  77.0819931  50.5727272  56.9950829  75.9205704  50.0392876  57.8059654
   9.3056803  64.5088577  80.7230988   9.6854582  65.1104889  81.3634415
   8.6774712  63.9898338  81.2252884   9.1464596  32.2214775  69.3648911
   9.5422535  32.4621239  70.2025528   9.2524672  32.9995804  68.8175812
  67.3160706  20.0206966  17.6978416  67.2092590  20.5752010  16.9249573
  66.7742004  19.2523823  17.5181274  17.6624641  58.5526962  66.5533600
  18.3337135  58.1386108  66.0109711  17.2359543  57.8241043  67.0044403
  29.2580376  59.1810226  23.2632942  28.8841457  58.6363869  22.5706139
  29.5185871  58.5590782  23.9426537   8.2039595  20.5659256   2.0661867
   9.0502825  20.3168468   2.4375727   7.6214714  20.6350212   2.8226035
   7.2116880  22.5229912  83.5529785   6.5217462  23.1756458  83.4336014
   6.7809057  21.7996292  84.0084000  65.4261093   0.5957063  26.2602005
  65.9264755   0.5678852  27.0757294  65.0165634  -0.2674219  26.2009144
  41.3586655  61.4321632  80.4025726  41.0968590  62.3258133  80.1810379
  40.7411957  61.1633530  81.0828018  43.2044563  68.9495316  43.9930801
  43.6734695  69.6612396  44.4286613  43.4011993  68.1751404  44.5201950
  63.2436829  51.6788101  63.5063934  62.6760635  51.0129776  63.8946037
  62.8593864  52.5111771  63.7815590  39.1207581  65.6691589  19.9371185
  39.1916466  64.8459244  19.4539051  39.0349159  65.4029312  20.8525352
  69.7187729  38.3719444  71.2755737  69.6862640  37.4161606  71.2349701
  70.5513458  38.5651894  71.7065048  83.9567108  32.9734993  38.4585228
  84.8076019  32.6763000  38.1362152  84.0302429  32.9219475  39.4114990
  22.1035213  13.2985640  16.9616623  21.3527908  13.8570023  16.7597179
  22.8663063  13.8437719  16.7689400  83.3398514   3.6460586   7.9346337
  83.5827255   2.7930181   8.2945862  82.5664749   3.4686978   7.3992176
  27.4441795  14.8003311  73.6898117  27.9888248  15.2121086  74.3606567
  27.8994026  13.9851656  73.4788437  71.3023148  62.5155525   2.0415387
  70.7054749  62.0109978   1.4888752  71.9897232  62.8108253   1.4444450
  19.3100586  21.0315075   9.6565571  19.2935677  21.9697552   9.4677429
  19.1123199  20.9717712  10.5912027  22.1859474   5.1241693  72.1395493
  21.9073887   4.7640886  72.9815598  21.9294128   6.0456142  72.1764526
  71.4378281  67.2418213  62.8993301  71.1841736  67.6300583  62.0619736
  71.4620972  67.9801102  63.5080757  56.1879539  66.4445496  36.3835258
  55.4526634  66.6267776  36.9686546  56.8992920  66.1815262  36.9675217
  30.7404022  55.0693550  47.1538620  29.8213444  55.1040955  46.8886147
  31.1914253  55.6381302  46.5299149  58.4135323   1.0213405  82.0374222
  58.6393509   0.8310679  82.9479370  58.2431641   0.1634217  81.6485977
  50.5156708  28.8128166   4.0004787  51.4487877  28.6854553   4.1716661
  50.1740150  29.1957607   4.8084741  63.6665497  64.0583725  68.8087082
  64.3540726  64.0923615  68.1435852  62.9804573  63.5182266  68.4165878
  23.3618011  67.3858414  16.7925854  22.8886929  66.5870514  17.0256939
  24.2647171  67.2165451  17.0614967  55.2864189  11.6483097  54.1144409
  55.0488472  12.2799149  54.7933121  55.4325066  10.8300514  54.5891418
  69.7333374  10.8998499  24.6947460  69.9519653  10.1167374  24.1896019
  68.8874969  11.1813459  24.3461227  62.5784607   6.2369967  73.3422928
  61.7589531   5.7922769  73.1258087  63.0768051   6.2319975  72.5250626
  81.4370956  36.3496399  39.1382790  80.9377899  35.5408401  39.2512741
  82.3487473  36.0628204  39.0847778  10.9435387  15.9886436  57.1085854
  11.4414434  15.3318472  56.6218224  10.4274292  16.4409809  56.4413109
  37.0153427   6.8243937  19.1766300  36.3919792   7.4192915  19.5934601
  37.8056335   6.8916550  19.7124920  12.0590391  39.1452866  15.1388550
  12.1602983  40.0952377  15.1986561  11.9834099  38.9710693  14.2006865
  61.8149300   6.3071423  63.4503403  61.3290405   6.6010513  62.6797829
  62.6739349   6.7204995  63.3638687  77.4146194   1.8801113  54.8500900
  78.1195221   2.1417239  55.4424553  76.6333771   1.8575401  55.4027061
  35.4292526   1.0157322  33.4424858  36.0722237   1.6689745  33.1666260
  35.0570869   1.3717937  34.2492943  71.7264252  29.5507908  30.2167511
  72.4460297  30.1427555  30.4357834  70.9749832  30.1276722  30.0797234
  22.1104965  60.9592667  84.9279861  22.4789753  60.1165504  85.1931000
  21.2337933  60.7471848  84.6075974  19.1008854  63.4208908  82.9093475
  18.2663822  63.8225746  82.6675034  19.6503792  64.1557693  83.1818161
   4.6577373  20.0955601  23.0522175   4.1854053  20.7274799  23.5942612
   5.5796013  20.3299084  23.1593590  17.2544136  10.2681313  40.1531143
  17.9972095   9.8678513  40.6050682  16.8712158   9.5542755  39.6434059
  30.2940140  11.5583763  26.5805969  30.2245293  10.6407833  26.8440876
  30.1559658  11.5467100  25.6334763  33.3924751  31.8691998  88.4272308
  34.3209267  31.6363945  88.4306946  33.3730202  32.7716446  88.1087265
  34.9415665  31.1557808  11.6709929  34.3199730  31.8204212  11.9678240
  35.5611725  31.0669003  12.3951607  85.4488297  67.9173508  14.4311628
  84.5882492  68.2727203  14.6532898  85.8365326  68.5732574  13.8517628
  85.8109436  20.2889080  61.9798508  85.2603073  20.4167976  62.7523003
  85.3267670  20.7081604  61.2684937  22.2547474  10.7445440  38.4806976
  21.8789120  10.6360025  37.6070862  21.6290607  10.3169470  39.0654297
  56.8764267  42.2617035  11.0419168  56.4546852  42.6527176  11.8070784
  56.1662216  41.8195534  10.5767899  28.9939232  63.6900978  83.6598129
  29.5297318  63.4499702  84.4157715  28.8651657  62.8680305  83.1866760
  86.4961319  64.7089005  24.1180782  85.7851944  64.4248657  24.6926327
  86.5820389  64.0035934  23.4766769   2.4967465  20.9578743  60.7097397
   2.1011491  21.1819782  61.5520630   2.2973442  20.0292358  60.5909843
  16.6012764  18.7561092  68.3924179  16.0703335  17.9596672  68.3960800
  16.5968113  19.0511284  69.3030090  86.2150116  67.1134186  10.9471273
  86.1044006  66.8459167  11.8595095  86.6540985  66.3713226  10.5315123
  52.1285744  29.3751602  13.0245295  51.2397575  29.2801800  12.6821623
  52.4714661  28.4818993  13.0518017   3.2920773  39.5899277  20.8474598
   4.0941601  39.5835724  20.3251057   3.5970387  39.5811386  21.7547379
   9.8695822  31.8087406  15.0526447   8.9216394  31.9406338  15.0371437
  10.2139225  32.5951195  15.4760504  42.7062378  55.3142128  23.9463673
  42.2217751  55.7709885  23.2586994  42.0523453  54.7598305  24.3721828
  63.1792336  59.3856316  46.4020805  62.4138107  59.9599304  46.3787613
  62.8796196  58.5707397  45.9990807  78.0913162  59.5722122  75.1584091
  77.5181274  60.2830505  74.8713684  78.6284943  59.9614830  75.8484421
  59.9271660  70.8741379  39.9443512  59.7626686  71.7503586  40.2927895
  59.1770515  70.6974411  39.3765984  13.1878920  35.0188560  68.3032150
  12.8050194  35.7536011  67.8238525  13.1689806  34.2913284  67.6814651
  23.6928844   3.9662213  23.3040466  22.7515430   3.8156583  23.2177944
  23.9786797   3.3277693  23.9574451  83.7203445  16.1656704  74.3445206
  83.2919312  17.0216007  74.3356934  84.2462921  16.1528244  73.5448685
  59.5321121   4.6757441  75.5224991  59.2307167   3.8236735  75.2072754
  59.0886307   4.7907515  76.3629379  50.5161552  32.4048843  29.0804253
  51.3626938  32.1572342  28.7085781  49.8831787  32.2004166  28.3921204
  82.5790863  53.4761047  10.5286379  82.1874161  53.2731895  11.3781376
  82.3068619  52.7550468   9.9610109   7.1537867   3.9975443  15.5692339
   7.9726195   3.5908935  15.8527460   6.9312625   3.5457392  14.7552395
  83.7272491  20.5054817  44.2562103  84.3302231  21.2403259  44.1437073
  83.9169998  20.1720562  45.1331673  50.5619431  43.9621048  27.3194733
  50.4341965  43.0443306  27.5594692  50.9509659  43.9292183  26.4455109
  59.8088799  12.2516279  88.0618439  59.9410820  12.5723915  88.9539566
  59.1573753  12.8449764  87.6880569  79.6325073  23.9252243  55.2861633
  79.0880661  23.9406567  54.4990273  79.0917587  23.4863625  55.9428368
  61.8408089  42.1107101   5.6970739  62.0448494  41.2568130   6.0784612
  62.6006470  42.6540680   5.9059801  35.5603294   1.3923726  47.8461380
  34.9942398   2.0061233  48.3142014  34.9947815   0.6447385  47.6526756
   6.1083932  71.3223495  52.2506447   5.3843493  71.9403305  52.3510857
   6.0856328  71.0749359  51.3262520  33.0724182  70.0285645  50.5875053
  33.6322594  70.5055237  49.9748726  33.4382210  70.2260056  51.4497337
  64.7187958  29.5213318  71.2859116  65.4352951  28.9725552  71.6048279
  65.0757599  29.9545975  70.5106125  67.0199432  66.0072174  68.4103699
  66.9502182  65.0670013  68.5757904  67.6198349  66.0758972  67.6676483
  81.0001755  37.7634125   0.4343297  81.2795486  38.4608994  -0.1587113
  80.0778732  37.6223717   0.2205496  40.6678925  64.0185928  80.2552567
  39.7286987  64.1807251  80.3439484  41.0540047  64.8899231  80.1662292
  74.1143875  26.1018734  54.4487076  73.1866302  25.8880234  54.5475540
  74.5508041  25.2521763  54.3871765  86.7535400   6.4406023  47.2861938
  85.8019943   6.5369267  47.2472229  87.0470428   6.5967450  46.3885803
  33.0676384  71.1310349  16.8099689  32.2440453  71.1045837  17.2970276
  33.0552406  71.9780579  16.3642998  57.8911896   8.7824001  47.0278625
  57.3948631   9.4309244  47.5271683  57.4576302   8.7537336  46.1749649
  41.4065170  68.4996567  25.6496735  41.7531929  69.3020248  26.0398598
  41.9914131  67.8093185  25.9620228  59.0884743  51.7841568   3.9390976
  58.3234100  51.6525345   3.3791099  59.5935745  52.4671288   3.4978974
  21.8784618  48.9788437  74.7509308  21.9009590  49.3735695  73.8791962
  21.9781342  48.0402908  74.5915146  16.8192120   8.3220320  65.3678284
  17.2558479   8.7288074  64.6194229  16.6725616   9.0428152  65.9803619
  58.0027618  52.3327980  73.6574402  58.3357773  51.7039986  74.2977142
  57.3253136  51.8531876  73.1807098  16.2526531  68.4907074  59.4461708
  16.4574127  68.5503769  58.5130348  15.3229790  68.7116699  59.5019875
  24.3956547  39.6810303  11.5714350  25.1903229  40.1077385  11.8918324
  24.5830059  39.4839516  10.6536713  61.7351303  47.4857674  26.8438568
  61.8930321  48.1406441  26.1638317  60.8123131  47.2527046  26.7422752
  80.8005447  14.8448544  40.9122467  80.9566116  15.6727867  40.4579315
  80.0135880  15.0025187  41.4338570  57.1562881  61.0438461  55.5517731
  57.9538841  60.5582695  55.7622299  57.3768463  61.5353470  54.7605629
  54.6395302  51.8523483  32.4270668  55.4246330  51.8262367  31.8801098
  54.4844170  50.9388275  32.6671829   9.9842043  56.7948914  20.7759819
   9.8973980  55.9290237  20.3772717   9.8138733  57.4065742  20.0596981
  20.9882717  54.2337418  50.4401741  20.3298874  54.8396072  50.7803001
  21.7814083  54.4394379  50.9350052  64.7919388  30.4062328  12.9344549
  64.6346664  31.3481407  12.8688078  64.6188049  30.0725708  12.0541563
  46.0740280   5.3335514  51.3007851  46.4937286   5.5339937  52.1373901
  45.9130402   6.1889658  50.9025612  66.4765549   5.4579954  28.2772923
  66.9836884   5.8102341  27.5458717  65.7769165   6.0969210  28.4133339
  51.5738487  69.8806381  36.7203636  52.2920952  70.2588882  37.2275925
  51.2148895  70.6180344  36.2267799  70.2878876  30.0976944  40.7548866
  70.9203873  29.6534691  41.3195457  70.5589981  31.0156136  40.7673264
  21.2525463  52.2476883  13.8394613  21.3666420  52.2234688  12.8893948
  21.6648102  51.4418793  14.1508226  50.6086693  55.1520653  24.7333775
  51.4411354  55.5593910  24.9727783  50.2442322  55.7286987  24.0618782
  77.7665253  11.6698685  30.8198872  77.7019806  10.7507849  31.0794067
  76.9303131  12.0528927  31.0849781   0.9079148  30.2440624  17.9113426
   1.3264149  31.0506172  17.6104145  -0.0111030  30.4822330  18.0334606
  86.9496613  20.5998802   3.7106531  87.1071701  20.3441105   2.8018053
  86.1730728  20.1030579   3.9681382   2.9053423   3.7618291  17.1813202
   3.3173912   3.7232265  16.3182106   3.4988673   4.2988434  17.7062721
  12.8199453  27.8067608  66.7793808  13.2229700  28.2959709  66.0621109
  13.3135262  26.9875221  66.8175888  80.7661667  59.5680733  56.2950668
  81.2590179  59.6562500  57.1108818  79.9916992  59.0601463  56.5368156
  52.2620850   0.2403565   6.8527985  53.1714439   0.4957487   7.0079513
  51.9641914  -0.1073074   7.6934056  67.6257706  35.2394066  84.9070358
  67.7502518  34.8452644  84.0436783  68.3365173  34.8810081  85.4386673
  22.6720257  35.1638031   3.1240685  23.0452061  34.6939697   3.8698740
  22.7648449  34.5581436   2.3886807  64.8286209  62.1464043  24.5174828
  64.9568024  61.2225151  24.3024769  64.6348724  62.1495247  25.4548626
  86.2866211  15.7703209  49.3038063  86.8025589  16.4037895  48.8050537
  85.3890991  15.8972969  48.9962959   4.4419861   3.4994462  54.2117386
   4.0380764   4.3226528  54.4863663   5.3020554   3.5027909  54.6318626
  51.1061974  46.7405663  67.7419052  51.8509903  46.1447678  67.6610031
  50.4650116  46.2535439  68.2595139   4.5707626  30.2342167  31.7331638
   4.7049437  29.4093590  32.1998940   3.9804900  30.0092144  31.0140095
  86.6419220  35.3983650  28.6895027  85.7974167  35.0085564  28.4634743
  87.0829010  35.5187874  27.8485088  43.7308540  60.1676521  40.7580070
  43.3789597  60.5093346  41.5799904  43.3347702  59.3007126  40.6699028
  19.3742962  23.7476387  84.9200439  20.2891121  23.7581825  85.2015305
  19.3591175  23.1437588  84.1775284  66.2471466  44.7579880  26.7038631
  66.7995605  45.5316505  26.8157749  65.3660812  45.1093407  26.5754242
  68.0812531  32.0484924  44.8180618  68.9381790  31.9928894  45.2409286
  67.8611832  32.9796791  44.8443108  65.9274750  65.4101181  64.4258499
  65.9394302  64.6378250  64.9912262  65.7291641  65.0662613  63.5548363
  30.1038303  55.7592812  75.2206726  29.1843395  55.7293282  74.9563370
  30.4053993  56.6236229  74.9410248  61.3974457  63.6993217  47.5682220
  62.0355759  64.0185471  46.9301643  61.7658119  63.9424591  48.4175873
   1.4421345  30.5658169   1.0803831   1.1897115  30.3304100   1.9731863
   1.9073951  31.3970470   1.1743118  57.1593094  44.6219864  18.8275204
  56.2409935  44.5012283  18.5859680  57.6505508  44.2496834  18.0951939
  34.3141670  52.5965958  35.4009972  34.3588409  52.1956863  36.2690430
  33.3888092  52.5464363  35.1613426   6.8954396  48.0532379  68.5089035
   7.6837335  47.7598648  68.0520020   6.2829022  47.3227348  68.4229202
  36.4223900  65.0263596  38.7832680  35.6919022  65.1853790  39.3810425
  36.0913353  64.3705215  38.1696625  77.8901749  22.9482498  10.1856041
  77.3328171  23.0067558   9.4096136  78.6014404  23.5661697  10.0167656
  41.8411522   1.6883653  64.1066589  41.8966866   0.8987325  63.5684891
  41.0537872   1.5624179  64.6362076  16.3458061  65.5751419  55.0155411
  15.8860979  64.7715912  55.2588654  15.6701012  66.2528458  55.0347786
  10.7378626  64.1331329  16.7495728  10.9706964  63.3691864  17.2772141
  11.5202007  64.6843491  16.7679329  83.5114517  19.2051411  74.8787689
  82.9597626  19.9012241  75.2356186  84.1971207  19.0826263  75.5353317
  80.9671936  19.8021984  21.5025673  80.7110291  19.5145378  20.6262875
  80.5378799  20.6508064  21.6111221  80.3892975  11.2827520  66.3296585
  80.4877319  10.5925522  66.9855270  81.2738495  11.6290150  66.2117310
  70.8442535  31.6386623   0.1366102  70.6558762  31.0286427   0.8497889
  70.3565903  31.2917194  -0.6104169  74.6333542  26.1721878  23.7592297
  73.8166046  25.6821022  23.6645203  74.4816055  26.7480717  24.5086040
  54.3028641   7.9493790  53.0736275  54.5052261   8.7961264  52.6757584
  55.1224174   7.4577222  53.0203362  84.8260574  51.6765060  78.5434265
  85.1970444  52.5280762  78.3122940  83.9232178  51.8692513  78.7963333
   6.4729362  28.2393341  75.9819183   7.3246398  27.8617821  75.7621689
   6.1237869  27.6631699  76.6618881  68.9808426  46.8484993   8.0836916
  69.4521637  47.1262016   7.2982159  69.5369873  47.1317635   8.8094263
  23.0416832  34.4370461  10.1443586  22.8556538  33.5421753   9.8600521
  22.3587952  34.6312256  10.7863808  19.6779556  23.7262039   9.0836954
  20.1346245  24.4492989   9.5136023  20.3167477  23.3743057   8.4637403
  69.5240555   8.6321182  67.4088211  69.2990952   9.4800615  67.7917252
  68.7851486   8.4238873  66.8370819  79.3903809  30.7587051   1.4905776
  79.8498383  31.5659409   1.2592807  78.8285141  30.5785370   0.7368662
  47.6700363  42.5125313  38.1604767  46.8243675  42.2632866  38.5332336
  48.1277885  41.6822624  38.0287666   7.3947740  18.2471905  48.7209816
   6.6754847  18.7738838  49.0694771   7.5114789  17.5466557  49.3627472
  78.2818527  32.7260017  26.9355755  79.0083237  32.1027794  26.9277725
  78.6035080  33.4750900  26.4339428  41.7073593  67.1692734  38.2947350
  40.9594574  67.1716766  38.8921204  41.6206245  66.3510284  37.8056717
  81.0516281  28.3818436   8.0027885  81.4439850  27.5772533   8.3417902
  80.3528900  28.0812244   7.4217334  54.8980522  48.7890015  40.5881348
  55.7326889  48.8341904  40.1216888  55.1029625  48.3280678  41.4016380
  36.9677162  52.2150955  53.0538979  36.1018181  52.4423409  52.7150497
  37.4891548  53.0081558  52.9298592  13.2050362   9.7605972  62.3329964
  12.8909883   9.9248333  61.4438210  13.8883734  10.4165964  62.4706497
  60.6771660  58.4208565   6.9242325  60.3103714  58.3563232   6.0424557
  61.5244293  58.8487129   6.8004813  47.3284187  45.3340034   5.9286909
  47.5898209  45.7742195   5.1199217  46.9423332  44.5078697   5.6377020
  50.9086380  28.3398399   1.3304889  50.3222504  28.7011662   0.6657906
  50.6490860  28.7765350   2.1417596   2.4818380  65.0095215  41.1103897
   1.7792207  65.2040405  40.4901276   2.5913773  65.8187866  41.6097107
  26.3027935   2.3815656  57.3055725  26.0036163   3.0458798  56.6847572
  25.5078945   2.1039736  57.7608871   1.4444396  33.2572441   4.7661643
   1.9226670  34.0856857   4.7312360   1.4491584  33.0168457   5.6926727
  24.2305927   4.4889765  83.0854263  24.0856304   5.4036479  83.3274841
  23.4020519   4.0538254  83.2864151  68.7888794  23.4270020  17.3271770
  69.6016388  23.0246658  17.0209484  68.3270950  22.7204227  17.7785416
  79.9088821  29.8483677  20.1218128  79.5836716  29.2558899  19.4439926
  79.9844742  30.6957397  19.6830902  56.6233330  26.7349319   2.9297161
  56.2255058  26.3933544   3.7305212  57.0888329  27.5227070   3.2107012
  42.5477867  21.2139626  79.7734299  43.1874580  21.9210949  79.6896667
  42.0661125  21.4203491  80.5744476  85.0358505  49.1571808  45.4557533
  85.4511337  49.9890366  45.6833038  85.6795044  48.7107277  44.9056473
  28.2355251  57.6657753  21.1519489  28.7285614  56.8900604  20.8847237
  27.4010792  57.5904160  20.6890755  29.3113766  45.8338509  33.7120018
  29.7753181  45.5138626  34.4856949  29.5297775  46.7648430  33.6697655
   7.4995208  33.7151375  71.6012497   7.3292546  34.2762985  70.8447189
   6.9857378  34.1045685  72.3087845  31.8585701  37.5197563  78.5292969
  31.5986195  36.7915688  77.9650269  31.0332909  37.9344978  78.7805634
  38.8031731  56.9251060  49.7182503  38.3429031  56.1521034  50.0451279
  39.3771477  57.1846848  50.4389458  10.2396736  31.0740604   0.1088986
   9.7535801  30.6493683   0.8157087   9.7181673  30.9049301  -0.6757399
  16.7314548  10.3484259  34.1244583  17.5607090  10.5736780  33.7027588
  16.7796516  10.7645140  34.9851456  19.8255482  61.1691895  60.6198196
  20.3505726  60.9780807  59.8426094  19.0188713  61.5526085  60.2755890
  66.0088043  56.1420708  46.3283272  65.1127701  56.0736618  45.9986610
  65.9890289  56.8928986  46.9217033  53.8129120  36.6153374   2.0991592
  52.9626694  36.6494827   2.5375097  54.3679047  36.1087418   2.6920996
  84.0030365  39.7708969  44.1090584  84.8011703  39.7266159  44.6356049
  84.1437073  39.1356316  43.4070015  59.4530640  29.3137760  57.8460083
  59.4646263  29.7306290  56.9844208  58.6832504  29.6817799  58.2798157
  86.0939026  41.8632660   7.3966007  86.2311478  42.2045555   8.2802954
  85.7931061  42.6190033   6.8920093  71.2745438  26.0588837  66.0815735
  70.6318970  26.6211205  66.5141525  70.8464050  25.2045841  66.0258865
  54.7729073  27.1501007  80.5434265  54.5419617  26.6597805  79.7544479
  55.6354065  26.8156796  80.7893677  78.7569580  21.3656025  43.2546272
  78.4536209  22.2296257  42.9759064  79.6168976  21.5273380  43.6426620
   2.1016784   6.4428306  26.7791977   1.5248678   5.8940139  27.3105373
   2.2587399   5.9287205  25.9872036  32.4928932  56.7137070  59.3985214
  32.5397644  56.1477280  60.1690407  31.7155094  57.2528343  59.5442810
   4.2245984  15.8825674  85.7414474   3.4507804  16.3907051  85.4980698
   4.8523097  16.5355587  86.0509872  54.0468864  55.0013351   6.9924607
  54.6254692  54.3332329   6.6248808  54.0609322  55.7103615   6.3495674
  81.9736252  52.4374352  47.5111008  82.7126007  52.4695778  46.9035530
  82.2211990  51.7733192  48.1544456  68.4447556  21.3263607  43.0998116
  68.2169266  20.5159702  43.5554352  68.4082947  21.0973740  42.1711197
  58.1507607  43.3905869  42.0127411  57.5174294  44.0341568  41.6950264
  57.7528572  43.0350990  42.8074303  49.2534294  26.3820744   2.7915905
  49.5693398  27.0929852   3.3492992  49.9311333  26.2830086   2.1229112
  47.9660835   2.3717785  22.6442261  47.1859322   1.8193599  22.6935310
  48.6678238   1.8276623  23.0016212  74.2273560  47.2044334  83.1315689
  74.6674347  47.1350441  83.9787674  74.8159332  46.7632217  82.5190811
  17.6589642   0.8341032   9.8035126  16.8925495   1.2795007  10.1647072
  18.3365269   1.5095606   9.7735767  46.3303833  29.1196918  88.7576523
  46.6825790  28.3905506  89.2680893  46.1592636  28.7462196  87.8930893
  37.8373260  58.6407967  23.9993916  37.9298973  58.5235405  23.0539207
  36.9618683  58.3082390  24.1974030  27.6513214  55.5683212  55.9961967
  27.5002384  54.6880913  55.6518135  27.9916496  56.0622177  55.2502251
   0.7770465   6.8754478  79.3208389   0.8930427   7.7902417  79.5776062
   0.2626881   6.4908395  80.0305862  53.7879448   1.1826329  82.2103271
  54.2300148   0.7577268  82.9453506  54.2916222   1.9821594  82.0576859
  55.3465996  44.4279594   1.2198898  54.7168617  44.7682915   1.8553705
  55.0925484  44.8327942   0.3905548  40.8725700  14.5622339  85.3386841
  40.9143677  14.9919062  86.1930084  41.5092850  13.8499317  85.3974304
  69.3308029  15.8780041  41.2462311  69.2765503  15.7078972  42.1866341
  70.1573715  16.3477535  41.1350937  67.6657410   5.0583682  88.6429901
  68.5698395   5.3574219  88.7399979  67.5941544   4.3142414  89.2407990
  71.1089859   8.3839941  76.4374619  70.9091415   8.5899744  77.3506241
  71.9881058   8.7365322  76.2992706  84.9168549  54.9096222  54.9238052
  84.3577423  55.5133858  55.4127731  84.3590698  54.1503448  54.7546730
  47.5303688  60.5086288  87.8534470  46.7061310  60.8659439  88.1838837
  48.0498161  61.2787590  87.6225739  65.7395630  52.2111855  50.1133232
  64.9706802  51.7051353  50.3759270  65.3818741  53.0317688  49.7743034
  51.8227692  52.5119133   1.8962550  50.9441566  52.4279366   1.5258169
  51.7251205  53.1513824   2.6017866  10.7845898  15.4112415   8.3741484
  10.7614174  14.4660740   8.5236578   9.8639450  15.6711683   8.3412466
  50.4908714  66.1070480  52.8042336  49.9218102  66.1797638  53.5704651
  50.3747673  66.9361191  52.3401184  83.1219788  27.4879990  64.0227432
  82.2689590  27.1217098  63.7894630  83.7216949  26.7430611  63.9822540
  39.9903297  60.5835075   5.0562754  40.5599823  61.3012543   5.3329716
  40.1393738  60.5091743   4.1136765  43.3762589   6.7250748   4.6722546
  43.9401741   6.1029639   5.1318297  43.1297340   7.3640976   5.3409162
  55.3451309  42.3442841  79.8990631  55.3060226  43.2931824  79.7795029
  55.9419632  42.0410690  79.2148972  43.1577110  48.1375580  22.1475925
  44.0323601  48.3076820  21.7979069  43.2266884  47.2745552  22.5558815
  70.4462204  36.5378380  40.7494812  70.5855255  36.1112175  41.5949554
  69.9298477  35.9085770  40.2458801  32.1947899   5.4704795  10.4594727
  31.2461414   5.4438868  10.3346100  32.4643478   6.3024678  10.0704155
  68.4320145  44.8831749   3.3546479  68.7112503  44.5404701   2.5056415
  68.7379532  45.7901535   3.3592024  75.6810150  49.2396927  87.8515167
  76.2849426  48.6127625  88.2495956  76.0603180  50.0960846  88.0488815
  52.4689255  47.1221695  40.0052109  51.9683838  46.5261536  40.5623970
  53.3815613  46.8675957  40.1412926   6.2134366  64.3981476  80.4319382
   5.4141068  64.3199081  79.9111862   6.2979541  65.3364105  80.6014938
   0.8835164  52.9562607  32.8375435   1.8100576  53.0891304  33.0377884
   0.4985638  52.6679306  33.6651344  57.4812469  38.3689003  66.2998657
  57.7145081  38.9053650  67.0575104  56.5639648  38.1365433  66.4442062
  63.6059303  39.0101547  73.2182617  62.6805000  38.7664452  73.1977921
  64.0122147  38.3599548  73.7913284  77.1578064  44.2002831  32.1798515
  76.9334106  43.7833862  33.0117645  76.7343369  45.0577850  32.2197685
  27.2965775  30.4709091   0.8959711  27.8783188  29.9349918   1.4350455
  27.0674305  29.9069271   0.1572914  60.8165398   5.4612751  32.2757835
  59.9669647   5.7126517  32.6380882  61.3978882   6.1870866  32.5026321
   0.8064646   4.8875427  38.7231827   0.4997725   3.9874935  38.8331032
   1.6341319   4.8024378  38.2499428   3.3325529  48.1000786  44.8352089
   2.6863968  48.7721863  45.0519676   3.8287489  47.9751167  45.6441650
   1.4176646  57.9986763   9.0904322   1.4711639  57.1737404   8.6078825
   1.6912360  57.7740974   9.9797888  44.1048164  47.3983536   9.4683552
  43.6050987  47.1083336   8.7052021  44.1514091  46.6259537  10.0317926
  12.2396955  70.3986740  56.5035515  11.5306969  71.0143356  56.3177795
  12.0728731  70.1043701  57.3989754  12.7371063  39.7426796  36.6058846
  13.1234474  40.3600388  35.9847260  13.3905573  39.6613808  37.3005981
  72.8045197  14.3170252  51.2844658  73.4774628  14.4089413  50.6099777
  72.8354492  15.1426868  51.7677460  11.4444323  69.8192444  51.7732964
  12.0688686  70.1287766  52.4294205  11.7688704  70.1764069  50.9466133
   2.8160160   8.7281799  75.4034424   2.8716640   7.7729187  75.4281769
   3.5764318   9.0254135  75.9030914   7.8444986  28.0173836  21.6460819
   6.9371185  28.1597271  21.9155865   8.3497114  28.0950203  22.4553814
  22.2277431  37.8327751  84.8611908  21.3936424  37.4143219  84.6481094
  22.8141594  37.1055489  85.0697403  80.5221634  11.1391687  30.5969982
  80.8728943  11.2307825  31.4829006  79.5740662  11.2132044  30.7059135
  80.5145721   8.8770704  21.9375935  80.8332062   8.2114935  22.5472736
  81.1896057   8.9245634  21.2606125  38.8928566  42.9308128  72.2411118
  39.0868530  42.0018120  72.1163940  39.5035553  43.2137566  72.9217148
   9.9055462  44.9080124  51.9628029   9.5735931  44.1149712  52.3836594
  10.3940649  44.5897560  51.2036629  75.9687042  71.1845322  85.0145950
  75.5130844  71.8239822  85.5620804  76.8192978  71.5853577  84.8355484
  38.0731659  19.2162476  12.6527815  37.7771683  19.3170033  13.5574732
  37.8265724  20.0374241  12.2272329  34.6475639  71.4118576  58.0839081
  34.0660591  71.3862991  58.8437996  35.5093346  71.6135712  58.4484596
  41.2897415   1.7308543  48.8112526  40.6964798   2.1065927  48.1607933
  41.0397453   0.8080958  48.8586922   8.1160107  53.1080666  26.8475094
   8.0188551  53.3396721  25.9238472   8.2205486  53.9476166  27.2952366
  34.8591881  25.1438141  10.4944706  34.2009010  25.1334896   9.7996445
  35.6887741  24.9951973  10.0406733  33.7896767  67.3696136  42.8561172
  33.1473579  68.0658493  42.9936676  34.5451698  67.8134384  42.4707909
  40.3095894  27.8711662   0.3254552  41.0732193  27.7636948  -0.2415963
  40.1624947  27.0011768   0.6965573  34.0644226  64.1083908  12.9581137
  34.7705574  64.2260361  13.5935364  33.4062729  63.5927658  13.4241695
  45.9347153  62.1130943  81.8502045  46.8120384  62.0189552  81.4791565
  46.0776215  62.1530685  82.7958298  53.1853333  41.7772560  70.8067627
  53.1934280  41.6988182  69.8528214  53.4231606  42.6892090  70.9741287
  73.5245743  54.2683754  84.6063919  72.7524109  53.8239288  84.9563522
  73.7220993  54.9482689  85.2505646  34.4881592   1.6196904   3.0613368
  34.2738571   2.5316136   3.2580671  35.4435158   1.6052188   3.0037487
   6.7813325  53.0901413  21.3910637   6.2128344  52.3208885  21.3550453
   7.4580417  52.9187279  20.7361488  62.4661026  55.1464729  52.0847473
  61.6703949  55.5411644  52.4415359  62.7534485  54.5333328  52.7612991
  67.1052017  26.3127041  86.1160202  67.1500320  25.4074841  85.8081284
  66.4110260  26.7103539  85.5904465  85.7482681  42.4803925  42.3696442
  85.2468872  41.6894493  42.5677643  85.1312332  43.1976852  42.5145111
  23.3182106  65.6956787  53.9719467  23.3462772  66.3293762  53.2550964
  22.9975185  64.8898773  53.5668869   0.9357435  64.8944931  82.1702271
   1.1102169  65.7744141  82.5041962   1.2103958  64.3110199  82.8775864
  82.8447800   9.8744097  62.2307854  81.9407349   9.9942503  62.5215836
  82.9545059  10.5085192  61.5221977  76.5455856  49.5331001  29.6764641
  75.8723755  50.0130043  30.1588612  76.7893295  50.1182556  28.9592342
   1.9169608   5.6425672  19.5433426   1.9994540   4.7292533  19.8177223
   2.6675079   5.7883677  18.9674492  63.1083603  25.4039783  41.2561951
  63.7019310  25.9157085  41.8057747  62.2895203  25.8996601  41.2618828
  54.4217262  29.9439907  81.8052750  54.5090752  29.7140789  82.7303391
  54.4841576  29.1077538  81.3437119  46.2973671  52.0313454  22.9364433
  45.4197540  51.9049606  22.5758076  46.8855782  51.7078018  22.2541256
  49.9992104  30.5313454  65.1136551  49.1400719  30.1628475  64.9079285
  50.5997849  29.7887058  65.0501938  14.1621513  64.3660736  19.4008312
  13.5831308  63.8672104  18.8245449  15.0230455  63.9652672  19.2806339
  63.1520462  20.9641895  27.4121742  63.5886230  21.7011871  27.8393326
  63.8323097  20.2953110  27.3342438  80.9579849  38.8593216  48.2882309
  80.5195389  38.0176239  48.4129028  81.8072052  38.6331482  47.9088745
  39.9254341  11.0018511  62.9385681  39.4487000  11.8318748  62.9344788
  39.2413521  10.3328609  62.9652901  52.6447678   5.2660308  66.8982468
  52.0871353   5.7050114  66.2559204  53.2497711   5.9459939  67.1946411
  26.5442600  29.8437576  24.3039875  26.1678410  28.9909306  24.5213013
  26.5892315  30.3060074  25.1409683  64.7027130  71.4873962  32.2940941
  64.3742371  70.5975494  32.1656113  65.6438751  71.4209137  32.1327362
  41.2715492  71.5759201  57.7192917  41.6040382  71.0083847  57.0238876
  41.0327873  70.9750977  58.4251556  65.7933273  23.7880936  46.0297585
  66.4195480  23.7823067  45.3058472  65.9312592  24.6324501  46.4590225
  68.1600418  34.3134041  79.5677185  68.9147491  34.4319382  78.9909973
  67.7909775  35.1914635  79.6627579  28.9521427   7.3288236  76.5299149
  28.0313663   7.4160299  76.7764816  28.9942627   6.5017419  76.0499191
  61.0334587  10.5719767   5.6296201  61.2971458  10.2928371   4.7528186
  60.7275848   9.7705078   6.0542622  58.6795387  35.9380417  67.7997437
  58.9679146  36.6451035  67.2225647  58.1943169  35.3441391  67.2269669
   0.6393523  55.1951485  25.3130112   0.8709158  54.5023270  24.6944599
  -0.1730603  55.5640068  24.9663677  82.8378830  21.6546288  25.7020988
  81.8964691  21.4871616  25.7460003  83.0426407  22.0895653  26.5298290
  83.9630051  16.8719521  86.2641983  84.7932281  16.4684219  86.0109634
  84.2040024  17.5213280  86.9248505  38.1005363   6.1355634  67.0779266
  38.1820793   6.4001222  66.1616364  37.6386185   5.2978330  67.0451431
  13.6894341   4.8178549  88.4067230  12.8708487   4.4109001  88.1229324
  13.7745504   5.5950742  87.8545303  71.5802307  54.3753738  53.0921478
  72.5033188  54.6241989  53.1393280  71.4831390  53.6890030  53.7522240
  84.9884338  25.0605907   6.4773726  85.0779953  24.1083736   6.5159941
  85.8866653  25.3878078   6.5258341   5.3970718   0.8771808  74.4309158
   5.6120653   1.5295460  75.0975723   4.5745072   1.1854305  74.0506516
  34.5719414   2.1046777  13.7906971  33.8689270   2.0433571  14.4374151
  35.3590355   1.8398322  14.2666950  81.2326736  26.4686794  78.3818665
  81.8167038  27.2116737  78.2298889  81.4259033  25.8620224  77.6671219
  16.9941387  27.5076332  87.4847870  17.0557098  27.5193138  86.5296402
  16.4665565  28.2767105  87.7002106  82.2067947  44.7700653  21.0581264
  82.9240112  45.0957947  21.6019363  81.4476929  45.2868767  21.3281441
  53.2394142  11.4431229  48.8280907  53.9449425  11.5585833  48.1915894
  53.1653328  10.4947033  48.9341240  18.5186615  12.9560013   6.2797709
  19.4302769  12.7287321   6.0966406  18.0100231  12.2606497   5.8626313
  24.9066830   5.7375622  75.6979294  25.3911057   4.9885406  75.3507538
  24.6625080   6.2446113  74.9236450  86.3644104  68.1597977  17.1477871
  86.4815216  67.7672043  16.2826958  86.2656555  69.0960007  16.9745598
   9.0444336  22.5825024  10.9759750   8.2249241  23.0390034  11.1663523
   9.2031240  22.7524033  10.0474367  28.8799877  29.9070110  11.1649075
  27.9517155  30.1388454  11.1930828  29.0090275  29.3421936  11.9268541
  29.7207069  48.3513222  71.6961365  29.1796265  49.0044823  71.2524643
  29.0930138  47.7868156  72.1473160  33.9254227  63.0803833  25.9556293
  33.7665100  63.1059799  26.8991985  34.3480682  63.9169121  25.7611465
  22.1488819  69.2495346  82.8573151  23.0015411  69.1748734  83.2858353
  22.3339119  69.6983337  82.0323410  61.0295677  10.4900312  84.0547638
  60.5917969   9.7847748  84.5314178  61.5966797  10.9031496  84.7058792
  46.1874466  42.0671043   9.1573362  47.0065804  42.5621414   9.1712112
  45.9139900  42.0307808  10.0739241  38.7538681  71.0562057   3.2621052
  39.4032974  71.3366165   2.6172478  38.1314926  70.5287170   2.7614660
  37.3412094  61.2875595  57.4305878  37.9234695  60.8705597  56.7955170
  36.9747963  62.0380363  56.9628716  79.7528381  38.7881317  30.3281975
  79.3475342  39.2885704  31.0363789  80.5065765  39.3153229  30.0633011
  17.5360546  67.0519638  29.6802616  18.2969475  67.6038818  29.4995384
  17.8827038  66.1597443  29.6835346  37.3497162  53.8776169  87.3603745
  36.8604546  53.4009781  88.0309448  36.9444847  54.7445450  87.3390274
  26.2418423  66.7388458   9.8820086  25.8864727  66.1472244   9.2187424
  26.7648354  67.3685150   9.3857937  41.2245865  28.5131302   4.1136603
  40.7840652  28.7812157   3.3072457  41.8376770  29.2243423   4.2994776
  21.4476280  16.7356853  85.8832932  21.2757816  17.3908100  86.5596848
  20.8639221  16.0087128  86.1001587  72.8926697   6.2913046  76.3914261
  72.3372726   7.0434175  76.5965805  72.2769089   5.5872755  76.1879349
  19.8618755  53.6753616  24.8483620  19.3572903  52.8620262  24.8379860
  19.2609844  54.3253784  25.2125587  28.2364521  53.7044373  70.9297028
  28.6137943  54.4322701  70.4356384  27.7394123  53.2065392  70.2806320
  49.6365204  19.2391605  23.2027760  49.0246124  18.8450413  22.5811081
  50.1238098  18.4977055  23.5619774  84.4821701   7.8294883  30.9761066
  85.2959442   7.5410266  30.5628376  83.8119659   7.6929111  30.3064766
  13.6118584  66.3364944  88.4283981  14.1079960  66.6950684  87.6925278
  13.1408606  67.0879364  88.7885590  60.0747871   2.6986036  15.5873928
  59.4175224   2.1093092  15.2173042  60.1720963   3.3901968  14.9328232
   4.3222413  22.4322624  73.6294861   4.4638019  23.0008602  74.3863754
   5.1763086  22.0313492  73.4680328  10.4723721  68.9922028  63.9803658
  11.0146255  69.5276337  63.4011383   9.5827446  69.3184662  63.8449326
  39.0970535  25.5771713  11.1208935  38.7580414  26.2592812  11.7005749
  39.8671722  25.9716587  10.7115879  52.7393341   5.5643945  81.6045074
  52.2148018   4.9340281  81.1108093  53.6379890   5.2454309  81.5213623
  70.2203369  26.9380455  81.0162125  70.6376648  26.2124081  80.5519791
  69.3230209  26.9509602  80.6832123  62.9872093  12.5966768  67.6853180
  62.7823944  12.3234215  66.7911072  62.5897827  11.9239922  68.2382889
  63.7378235  67.8211899  71.2780762  63.2814713  67.0296173  70.9927902
  64.6408005  67.6953278  70.9865036  51.7248268  70.3766174  77.5342331
  51.8882141  70.8711853  76.7311554  50.8209877  70.0732346  77.4489822
  71.1212616  39.2955017  49.0376892  70.9776993  39.9550171  48.3589706
  71.5215530  39.7788277  49.7604599  65.9962082  59.0636253   8.2010546
  65.8180389  59.3069954   9.1094923  65.8437195  59.8670349   7.7035475
  63.2713737  57.0175743  69.9998322  63.3033485  56.3890686  70.7210770
  64.1546326  57.0042381  69.6311874  52.9919548  19.1035862   0.4563883
  53.2207031  19.9252968   0.0219928  52.2170982  19.3154545   0.9769028
  73.7039566  27.6051483  56.7443810  73.8174591  27.2429981  55.8656349
  72.7553711  27.6602345  56.8600502  36.5939865  65.5232010   3.0840938
  36.3618584  66.3602448   3.4862278  37.0760345  65.0553818   3.7660081
  32.3335228   7.9312000  79.0054703  32.2219276   7.8661699  78.0570221
  33.0103874   8.5979443  79.1218414  44.8910751  37.5150719  85.3121719
  44.5703430  37.6687469  84.4234924  44.0984001  37.4019508  85.8366699
  25.1669674  29.4520893  75.0779037  24.7227383  28.7371941  75.5337753
  24.7208672  30.2430267  75.3806381  62.8569603  67.0886230  79.3165054
  63.0836143  67.6753311  78.5949554  62.3435707  67.6317291  79.9145813
   0.9570424  61.5112381  12.1901569   0.2184040  60.9125824  12.0794315
   1.6794326  61.0888405  11.7254353   9.4203491  19.5666580  59.5032959
   9.1099749  18.6768932  59.6712761   9.6256886  19.5761986  58.5684280
   8.6516104  24.2687550  85.7524719   7.9596357  24.5427608  86.3544083
   8.2310190  23.6269760  85.1802368  47.7528114  43.0015030  66.3183060
  47.7617989  42.4593582  67.1071243  46.8399010  43.2738304  66.2252426
  84.2967529  48.6603622  58.0878868  84.0476990  49.1112823  58.8946533
  83.4684982  48.3517151  57.7205276  27.9398041   6.2223926  40.4051285
  27.5723534   7.0823622  40.6092491  27.4303417   5.9162006  39.6548462
  53.4854660  33.0780830  24.0923519  53.5792885  33.7320137  23.3996754
  52.8857117  33.4795609  24.7211151  23.1074066   7.3193731  33.1868629
  22.6094151   7.7946649  32.5217781  24.0207176   7.5426035  33.0072441
  53.3915253  13.9663334  77.2913284  52.7861710  13.3478813  77.7003403
  53.8329544  14.3913012  78.0267029  84.8397064  26.1190948  73.6518936
  84.2115555  25.9572315  74.3557816  84.7734070  27.0589676  73.4831467
  26.1947269  26.9251060   3.4393077  26.1421585  27.1209641   2.5038352
  25.6549110  27.5971756   3.8554254  17.9764175  45.2525787  83.3306808
  17.9227390  45.8546143  82.5884552  18.4470119  44.4923477  82.9888916
  10.2043905  69.8291397  81.5616302  10.4867802  70.0146332  82.4572220
  10.4558105  70.6078873  81.0650711  16.0941906  32.0661011  73.0332794
  15.7087584  31.8419342  72.1862717  16.9003696  31.5516014  73.0732651
  19.6756229  42.7592697  79.6137619  20.0136471  43.6189461  79.8646164
  18.7762299  42.7506676  79.9412537  82.5233688   5.2624693  38.7375259
  81.9617920   4.9095736  39.4276924  82.9254608   4.4910984  38.3381042
  10.4431286  62.9686966  88.4533920  11.2024651  63.5378342  88.5787659
   9.7630663  63.5486755  88.1107941  71.7905807  29.2741051  67.7281036
  72.3156586  28.5002975  67.5237732  72.2448120  29.6842728  68.4640808
  85.9182739  12.2903500  54.0466194  86.6676254  12.1432314  54.6237335
  85.9666443  11.5810165  53.4057312  66.6447144  17.4092426   9.9631491
  65.7662201  17.3427734   9.5889149  66.5968552  16.9079094  10.7771549
  46.7990227   1.1348238  15.4974403  47.3802567   1.6364688  16.0690632
  46.3066521   0.5697955  16.0928783  16.8222828  48.9526100  83.7270203
  17.4459934  49.6393318  83.9628906  16.8533325  48.9189568  82.7709122
  77.7359543  53.9724617  30.1637859  76.9491882  54.5172997  30.1443806
  77.7471085  53.5991669  31.0451260  27.3759480   3.6979897  11.4495029
  27.1159859   3.1409512  12.1832333  28.2298412   4.0472226  11.7047138
  46.8703880  20.9779816  23.6977081  47.7185173  20.6830940  24.0292912
  46.2435455  20.7065525  24.3682537  55.5984802  59.3760986  75.8501434
  55.3836708  59.5867233  76.7588425  54.8038712  58.9697151  75.5042038
  62.8327408  65.7507477  19.1635246  62.0156860  66.2435226  19.2398510
  63.1894608  66.0086288  18.3135357  29.5373917   1.4612709  56.4343376
  29.5593395   1.4718940  55.4774475  28.8152771   0.8714236  56.6508141
  18.8694363  66.0330276  45.1647491  18.9077187  65.2965240  44.5545578
  19.7322063  66.0458603  45.5791054  70.6499786  16.0847378  47.4288750
  70.1309738  16.4445724  46.7095795  71.0567780  15.3000116  47.0615120
  65.0506134  54.9461823  56.6639900  64.5910950  55.7530823  56.4316292
  64.6025772  54.6332016  57.4498253  80.1299133  16.1924458  52.9892540
  80.6789551  16.9677868  53.1060066  80.3731995  15.6154594  53.7132225
  85.0370636   0.5534765  43.3356972  84.5435944   0.5951657  44.1548271
  85.9526443   0.6328458  43.6033516  25.4895115  48.2675705  73.2181625
  24.9235229  47.5103760  73.3683167  25.4091415  48.7888222  74.0169525
  73.5320206  45.3195610  46.6232300  73.2304688  45.5886917  47.4909096
  73.5897217  46.1354446  46.1259956  63.1879234  18.3708134  49.8723068
  63.8538666  17.7029095  49.7090263  63.6864586  19.1725655  50.0300751
  43.4095612   2.4724202   8.8974857  42.7776833   2.1587267   9.5444489
  42.9747658   2.3412790   8.0548792  21.6834335  10.3472672  16.7613144
  22.0784397  10.1101303  15.9222870  21.9988365  11.2347021  16.9322300
   2.8041513  33.9006958  45.4096375   2.7732291  34.5803642  44.7363396
   3.6673939  33.5002518  45.3062630   7.4412413  54.7699471  32.9927406
   8.0847120  55.2264481  33.5347595   6.9344072  55.4702148  32.5816803
   1.7095127   6.8712602   1.3846167   2.2178216   6.6170220   2.1548223
   2.0708449   7.7198639   1.1286050  61.4164352  22.8929253   1.6352235
  60.8331070  22.1500263   1.4801140  61.5608826  23.2693634   0.7670872
   1.2991824  44.9904289  51.7236176   0.4009421  45.3209038  51.7101364
   1.7035040  45.4262581  52.4738235  18.4719448  30.7227688  29.3583832
  18.7150345  30.4424706  30.2407494  19.2759895  30.6295815  28.8474445
   3.4291224  23.1723766  64.2594910   3.1841900  23.7655869  63.5493164
   2.9587426  22.3612518  64.0670090  57.8292389  62.4460945  86.5007477
  57.5017815  63.2687912  86.1371918  58.6483116  62.6851501  86.9345779
  46.5320358   5.7119370  41.0048676  46.5757866   6.4818039  40.4377480
  45.5953102   5.5522590  41.1200981  50.3341293  50.8422089  64.6537323
  50.7185974  50.6643562  63.7953682  49.6630898  50.1679306  64.7599640
  79.3368988  29.7152424   3.9546785  79.1163788  30.3082943   3.2364211
  79.2970734  30.2631836   4.7385197  73.9998550  43.3132935  70.6759720
  73.9315491  42.4709320  71.1254120  74.4064102  43.8951302  71.3181686
  82.7343979  21.0689449  85.6564560  82.5429764  20.7084084  86.5222549
  82.7088547  20.3121891  85.0708847  77.9837189  54.3316803   4.3511629
  77.1349335  54.5108719   3.9465747  78.6001740  54.3191719   3.6190073
  65.4619141   8.9893160  32.7937584  65.4169006   8.0649710  33.0382805
  66.0170212   9.3876495  33.4641418  60.5978127  48.5311737  85.7449646
  60.3542137  48.1440735  86.5858307  60.9976387  49.3700752  85.9743423
  82.7308197  16.0273914  26.5699425  82.1800232  15.3013525  26.8627338
  82.8181763  16.5878277  27.3409863  84.0092621  18.3503971  42.3472252
  84.9469528  18.2139111  42.2118378  83.9582977  19.1263638  42.9053535
  83.1194534   4.7298608  77.9742050  83.5067368   5.6048651  77.9494324
  82.3021088   4.8157153  77.4834824  54.0930672  12.2361288  27.6217289
  53.5210609  12.5282373  26.9120007  53.6980591  11.4194088  27.9269657
  19.6149788  50.6578178  28.7046909  19.5821552  50.6971550  27.7488632
  18.7168102  50.4561501  28.9670906  82.1565781   0.0380233  43.5982780
  82.6790695  -0.3633811  42.9039345  81.4369965   0.4694875  43.1375465
  21.9923916  70.7166977  62.1084480  21.2484493  71.1857529  62.4862862
  22.6109982  70.6252823  62.8331566  78.6859512   8.6296492  42.1771545
  78.8288651   8.3358879  43.0768852  79.5031815   9.0650587  41.9346962
   2.0675423  69.0470276  49.4212112   2.4109466  69.8430557  49.8269730
   1.5514407  68.6300049  50.1111107  60.0319633  63.0942879  23.8360500
  60.3688927  63.9602432  24.0658989  60.7643356  62.6609001  23.3978271
  70.7177353   1.3818882  11.5988541  70.4402161   0.9384075  10.7972679
  71.5993881   1.0479330  11.7643881  74.7032318  67.9907608   4.8432527
  74.5723267  67.0592346   4.6661792  74.0013733  68.2196808   5.4525318
   9.4760170   9.5327930  77.2790680   8.7222109   8.9554768  77.1577682
   9.5540380  10.0025024  76.4487000  72.9924164  17.2942924  30.9449043
  73.4283142  16.5518913  30.5265026  72.8485947  17.9191799  30.2342262
  84.3278885  68.9712524  45.9102478  84.5900803  69.1507263  45.0073204
  85.0309982  68.4236221  46.2594757  85.5657043  54.2856750  77.4875565
  86.3658752  54.7541695  77.2499313  85.3230286  53.8083725  76.6941299
  34.7192307  69.9128571  10.7737694  34.2314949  70.2222519  11.5370655
  34.1910820  69.1935654  10.4274893  76.8532791  11.7070780  23.1369934
  76.0693512  12.2153521  23.3451939  77.3519440  11.6905231  23.9538708
   5.8872209  66.4698792  56.9186478   6.4397988  65.8940506  57.4471474
   5.0309396  66.4378510  57.3452492  75.5534515  30.8145294  36.3456268
  75.8107758  29.9781704  35.9576607  74.7492828  31.0547333  35.8853607
  20.7783737  15.5132999  89.2291641  20.0876484  15.2107573  89.8187408
  20.4281559  15.3604240  88.3515549  62.3143883  37.5110474  65.3186111
  63.1780663  37.4289474  65.7230301  62.1404457  38.4523010  65.3142853
  40.4302559  64.4560547  48.2888641  41.1860657  64.9684448  48.0017471
  39.6756096  65.0102463  48.0898323  16.8491039   0.1834005  85.2943420
  17.4867573   0.6351761  84.7415924  16.9953384  -0.7460135  85.1181641
  67.1015091  18.5318203  83.1141510  67.3808517  17.8583241  82.4939880
  67.7237320  18.4634933  83.8383102  20.8206978  67.8823853  53.4792442
  21.4039574  68.5108566  53.0537262  20.8479290  68.1198807  54.4061127
  85.9094543  45.3600349  74.0984116  85.6959305  46.2850342  73.9758530
  85.5655594  44.9291267  73.3159180  50.3794632  66.8711929  47.3465004
  50.8578529  66.4282608  46.6456490  50.4918976  66.3036423  48.1090469
  11.8075838  69.8218918  17.4838905  11.0735760  69.3373642  17.8616428
  12.4429369  69.8883133  18.1967335  72.5513611  36.9207649  23.5405807
  71.9018478  36.2279892  23.4204979  73.3249741  36.4681549  23.8765831
  70.8632812  54.5049286  69.5800476  71.4928741  53.9645767  69.1026993
  71.3764267  55.2492142  69.8946152  16.8466702  22.3780975   1.1729163
  17.7886829  22.2155972   1.1235307  16.4599953  21.7244434   0.5902916
  63.1731491  20.5934792  87.6527405  63.3417702  19.7730198  87.1894379
  62.2624435  20.5240192  87.9391327  55.7706718  59.6634331  -0.1506753
  56.6499596  59.3220940  -0.3136988  55.8768730  60.2515297   0.5970531
  60.8499107  38.1345749   7.1954637  59.9688644  38.3643456   6.9001746
  61.2348671  38.9666138   7.4706993  32.7541199  48.1854401   1.0038204
  32.8709106  48.8699989   1.6625842  31.8052616  48.1087418   0.9037310
  12.5180645  45.2863731  45.4813995  13.4032288  44.9267921  45.4229546
  12.2188072  45.3348541  44.5734749  11.2054615  42.1159363  30.2243557
  11.4587870  41.2169380  30.4337902  10.3538523  42.2293091  30.6464214
  51.6054459  37.9558983  82.3417664  51.4629440  38.7207413  81.7841492
  52.5129204  37.7023201  82.1731873  59.9133224  19.3516254  23.1477833
  60.5550232  18.6704731  23.3489838  60.4401627  20.1107254  22.8979111
  69.7255554  51.0331612  65.3194427  70.3943481  50.9921417  66.0030060
  69.8334885  50.2179489  64.8295364  51.7273560   1.3291031  28.5630322
  51.0095749   1.1921967  27.9447441  52.4437027   0.7944893  28.2205925
  33.1899109   8.1494198   7.6164031  33.0084496   8.7554693   6.8980670
  32.3596115   8.0812216   8.0877657  31.8282948  16.5055027  76.1285629
  32.0020180  16.5179882  77.0697861  32.6384964  16.8247471  75.7312164
  81.2607269  49.2016945  86.4121246  81.7122574  50.0395584  86.5138016
  81.7435989  48.5991936  86.9778671  49.3131104  20.7234917  78.1984787
  49.7355766  21.4257908  78.6929779  48.3767853  20.9077854  78.2730484
  73.2147064  21.5647030  17.7674503  73.3358154  20.8651543  17.1254253
  74.0005875  21.5280781  18.3126888   8.3560266  47.7728348   2.0655034
   8.9540462  47.2195969   1.5629795   8.6961832  48.6600418   1.9497756
  28.4847603  48.1578407  16.0764999  28.7207985  48.7562866  16.7852859
  27.9573307  47.4807816  16.5003452  32.1504669  68.1335297  23.2720985
  31.7715416  67.3160248  22.9490986  31.9989872  68.1108627  24.2169628
   2.4333279  11.9741802  74.0935516   2.6730285  12.4829493  74.8681030
   1.7433941  11.3847771  74.3982239  81.4674149  11.6211233  88.9292145
  81.0041733  11.8173933  88.1148911  82.0213089  12.3870316  89.0802612
  74.0236588  27.2528019  51.7461624  73.0994263  27.4692116  51.8694305
  74.2927856  26.8677444  52.5801506  75.8581314  21.0370789  32.4197388
  75.2437439  20.3604469  32.7042007  75.9161911  20.9243221  31.4709759
  11.8881407  62.6512184  84.1111984  11.6889467  63.5485344  84.3783646
  12.2504435  62.2421570  84.8970947  23.4281635  27.4059200  16.1804142
  23.9908314  27.6658516  15.4509811  23.9948711  27.4571686  16.9501209
   5.9187651  56.7643700  63.7337875   6.8460698  56.7665749  63.9711304
   5.7673712  55.8931084  63.3674278  81.6841736  46.0703697  10.0841780
  80.9500580  45.6939583   9.5987692  81.4075394  46.0379906  10.9999599
  20.1423874  18.6199913  87.3152161  19.9975891  19.3084373  86.6661377
  19.3088665  18.5505047  87.7806702  44.0485954  51.8504524  61.4680786
  44.5245209  52.6141052  61.1416359  43.3121681  52.2180710  61.9567146
  44.2508430  49.9572945  53.5806084  44.1786880  50.7551994  54.1044159
  44.7290077  50.2277870  52.7967606  64.9574127  16.8688850  88.4425583
  64.0107422  16.9347878  88.5678558  65.3214722  16.9423981  89.3247681
  74.5495682  13.5208225  40.3934822  74.7042465  13.7596884  39.4795609
  75.4221878  13.4988422  40.7862778  25.9931011  66.1129684  37.4645195
  25.5765209  65.3725739  37.0234833  25.7964725  66.8655472  36.9066658
  26.3697567  49.9699898  45.3472977  25.6202450  50.1392250  45.9181061
  26.0401020  49.3502541  44.6965370  71.1747742   4.9451618  52.8891182
  71.8040237   4.6711540  53.5563507  71.3606491   5.8740277  52.7516747
  10.7264843  47.1950150  77.7982864  10.9861259  47.3378181  76.8881073
  11.5505047  47.0452080  78.2617340  79.1421890  43.5678711  35.2042961
  79.2824249  44.0691605  36.0075874  79.0789261  44.2304955  34.5164299
  13.7066879  53.6825485  59.2459755  14.3601809  53.5397263  58.5612984
  13.1402969  54.3706131  58.8966942  67.6487198  32.1991539  12.7939196
  68.1766281  31.7056942  12.1661882  67.4155350  31.5589943  13.4662685
  57.1148453   1.9863729  30.8044491  56.4530144   2.4004672  30.2506104
  56.6467018   1.7589599  31.6077900  26.6123142  10.7479362  83.3965607
  27.0386276  11.1150017  84.1709976  27.0447674  11.1778183  82.6587143
  18.5430660  67.9002762  50.7095680  18.5857143  67.3052063  49.9610329
  17.9797783  67.4517975  51.3402863  34.2140007  56.1071396  64.6474838
  34.3757133  55.1721001  64.7731094  35.0632515  56.5201874  64.8036957
  37.0297546  57.7529449  37.3149529  36.4977112  57.2008133  36.7419662
  37.7095833  58.1076508  36.7420197  22.8234806  49.7962303  33.5362625
  23.6582642  49.3310127  33.5905113  22.8762169  50.2881088  32.7168083
  43.7285805   3.2820828  26.1950493  43.5130348   2.7142892  25.4551964
  43.8989983   2.6787097  26.9183273  32.2107887  25.7232990   0.9294261
  31.6989269  26.3768597   0.4528880  32.9657822  26.2075386   1.2636861
  19.8031883  58.6843338  48.4975014  19.5078011  57.9143867  48.0115356
  20.2940235  58.3267746  49.2374115  69.1472626  22.0791264  59.9298820
  69.5968094  21.9541893  59.0941010  68.2180328  22.1005650  59.7011719
   4.3339534  27.2984600   8.5465536   4.4909616  27.2121239   7.6062737
   3.9352269  26.4660530   8.8002262   1.8036457  35.6245499   0.5897028
   1.5468999  36.4863167   0.2615693   1.3926629  35.0060806  -0.0143039
  77.5657883  41.2706947  34.8859100  77.6142044  40.9999352  35.8027420
  77.9506683  42.1470261  34.8743248  63.2188110  57.8138351  22.6518974
  63.4731712  57.1290436  23.2704391  63.9812317  57.9175262  22.0825176
  41.1011238  56.1932831  85.0784988  40.1793289  55.9921303  84.9170456
  41.3393898  55.6425591  85.8242645   4.5301137  34.5709114   0.2870317
   5.2074456  34.2099075   0.8589825   3.7148309  34.1862946   0.6089243
  20.9704895  11.0443878  85.9341431  21.8570881  10.6836748  85.9263840
  20.4055424  10.2879801  86.0919800  35.2140121  36.4434242  14.1208029
  35.4796600  37.1407013  14.7203550  35.4499092  35.6344147  14.5747747
  24.6438465  37.8818054  88.2517014  24.7760468  38.0616798  89.1825027
  25.3261337  37.2477570  88.0310211  40.4444046  57.5529060  51.8766861
  41.2891808  57.7810745  51.4887123  40.6180840  56.7554321  52.3767929
  86.1059341  54.0696411   9.7190409  86.8809586  53.7186623  10.1576614
  85.4301300  54.0776329  10.3968706   9.9771042  70.3709488  36.1828232
  10.9322224  70.3573990  36.2444496   9.7479105  71.2995987  36.2189827
  61.5548210  34.6624794  72.0522766  61.3272247  34.7779999  71.1297302
  61.7030907  33.7215271  72.1463776  39.3259621  27.1772156  83.7275162
  39.8400383  27.3576775  84.5145340  38.8657494  26.3612156  83.9239349
  58.3029137  18.7677593  64.9922180  57.5769196  19.3479233  65.2215195
  58.5056305  18.3049526  65.8052063  46.8021049  71.4230881  23.4735622
  47.5848808  70.9179230  23.2537823  46.3457527  70.8874588  24.1224689
  62.0172882  65.0272369   0.1291358  61.1160698  64.8847885  -0.1602519
  62.2923622  64.1807785   0.4813709   2.0559950  45.9476051  80.7516174
   2.1516247  45.8443184  79.8048248   2.2072051  46.8798752  80.9073334
   3.3225923  14.4169931  41.6620331   4.0014496  15.0631599  41.8565941
   3.4790745  13.7094774  42.2874680  83.6231842  33.6930046  73.7701340
  84.4099503  33.4608421  73.2768402  82.8989639  33.3908539  73.2220154
  84.0787354  38.4746399  39.9988327  84.8639450  38.7608681  40.4654732
  84.4065170  37.8937225  39.3123016  19.5445328  13.4532499  25.7611923
  19.1533928  14.2549858  25.4141178  19.7113037  12.9139957  24.9881306
  58.4739075  32.5197067   8.6874905  58.0679474  33.3744621   8.5431843
  58.2678070  32.0202141   7.8973875   4.8379488  50.2653618  59.3898849
   5.5506887  50.6915588  59.8658981   4.9297566  50.5788269  58.4901390
  76.1665039  13.8599043  79.9467010  75.4961243  13.1882191  80.0718536
  75.9640808  14.2443342  79.0937805  79.3334198  27.3316956  84.2164841
  79.8403397  28.1404667  84.2882538  78.4946213  27.5373497  84.6292267
  38.7649231  46.7567062  77.5437851  38.9732590  47.0441208  78.4327240
  39.1934013  47.3988495  76.9778442  77.5524368  19.9624424  72.1260910
  77.4908142  20.8402138  72.5028534  77.5931473  19.3789062  72.8837585
   1.4673045  44.0237503  13.7691679   0.6392365  44.2934341  14.1664143
   1.6688150  44.7174530  13.1411514  62.1283607  50.7338600  79.0671844
  62.8258667  51.1913300  79.5366898  62.5473480  50.4138107  78.2682800
  52.0549927  64.1114044   1.2757812  51.1540947  63.9443626   1.5527520
  52.5864716  63.5449333   1.8351287  15.2542095  63.8806648  58.5355873
  15.2811956  63.8222389  57.5805511  14.3257980  63.8004227  58.7543182
  20.9918575  32.2877235   2.9675097  21.0478954  32.5552216   2.0501571
  20.4596310  32.9663277   3.3827944  59.2040863  55.5475121  49.7625656
  59.9143448  54.9302139  49.5873375  58.6425667  55.0943031  50.3914795
  51.3307495  18.8102970  56.8312912  52.2207413  19.1617985  56.8069496
  50.8508720  19.4124813  57.3999062   9.7490149  43.7212601  55.3538895
   9.8255348  44.6731949  55.4186554   9.5663614  43.4342346  56.2485886
  60.7418823  64.9677887  35.4225388  60.8253059  64.7050934  34.5058784
  60.0529785  65.6323395  35.4195023  54.1935463  61.0800323  27.5161610
  53.5771179  61.7847404  27.7152424  53.8376770  60.6654510  26.7302151
  45.9542465  64.0049438  63.1766891  46.9064751  64.0993042  63.2009621
  45.8102798  63.0951271  62.9164124   8.9738293  13.5145893  42.3301620
   9.1515322  12.6058092  42.5725937   8.3282089  13.8116703  42.9713707
  72.6436005  70.0870438   3.4166722  72.4655457  71.0139542   3.2573719
  73.5092468  69.9404678   3.0353537  30.3239460  34.0801048  10.5576181
  30.2295189  33.2106552  10.1685543  31.2416821  34.3095207  10.4114571
  57.2672691  34.9318123  29.9999657  57.7443848  34.2791328  30.5124111
  57.1594925  35.6726265  30.5964661  76.3791962  19.6483898  36.4936562
  76.4336014  20.3055477  37.1874962  75.6825256  19.9645672  35.9184036
  58.3267365   8.8442526   6.4774976  58.6589737   7.9858503   6.7401705
  58.0008240   8.7127409   5.5871511   5.6387544  68.6670609  14.2595024
   6.2697549  68.8754196  14.9484549   5.6842341  67.7148590  14.1730576
  33.4844475  56.2233391  37.7666969  33.5751953  55.4447289  38.3160248
  33.9194145  55.9898911  36.9466095  29.7570324  13.9590282   5.7843390
  30.3807735  14.5783491   5.4053664  29.3309402  14.4485312   6.4879465
  59.6706161  53.0954361  19.5905800  60.1688309  52.2785606  19.6176357
  59.5034142  53.2432823  18.6597652  34.7043686   4.8995481  29.9329033
  34.6709938   4.7222085  30.8729401  35.4745255   4.4210520  29.6260929
  48.7099838  32.8475800  17.2930489  47.8618660  32.4038734  17.3003082
  48.6031837  33.5580673  16.6605663  50.7274857  10.7138901  26.2745476
  51.3782730  10.6269522  26.9710712  50.9429626  11.5430346  25.8475571
   0.8351752  68.6766663  62.4723434  -0.0431984  68.6910706  62.0922318
   0.9475586  69.5494995  62.8488617  28.7786541  12.2334814   3.9926124
  28.4731636  12.7202129   3.2271056  29.0789433  12.9083643   4.6013746
  55.8214188  17.6490707   9.5954523  55.7952003  16.9867001   8.9049377
  56.1677437  17.1861706  10.3583498  20.9902210  35.4472389  22.4443302
  20.8063087  36.3296242  22.7665157  21.7637272  35.5510025  21.8901138
  23.2390766  35.5965576  87.1503830  23.8263531  36.2260666  87.5687790
  23.7678699  34.8048439  87.0513840   4.8114519  60.9871674  69.6889648
   5.1678271  61.7995262  69.3293762   4.3621554  61.2566566  70.4900513
  12.7553062   2.5214374  84.4051514  12.4128742   1.9325837  85.0776291
  13.4261122   2.0073965  83.9556961  32.0828056  67.6583405  52.6239166
  31.3649349  67.5642700  51.9977837  32.5974503  68.3929443  52.2896500
  71.1955795  23.0026226  51.4397583  71.1892776  22.8652821  50.4924812
  70.8845978  23.9007034  51.5536385  80.2505875  14.0042715  63.5869637
  81.1428680  14.2314634  63.8485832  79.7604980  14.8220892  63.6719398
  80.6358566  45.0886078  33.6760292  80.6272278  46.0014877  33.9637947
  80.4383545  45.1305504  32.7403641  47.7092323  58.7037926  63.2928314
  47.6786728  58.5676079  64.2397995  48.5133286  58.2659035  63.0137062
  50.5661659  69.8677673  48.4828224  50.8037682  70.5062408  47.8104172
  50.1363144  69.1611862  48.0009537  49.0357933  67.6991043  85.2620010
  49.0364418  67.0329895  84.5745926  49.6091118  68.3888550  84.9276733
  42.8409615  53.6324577  14.7845488  42.2595482  53.8084869  15.5242815
  42.3066406  53.1220016  14.1761322  30.0979805  45.4328232   9.9320078
  30.2258472  46.3514214  10.1687756  30.7502441  45.2679482   9.2511263
  24.2462444  39.5104904  78.8165817  24.8648777  39.1760712  79.4659576
  23.5475826  39.9099083  79.3348160  66.7972565  14.5912991  53.6203766
  66.4894562  15.4351015  53.2894821  66.6326828  14.6290417  54.5625648
  10.2055340   4.7857375  22.3281727   9.5731888   4.7531981  23.0460243
  11.0321045   5.0244403  22.7477360   2.3329933  20.9710732   5.9682827
   1.6093342  20.8208714   5.3600159   1.9076865  21.2010536   6.7943907
  85.4579163   9.1313553  62.4621811  85.4948654   8.3124838  61.9678955
  84.5275803   9.3553352  62.4853821  40.6205864   9.9298172  68.9121857
  40.6977768   9.0656099  68.5079346  40.6574020  10.5421190  68.1773605
  36.6369247  63.9141731  51.6366310  36.6779480  64.3361588  52.4948120
  37.5466576  63.8849220  51.3403816  65.5697403  49.8773079  26.5963612
  66.2192230  50.3166428  27.1453533  65.9129944  48.9911385  26.4818382
  34.9111710  25.0519772  87.1343231  34.2756729  25.7636089  87.2115021
  35.0253181  24.9340248  86.1912994  37.6746407   9.1314640  62.7842751
  38.2024078   8.8248262  62.0469360  36.7755737   9.1212358  62.4559326
  41.6830101  48.9146805   1.4159627  41.5130310  48.6661720   2.3245788
  40.8137932  48.9984512   1.0239452  75.7223206  47.2307930  85.6386871
  75.6149673  47.8550758  86.3563156  76.6609497  47.2403259  85.4513321
   2.5345421  10.0248537  82.6422577   2.2994375  10.8873863  82.9842987
   2.9280667   9.5708284  83.3873978  32.1063805  60.0921707   2.0402017
  33.0351868  59.9337082   2.2088568  31.7792454  59.2594109   1.7000099
  65.2692795  68.6050568  27.3620110  65.7936172  68.6116791  28.1627960
  64.3631668  68.5769577  27.6692581  17.8446445  30.4351425  23.0012093
  18.3059216  30.6437035  23.8135872  17.5835762  29.5197906  23.1022358
   2.5834165  17.4552059  38.3248291   3.1173203  16.7411556  38.6731224
   2.0687506  17.0507832  37.6264076   5.1019902  20.2358589  35.3543892
   5.7334375  19.8602047  34.7408829   4.3803248  19.6072235  35.3702240
  65.4609146  12.1777611  52.9427032  64.8882828  12.7615337  53.4402275
  66.2363129  12.7063684  52.7541084  57.8978004  36.0625534   6.5379043
  56.9703598  36.2075500   6.7251401  57.9006271  35.4901543   5.7707133
  26.0782623  34.7052345  76.7749939  26.4417763  34.8291588  77.6517715
  25.5065899  35.4616470  76.6436157  73.2969589  30.3225174  85.0248947
  74.1139450  29.8669300  84.8218994  73.3682785  31.1587391  84.5645905
  38.0060272   4.9716430  77.1873779  37.2657890   5.4772305  76.8517303
  38.7769012   5.4815159  76.9383469  81.2141571  30.4214859  60.0101433
  81.8027420  30.0355034  60.6588516  80.7013321  29.6826725  59.6824303
  84.1937943  28.7216740  37.5104904  84.7624817  28.0296459  37.8480072
  83.9345627  29.2184315  38.2865486  79.6311035  44.3270721  23.4249420
  79.5243607  44.8603439  22.6372490  80.5073624  44.5433998  23.7437000
  23.1900635  11.1539097  78.0349426  22.5413151  11.5195856  78.6363068
  23.1475143  10.2090836  78.1823349  70.2790527  43.3775177   4.9713526
  69.5027237  43.6600304   4.4878883  70.1589584  42.4350281   5.0876575
  51.8486786  39.9869118  63.9108658  51.0418549  39.6635246  63.5100098
  51.5559921  40.6464386  64.5398254   9.7772350  13.4944677  53.1443291
  10.4162664  14.0118980  52.6542931   9.7451916  12.6555319  52.6845551
  83.4402161  57.5617599   5.5427032  83.1797180  57.9147453   4.6919556
  82.7337570  56.9607239   5.7791276  25.7811527  56.2799416  46.2839088
  24.9525604  55.8915253  46.5646248  25.7343960  57.1874084  46.5848274
  85.6264191  10.7047892  31.3784618  85.3161697  11.0882015  30.5581131
  85.4583130   9.7672796  31.2833347  82.1249008  47.0036201  62.5809898
  81.6785049  46.2850304  62.1331139  82.0607834  47.7408791  61.9738884
  83.7303391   7.3790627  88.6366196  82.9725494   7.9534883  88.7462463
  83.4884720   6.7986040  87.9149551   8.1084175  41.7837830  11.2266026
   7.6953588  42.6422920  11.3191814   8.7813969  41.7671509  11.9070835
  39.3645744   0.2460627  69.6007996  38.5122681  -0.1858587  69.5438080
  39.2042542   1.1350070  69.2840881  57.6933441  54.9709816  79.9247513
  58.6302605  54.8203163  79.7993774  57.5076866  54.6150551  80.7937012
   7.9719362  49.5883522   6.5230408   7.7997794  48.8669968   5.9178610
   8.2852802  50.2998581   5.9646435  76.3404236  43.8986206  85.4619904
  76.7683029  44.7366562  85.6376114  75.4081268  44.0744362  85.5890350
  51.3902168  56.9916763  34.4193039  51.7127533  56.8115616  33.5362663
  52.0823441  57.5135727  34.8252831   4.9333363  19.5564613  72.6690903
   4.6793814  18.6419773  72.5447540   5.0809588  19.6380558  73.6113129
  73.3344269  59.2663994  63.7357635  73.5590668  59.9220810  63.0755768
  72.7806473  58.6388321  63.2713089  36.2599411  13.1806126  80.1673431
  36.7961082  13.9461184  79.9605637  35.4060326  13.3748140  79.7808685
  71.7792969  64.1785049  32.5077896  71.1689072  63.5727844  32.0873566
  72.3953476  64.4169998  31.8150883  31.9800816  65.7175522  54.5048790
  31.6711273  65.0191879  53.9277611  32.1544952  66.4534988  53.9181976
  47.1890945  39.5366821   5.2293906  46.2594185  39.7441559   5.1351032
  47.4956818  39.3982201   4.3332524  19.7206745   6.8830333  85.1704788
  19.3945942   7.6440229  85.6508942  18.9855003   6.2700710  85.1652069
  34.7352104  63.7466431  45.4093208  34.7131729  63.2100563  44.6169701
  34.2486839  64.5374527  45.1766472  62.2673340  61.2965202  70.5013580
  61.8757935  60.4689560  70.2219543  62.4496193  61.7627563  69.6855011
  68.7190475   1.7211578  23.4534550  68.2824402   2.1302288  22.7062855
  68.6105576   0.7811540  23.3090439  24.2293358  39.1981201  55.7500191
  24.7646179  38.4180756  55.8957367  23.5136318  38.8963890  55.1905899
  59.3609695   1.1582843   1.9780613  58.4669456   1.4369497   2.1763141
  59.3083420   0.2039656   1.9257339  11.2349119   1.6500361  88.7376556
  10.7203360   1.7070075  87.9325485  11.3227911   2.5571141  89.0304337
  15.2531147   0.7994159  25.5299244  14.5996971   0.9083244  26.2208786
  16.0703239   0.6280729  25.9979439  78.9244308  35.1357765  37.1923866
  78.7771454  36.0430641  37.4595413  79.5161133  34.7833862  37.8571892
   5.7586970  22.8182201  22.1420212   5.9034762  22.9233131  23.0823536
   4.8068547  22.8370571  22.0426579  75.7640228  56.2132187  37.4500694
  75.9465866  56.6609077  36.6239510  76.6230164  56.1032982  37.8578491
  12.4004517   8.2099981  14.7268028  11.8814306   8.2323532  15.5307617
  11.8045759   8.5271273  14.0481329  19.9392395   3.8599825  55.1495132
  20.5096912   3.4510627  54.4986687  19.8193436   3.1869729  55.8195267
  50.4284325  69.7928238  84.0152664  50.0541077  70.5952377  84.3789139
  50.9985085  70.0937271  83.3076553  65.3022766  12.4950514  50.0088272
  64.9104996  12.2646618  50.8512421  66.2292557  12.2782412  50.1084938
  19.5674782  16.3104820  67.3162460  19.8652649  15.6236696  66.7197189
  18.6483688  16.1012497  67.4826508  17.4820175   5.6018262  78.2919769
  18.3695889   5.8455558  78.0292130  17.0426025   6.4365401  78.4544449
  42.3143654  31.1958599  17.4250145  42.6579475  31.8712769  16.8402081
  43.0122566  31.0554657  18.0649147   9.2927952  45.0013885  67.4201660
  10.1901970  45.2463531  67.6457672   9.3674974  44.1132011  67.0712051
  22.9125938  29.1346130  13.9593821  23.1960526  28.7828102  13.1155109
  22.8996162  30.0831127  13.8312778   0.0360169  71.3817520  38.2838402
   0.7960330  70.8145752  38.4139061  -0.5672238  71.1386795  38.9861565
  11.1075935  13.7608442  55.5771904  11.6631241  12.9841251  55.5114098
  10.5007992  13.6843739  54.8408585  10.6426935  34.5216904  20.4290962
  11.4106703  34.9725571  20.0781517  10.7988663  33.5971870  20.2363873
  26.8512440  32.2866554  86.2199707  26.4849243  32.6523705  87.0251312
  27.7926369  32.2371902  86.3859940  74.0307465  59.9097137  20.2548237
  74.6710892  60.0993385  20.9405613  74.4177628  60.2734795  19.4585056
  64.1158600  11.4702387  78.2632904  64.1577301  11.6513758  77.3243179
  63.3695679  11.9833317  78.5731583  13.4736500  55.7203102  80.1026382
  13.2381792  56.4915848  80.6183090  14.4297400  55.6911125  80.1382980
  46.1675148  54.2172432   4.8566918  45.2503548  54.4770088   4.9437189
  46.5443535  54.8647728   4.2609324  72.0171204  24.8722572  23.7179279
  71.8908768  23.9290085  23.6150913  71.8727951  25.0329647  24.6504364
  23.1503773  30.9697208  76.5289459  23.9181385  31.3886623  76.9178696
  23.1249313  31.3021030  75.6316681  53.7609940  17.5281105  80.2544022
  53.3828087  18.2441502  79.7440186  53.4577560  17.6851578  81.1486130
  15.0548363  27.1078339  77.5846481  14.7377129  26.2149792  77.7205734
  15.6791277  27.2511578  78.2959518  80.3132248  54.9454308  57.0088425
  80.7638321  54.4619141  57.7012253  79.3968201  54.6809692  57.0894508
   2.4116757  66.7126083  65.3580627   2.4044859  67.6624374  65.2397308
   3.3364451  66.4921265  65.4695053  64.8921127  30.3725224  19.3332081
  64.7216492  30.0506229  18.4480209  64.3475418  29.8230381  19.8968945
  51.4039116  34.0610161  78.4147339  51.5238380  34.9555969  78.0960312
  52.2861214  33.6897278  78.4238739  82.6438828  62.9388161  87.6797867
  82.8737030  62.3371544  86.9716797  83.2423477  62.7110977  88.3912735
  63.5896568  33.7437973  17.4479427  63.8780441  32.9860344  16.9391575
  62.6356163  33.6690521  17.4691067  31.2786789  64.4497452   9.2855701
  31.6295376  63.5602379   9.3292990  30.4962406  64.3720169   8.7396927
   8.9111147  39.0873604  13.7191076   9.1049576  38.1676903  13.9003925
   7.9551058  39.1351051  13.7189159  16.6675987  46.7624664  66.5533829
  16.1806164  45.9458885  66.4425507  16.1188469  47.4270172  66.1368790
  75.8981705  21.2692165   4.6985922  75.9454575  22.2175827   4.8194060
  75.8046646  21.1525784   3.7531381  82.7321091   0.6680644  87.6888962
  82.0268784   0.3656654  87.1166763  82.2906113   0.9225808  88.4991684
  23.2332478  32.4021492  82.0983963  23.0486374  31.4951458  82.3423080
  23.7560730  32.7435951  82.8238602  74.2916870  56.3803101  68.0495911
  74.2481461  55.6156769  67.4754181  75.2159653  56.6291885  68.0473480
  84.7842560  31.3313656  43.6313896  85.6105957  31.2042618  44.0974731
  84.1138458  31.0364151  44.2476616   5.2462468   7.7108870  31.7349014
   5.9866514   8.2315493  31.4235458   4.8329725   8.2577753  32.4029961
  31.6031170  40.2220078  65.3475037  31.8142090  41.0064774  64.8412704
  31.6397076  40.5087700  66.2600098  70.0384521  30.6647415  86.9911423
  69.9480667  29.7263222  86.8255157  69.9077148  31.0727100  86.1351547
  63.8879814  39.5841331  59.4103470  63.9788399  39.5296936  60.3616676
  64.7401199  39.8961601  59.1058235  66.1136475  20.4826946  81.1834412
  66.7331467  19.9904556  81.7220917  65.2845764  20.4246712  81.6583099
  43.2087822  23.3131428  13.4529161  42.9812202  23.5765419  12.5612507
  42.5247421  23.7005329  13.9990406  29.1513901  24.3205833  17.8552742
  28.4716034  23.8132515  18.2988224  29.8424721  23.6846714  17.6701984
  61.3134918  40.6997871  59.0390511  61.1414604  39.8436279  58.6470909
  61.9441032  40.5214462  59.7367287  35.4651489  29.6056919   6.7372313
  34.8545036  28.8733139   6.8206787  36.0795822  29.3289642   6.0574327
  20.1947765   6.7874742   1.1858835  20.2010841   6.5816526   0.2510950
  19.3054104   7.0973244   1.3569138  78.7134857  38.5057335  52.2748260
  78.1229401  39.2576828  52.3202324  79.4229202  38.7927208  51.6998749
  28.7180882  12.8513813  18.4612637  29.2639599  12.0663395  18.4169197
  28.2428894  12.8599243  17.6303921  81.2122955  59.8187332  69.4144135
  80.5294037  60.2376785  68.8906021  80.7614746  59.5276833  70.2070541
  71.0978012   1.3204443  37.8109360  71.3445511   2.1393557  37.3811340
  71.9288025   0.8713026  37.9656677  17.3130951  61.2363815  66.9242477
  17.4511986  60.2940598  66.8283768  17.3870544  61.3947678  67.8653488
  83.7630005  34.6705322  34.2442894  84.3111267  33.9322777  34.5103111
  83.0730057  34.7074661  34.9066849  61.7221451  58.8970222  13.4157887
  61.0092506  58.3213844  13.1389265  61.8949966  59.4482956  12.6526041
  45.6706467  40.2390556  27.4936886  46.3729172  40.6146088  28.0247288
  45.9657021  39.3490448  27.3011894  42.8324318  57.5929527  30.0285702
  43.7845001  57.6313019  30.1198387  42.5038795  57.6339760  30.9266815
  63.6818008   0.0745910  47.9484138  63.3198700  -0.3103016  47.1502304
  63.2387085   0.9191988  48.0292778  78.1168671  60.0032425  35.7977943
  77.5314713  59.7293816  36.5038719  77.5368195  60.3914948  35.1427841
  71.4816055  30.6277237  17.4426937  71.3117599  31.0476074  16.5994358
  72.4077835  30.3884125  17.4088631  55.2903366  40.8218269  60.4682846
  55.2514305  41.2684135  61.3140259  54.5796089  40.1815758  60.5025978
   7.0870538  37.2241592  57.7303238   6.8373246  36.3003998  57.7072296
   7.2770715  37.3979225  58.6522408  14.8355350  16.5599689  71.2509232
  14.7076921  17.0599957  72.0570602  15.7504101  16.2805424  71.2849350
  81.8397141  71.3710251  55.4547539  82.6540375  71.5529556  54.9857063
  81.3161163  70.8610458  54.8366928  26.7197933   5.7877769  82.4422607
  27.3794956   5.3776798  83.0015869  25.8968735   5.6703143  82.9168549
  33.6720695  35.4252701  74.7405090  33.9485207  34.9502602  73.9568176
  32.8109360  35.0629654  74.9488754   5.6174603  47.2318153  83.1617203
   5.1685405  46.4968033  82.7440414   6.4173851  46.8498955  83.5229492
  28.9321365  70.5168381  62.6560211  28.1552982  70.8212051  62.1868553
  29.2016220  69.7275009  62.1863899  56.3126984  68.0653381   1.7130508
  55.9613304  67.1780243   1.7868812  55.6206055  68.6268311   2.0622737
  13.9051523  47.8115082  61.4140549  14.0295668  48.0735817  60.5018768
  13.9664698  46.8563881  61.3993416  20.1812878   5.8874974  34.2713661
  19.9754047   5.3803792  35.0566521  20.9728909   5.4778309  33.9224091
  56.6905899  15.8934422  83.8600693  57.1953964  15.1041594  83.6640244
  56.7153549  16.4012012  83.0490189  71.4819183  16.9793701  34.7619705
  71.1881485  17.2972870  35.6157036  70.9457321  17.4588013  34.1303978
  69.7899170  60.4579887   9.3102951  70.3444061  61.2187767   9.1371698
  69.0245667  60.8166847   9.7595196  18.4687805  18.4515266  47.3505287
  17.8583584  18.7623920  46.6819649  19.1417980  19.1307335  47.3947678
  59.6822357  48.8508377   3.5483935  59.6395874  49.5354538   4.2160106
  60.3312263  49.1685677   2.9206290   9.9491444  17.8365345  51.3359566
   9.4184504  18.6331501  51.3358498  10.8324757  18.1372337  51.5493546
  15.5173693  11.0044146  25.8452320  15.5456104  10.1508026  25.4130497
  16.2811489  11.4704590  25.5051193  54.0739632  49.2738838  33.3409386
  54.2661514  48.4242134  33.7376175  53.7054253  49.7937927  34.0551567
  68.5888214  33.1829414  50.2401428  68.7802887  33.5871849  51.0864067
  67.7308197  33.5308342  49.9971733  34.0816841  59.7038918   7.7928834
  34.2378807  58.9239426   7.2604208  33.9374809  60.4037552   7.1559935
  68.1159592  64.7696381  18.5254993  67.2997818  65.2227020  18.3137741
  68.7783432  65.4605942  18.5334644  10.2877560  24.4394684  12.9741955
   9.7638950  23.7654400  12.5411959  10.2393198  25.1941853  12.3874359
  56.6215935  24.1392250  86.2353439  56.7746277  23.1979961  86.3184052
  57.4750786  24.5004406  85.9959335  30.6076431   9.2674303  40.3946991
  30.2255650  10.0429688  40.8055382  31.0789776   9.6070309  39.6339455
  71.0060577  42.5594826  40.1071243  71.1989059  41.8880730  39.4527168
  71.4316483  42.2455559  40.9049644  35.9765358  23.5065022  78.8043213
  36.1553841  24.3780670  78.4513016  35.5491142  23.0401897  78.0859222
  84.1591339  21.6971836  83.5650177  83.5077438  21.7460289  84.2646790
  84.3600388  22.6104717  83.3606262  23.1079731  20.7957649  12.2062521
  22.4581089  20.1129665  12.0398350  22.6645050  21.4113674  12.7898617
  39.1886520  49.2608223  81.1739578  39.5363579  48.4579391  80.7857437
  39.8549576  49.9232941  80.9912033  24.0228901  54.7443848  71.8268356
  24.8623428  55.1987953  71.7557144  23.4225464  55.4034462  72.1753387
  52.8653259  36.4206009  71.4494019  52.0001640  36.0158844  71.5121155
  52.6892204  37.3613548  71.4352798  76.3208542  15.4184065  33.7424812
  76.5578461  15.3757315  32.8160629  77.0021362  15.9612417  34.1392288
  29.4639969  52.9595871   8.2123137  29.6629105  52.2672195   8.8426228
  28.9335403  53.5862656   8.7043724  77.9319916  13.8635139   5.7927122
  76.9781952  13.9355545   5.8289828  78.0948257  13.1442823   5.1824474
  75.0879135  51.9256668  14.3727789  74.5341110  51.1460304  14.3315983
  74.5777130  52.5552254  14.8822765  68.4289932  51.4577866  60.5935287
  67.4819336  51.4879837  60.4579048  68.5929031  50.5824699  60.9445076
  40.7967682  66.8375168  54.6050262  40.5726624  65.9284363  54.4060936
  41.2221184  67.1588287  53.8100014  25.8865223  40.1028786  14.7152472
  26.4017086  39.4215393  15.1472082  25.5637016  40.6494675  15.4316683
   6.6282144  51.8527679  45.1786766   6.7134719  50.9335022  45.4314880
   6.0650997  52.2350388  45.8517342  82.1586075  18.0058670  52.8857040
  83.0763474  17.9196854  52.6277199  82.1765060  18.5920143  53.6422386
  42.7731705  51.6002884  12.0623140  41.8735962  51.6069298  12.3893547
  42.6860619  51.7368813  11.1189232  64.3727493  11.0261812   5.7626543
  64.3817444  10.0758371   5.8766589  63.8807716  11.3531199   6.5158448
  36.7617149  48.5841484  53.9555969  36.4620399  47.6753426  53.9779663
  36.0281639  49.0689926  53.5773621  65.1245422  34.5518837  23.7116261
  64.6031418  35.3299370  23.9091072  64.7136612  34.1799583  22.9311943
   6.1349382  16.2197342  23.7490444   6.3968096  15.3850050  23.3606091
   5.6239595  16.6524029  23.0649891  57.4874496  46.0789452  80.7110443
  56.7177124  45.5489464  80.9180145  57.4961052  46.1255989  79.7550201
  78.6664200  36.3265343  70.9861755  78.9128647  37.0685081  70.4339294
  79.3282700  36.3123016  71.6775436  74.6666489  15.2680073  60.6300850
  74.7813263  14.3385906  60.4319305  75.1418686  15.3983583  61.4506989
  56.1666794  64.0001526  20.3351021  55.8538132  63.4707260  19.6015778
  56.6467896  63.3835869  20.8878841   3.9212575  60.1865463  85.9201813
   4.4809809  60.9614182  85.9703751   3.0814087  60.4741478  86.2781982
  21.4927750  17.2420444  78.3451538  21.3309822  16.3043652  78.4491348
  21.4666157  17.3861561  77.3992233   5.1243720  29.7278194  80.5402908
   5.4071431  30.1573257  79.7329559   4.3126979  29.2800312  80.3017502
  22.8781147  48.1677666  26.1718178  22.2363014  47.7153130  26.7191677
  23.3825321  47.4644279  25.7630291  67.7913437  21.8822861  70.0439301
  67.6945801  22.7262039  69.6027145  67.0770950  21.3475304  69.6973419
  66.8726349  30.7860165  83.9034348  66.8889542  30.5782547  84.8376694
  66.0016479  31.1542854  83.7551422  36.1591454  19.8632221  86.0458527
  35.3546181  20.3645744  85.9131470  36.8562088  20.5188770  86.0245209
  50.1567993  46.9899712  11.6786203  50.3889885  46.6779175  12.5532303
  50.9974518  47.1668167  11.2564096  40.7498436  48.0157547  67.1111603
  40.2514572  47.5131187  66.4667969  40.9193573  48.8542709  66.6817551
  23.5278473  51.0748405  31.3535099  23.3509598  51.3973846  30.4698219
  24.4762878  51.1571198  31.4531288  84.3420868  58.4407501  42.4868889
  83.7257538  57.7566490  42.7483521  84.8922577  58.5751457  43.2585640
  14.0061960   6.0984044  36.3349838  13.3475513   6.2380800  35.6546097
  13.4993153   5.8916411  37.1201935  35.2199554  69.7698441  52.5583458
  35.0424042  69.5035172  53.4604454  36.1650887  69.6572189  52.4569778
  33.3590393  21.5494499  28.7615757  33.8406715  21.5686722  27.9345970
  33.1516647  20.6247807  28.8965340  35.0800591  58.0060692  15.9166374
  34.2919579  57.5532379  15.6165104  34.9587822  58.9119453  15.6321898
   1.2558981  16.0176411  66.5437469   1.1487422  16.0448570  67.4945374
   2.0305192  16.5538998  66.3745728  64.7290268  52.1230698  61.2746696
  64.2451935  52.0050888  62.0921173  65.2467422  51.3229523  61.1851578
  58.0943069  13.4704018  83.3514481  57.7979622  13.3152876  82.4545898
  59.0309486  13.6486187  83.2667542  41.5779991  56.1197205  13.8272066
  41.7911606  57.0297661  14.0336266  42.4237556  55.7118835  13.6412086
  55.3501167  43.7032127  76.9755402  54.8197098  42.9082260  77.0293503
  55.9964256  43.5143356  76.2952118  67.9742203  49.0505714  24.2082500
  67.4895706  49.8593445  24.0432301  67.6806717  48.4511986  23.5220909
  58.2766838  26.7710781  60.5994225  57.4574013  27.2630978  60.5453224
  58.3332787  26.5001087  61.5157204  75.2570343  35.3734932  30.7375450
  75.8482971  35.3164711  31.4881401  75.7797394  35.0659218  29.9969959
  60.3370438  61.3225174  10.1513042  61.1741333  60.8698006  10.2540703
  60.0823135  61.5602913  11.0428238  57.6373940  51.2700233  11.6772842
  56.7747498  51.1764374  11.2731552  58.2382812  50.8559837  11.0578213
  41.8654900  10.8911781  84.0007401  41.0930634  11.4426117  83.8761902
  41.5804939  10.0164890  83.7362976  61.8776360  37.1145477  69.1691360
  61.2118530  36.4371147  69.2876816  62.6990356  36.6306572  69.0832062
  75.5547714  20.4206448  22.0952930  75.3199158  20.8971176  22.8915634
  74.9555359  19.6744404  22.0771484  60.2830696  11.7401562  80.3879166
  60.5723648  12.1093245  81.2223358  59.3927803  12.0729771  80.2745819
  14.7627306  20.8621464  20.4049015  15.4172869  20.2934284  19.9995041
  14.9146090  21.7210751  20.0106850   3.2383764  11.3748865  22.5635242
   3.4711683  11.2402039  23.4821644   3.0533931  12.3117666  22.4981918
   8.9306459  13.2177076  82.7026291   9.4058504  13.9685240  82.3466949
   9.0253029  12.5367308  82.0366364  85.7083740  70.7515106  40.7565384
  86.3408585  71.4226837  41.0128822  86.1314774  69.9238968  40.9851646
  61.8299713  54.3334198   3.6992373  62.4427490  53.9372940   3.0797076
  61.1570473  53.6655083   3.8307669  11.0559702  26.1402893  56.4900742
  11.2835064  27.0198498  56.1886902  11.0397139  25.6106873  55.6928978
  33.3312263  24.0855179  12.5619259  32.6481972  24.7502213  12.6506424
  33.9070816  24.4238605  11.8762531  41.3797607  42.1207657   1.8937037
  40.5391235  42.2427177   1.4524668  41.4279518  42.8422585   2.5208859
   4.2247787  64.6990509  82.2286377   5.0569944  64.5788727  81.7712479
   3.6161108  64.1153870  81.7757645  60.6437378  28.4074917  61.1612434
  60.0845642  27.9201298  60.5562363  60.5475883  29.3212776  60.8929482
  29.3039112  20.9146690  27.3726521  29.5169563  20.2890759  26.6802082
  28.3733273  20.7724495  27.5459137   1.6236533  59.4687881  81.5280762
   1.8520471  60.2101440  82.0888443   1.4859787  58.7422295  82.1358490
  66.3670425   7.8718987  23.2649593  65.7004700   8.5548000  23.1904030
  65.8687820   7.0582643  23.3421822  15.1631155   4.0991883  55.9431076
  16.0218697   4.5172925  55.8801689  14.9798241   3.7935898  55.0547142
  39.2832146   3.8275120  19.5277500  38.5577087   3.8741884  18.9050999
  39.1798782   2.9759724  19.9525242  62.7354088  50.0441971  39.9434662
  62.0789948  49.7517395  40.5757828  62.4453430  49.6753540  39.1091728
  78.4064713  10.0136623  36.0349083  78.4490509  10.7384453  36.6586952
  77.8276443   9.3741703  36.4499207  61.5846062  14.0423841  30.9345303
  60.6725273  14.3315077  30.9619560  61.9527702  14.4834757  30.1689434
  66.3448181  25.8495674  88.6561661  66.3763504  26.2017136  87.7666550
  65.7338181  26.4227600  89.1191635  85.1693954  59.9435425  12.5010881
  84.6090546  59.1697769  12.5605307  85.4537201  60.1030731  13.4010572
  66.9244385  36.2855988  29.5809040  66.8744659  35.3502083  29.7778282
  66.4986115  36.7102242  30.3256149  56.6702995  33.4490929  40.1072426
  55.8120346  33.2460594  40.4792480  56.4791336  33.7749519  39.2277527
  70.8051987  14.5877714   4.3962102  71.2656937  15.2686586   3.9057293
  70.3582916  14.0706024   3.7261071  29.9809361  46.6837921  82.3376617
  29.2600060  46.4214554  81.7652359  30.2377853  45.8771248  82.7843704
  27.2231331  58.4806290  62.1070480  27.0951099  57.8399696  62.8066216
  28.1532803  58.7020149  62.1522980  78.3319778  70.2306213  59.4136772
  78.2291031  70.4358673  60.3429375  78.7154083  69.3536377  59.4031143
   8.0353489  13.3330402  26.3824692   7.1180215  13.0835857  26.2706013
   8.0173874  14.2876549  26.4504471   6.2770219   0.5191361  60.1394539
   6.7867312   1.2244259  59.7407112   6.9314551  -0.0495335  60.5451164
  62.2301331  15.0226097  25.3121700  61.9569893  14.2623062  24.7987862
  62.9283638  14.6917772  25.8771992  63.6147156  30.8353786  47.6766357
  63.8047523  30.4088345  46.8410645  64.2400131  31.5585556  47.7240562
  12.3708591  59.4670677  36.8407555  12.2859344  58.5601845  36.5465050
  13.3096752  59.6475029  36.7928238  59.4786797   9.0168629  60.1763649
  60.3170319   8.8762856  59.7363205  59.3514862   9.9652634  60.1520615
  56.1359978  61.6472702   2.3400722  56.3950615  62.4197693   1.8377159
  55.1881409  61.7341957   2.4413009  16.2958794  21.8054733  83.8961105
  15.5754061  21.9664936  83.2868347  16.0547276  22.2900066  84.6856079
  38.5654030  39.1660309  14.7286882  38.9754219  39.9966927  14.4876013
  39.0489388  38.5068512  14.2307892  76.1116714   3.5754669  61.9641304
  75.9023514   4.4485059  61.6321373  75.4740753   3.4254270  62.6621208
  18.3051414  69.4450836  64.7426529  18.4608269  68.5650101  64.3999405
  17.9120064  69.9209366  64.0110550  79.9496841  26.7987347   3.4184194
  79.5392303  27.5552921   3.8371983  80.4048080  26.3486652   4.1301322
   3.9947789  16.8397236  72.7279968   3.4761362  16.1662216  72.2879562
   4.5285807  16.3568230  73.3589478  72.8091965  10.9167871  54.4107437
  72.8851776  11.8651381  54.5160522  72.0408020  10.7986116  53.8523293
  49.1637459  55.5077248  65.0783539  48.3123207  55.2234383  64.7459564
  48.9535294  56.0924377  65.8064651  50.7489510  67.1854019  31.2183685
  50.4709778  68.0224991  30.8465748  50.7732048  67.3390579  32.1628418
  57.3184624  70.0249329  76.0666580  57.1206474  70.6881790  75.4054413
  56.5263939  69.9766922  76.6019516  38.3605347  41.1214333  18.1503601
  37.4798622  40.8016319  17.9544735  38.2186089  41.9591866  18.5911083
  17.2627850  42.9194832  18.9649715  18.0755196  43.2127571  19.3768978
  17.3849964  41.9787788  18.8370266   3.7884433  53.2684708  19.4271069
   3.6720080  52.6849174  18.6773472   3.9119086  52.6799088  20.1718063
  34.4637337   2.8815336  61.4821472  34.0238075   3.6969926  61.2418900
  34.1347122   2.2379913  60.8545876  39.7030296  49.7360802   8.8200636
  39.6224632  49.2195015   8.0182619  40.2849197  49.2212906   9.3791914
  78.1545639   2.8865373  68.8523712  78.5799026   2.1000433  69.1940460
  77.4457321   2.5551698  68.3010178  53.9631004  22.4205513  65.3671722
  53.6782227  23.0725613  64.7268906  53.8597870  22.8551369  66.2137527
  67.2460632  15.7269535  58.7311897  66.7711945  16.5531693  58.8211823
  67.6926804  15.6147642  59.5703430  60.2599373  47.7687836  71.5364532
  60.1246414  47.3855324  70.6698227  61.1837692  47.6074371  71.7281189
   7.4936175   1.9763776  34.7260094   6.9160671   2.7020915  34.9626656
   7.1224198   1.6296219  33.9147110  72.5791245  50.9711456  39.6093559
  71.7440033  50.5033913  39.6124344  73.1753693  50.3999367  40.0935478
  18.0519753   3.9264445  74.3857269  18.7556744   3.7657511  75.0143967
  17.6580582   4.7503257  74.6725769   8.0774870  22.7062149  16.6442432
   7.9466872  22.2477112  15.8142462   8.8769112  23.2160110  16.5128613
  55.5098839  39.3481674  22.8126965  55.8838310  40.2277489  22.7603817
  55.3960609  39.1916656  23.7501316  69.3790588  28.8620110  59.1740036
  69.7512436  28.6068153  60.0181503  69.2278900  29.8038254  59.2537880
  13.1055346  15.1261759  88.0875931  12.7781610  15.6672087  87.3690186
  12.3645477  15.0529499  88.6890945  39.4049911  53.5118942  76.4766769
  39.7595139  52.8176079  77.0321198  38.7717056  53.9644394  77.0337906
  60.7909126  23.4449062  63.6356125  61.5699921  22.9724102  63.3423309
  60.3669167  22.8481903  64.2523727  51.4802361  28.3994846  61.1506882
  50.5434303  28.2578201  61.0144501  51.5285339  29.2082291  61.6604233
  11.9705191   2.7826784  20.3875656  11.6674919   2.2060163  19.6862335
  12.4444065   3.4808421  19.9356480  33.5999870  68.8568954   4.6085119
  34.3799934  68.6557236   4.0914521  33.5389214  68.1392670   5.2389970
   6.4582787  40.0380249  67.1034317   7.2933650  40.5035400  67.0569534
   6.0617442  40.3385353  67.9211655   7.4666266  16.4409275  57.5029068
   7.3705978  15.6173954  57.9812431   7.4068813  16.1907558  56.5809135
  45.9777374  53.9998932  29.0732002  46.6980057  54.1741219  29.6790752
  45.4349060  54.7872467  29.1137123  50.2013931  26.3948174  85.2459641
  50.3029556  25.5376339  85.6596680  50.2082520  26.2098312  84.3068314
  47.9088364  37.1613083  13.8098679  47.1260109  37.0000992  13.2831545
  47.6423111  37.8354912  14.4349079  34.6077461  15.0962276  73.7628250
  35.4283485  14.9628811  74.2372360  34.3605423  15.9994602  73.9610519
  59.2142944  49.0256767  64.7293625  58.6866913  49.1289673  65.5213242
  58.9326973  48.1880417  64.3615341  42.3456535  57.4638748  49.4688950
  43.2613869  57.7425461  49.4656372  41.8689384  58.2032928  49.0917511
  51.6226463  68.4115295  40.3574638  51.1453972  67.9157028  41.0227623
  51.6799965  67.8160629  39.6102257  12.7793512  54.0715408  35.2938499
  12.7288628  53.6211891  36.1369781  11.8889551  54.0278206  34.9452591
  22.8125858  56.0660210  85.1407013  22.0745049  56.0870132  84.5315781
  22.7826710  56.9146042  85.5825653  10.3838682   8.9968328  13.0416231
   9.9688778   8.1793594  13.3168545  10.7996769   8.7848310  12.2059259
  86.1393204  39.1705742  45.8436623  86.4752197  39.2333565  46.7377892
  86.8909378  39.3822289  45.2900314  21.2688179  61.8312225   1.5565854
  21.5514946  62.6538544   1.1570779  21.3133659  61.9947395   2.4986627
  66.4584351  16.7840137   1.7342441  66.3765411  16.1146336   2.4135492
  66.8175735  17.5452118   2.1901238   5.8607783  42.5182457  63.0621338
   5.5780067  42.4579735  62.1496429   6.0980725  41.6217003  63.2990608
  60.6750832  30.5957146  51.0618324  60.0836105  29.8685284  51.2557182
  61.5512161  30.2157612  51.1270866  60.0606956  36.2226448  83.6724091
  59.4225540  36.9345856  83.7187347  59.7556534  35.6742249  82.9496307
  70.9989395  48.8314438  14.1907291  70.9068909  48.0775528  13.6081400
  70.2799072  48.7401810  14.8159504  76.4094238  34.0325546  13.3569803
  75.9185638  34.1959000  14.1623383  77.1279373  34.6644936  13.3820715
  25.5230198  55.0482597  87.4666061  25.3047504  55.1550484  88.3924484
  26.3839645  54.6299400  87.4701996  42.3027267  61.4292603  42.8507042
  41.3611526  61.5659904  42.7459564  42.6285095  62.2604675  43.1959457
  63.4158516  16.4841423  21.4372196  62.5785828  16.0529289  21.6082859
  63.9487839  16.2865715  22.2074013  54.2957077  32.7510834  41.7191467
  54.2581100  32.2268410  42.5191383  53.4310684  32.6450386  41.3224335
   4.5085797  27.7282295  59.2990913   4.3709288  27.0967999  58.5929909
   5.4510818  27.8951225  59.2907944  82.5974960   4.6018295   0.2286686
  83.4141846   4.1340690   0.0541596  82.8532867   5.3248892   0.8013709
  46.0561104  64.9578094  78.0655060  45.5489655  65.6170883  77.5918045
  45.8054314  65.0755768  78.9817581  64.1787872  48.4777298  10.0700932
  63.8463707  48.1264610  10.8961315  64.4327087  49.3771019  10.2771864
  42.9497910  19.9122429  83.2329025  42.5989037  20.4707317  83.9265900
  42.5931168  19.0441055  83.4209290  79.8842010  27.2083530  61.6380539
  79.3936615  26.4449043  61.3335075  79.8548660  27.8207340  60.9029617
  74.0643082  27.4468765  25.9850864  73.4681473  28.0539703  26.4235573
  74.4406281  26.9262581  26.6947155  31.1952724  21.9490833  20.8477650
  31.3958626  21.1327019  21.3054943  30.7593021  22.4913502  21.5051136
  10.9817295   0.4526694  80.3292770  10.7812805   0.8687970  79.4908905
  11.7220316   0.9522339  80.6736832  15.3250914  59.7980423  50.1419792
  14.9524126  59.5644226  49.2918243  16.1538467  59.3205643  50.1795616
  57.5339355  54.3468552  88.1670074  56.8309708  53.7293968  88.3690491
  58.2726517  53.7938766  87.9125519  51.4157677  26.1981182  63.5540504
  51.4281654  26.9579487  64.1360626  50.6288033  25.7154808  63.8070030
   8.7699890  60.5719185  23.1452980   8.7126770  61.0139618  23.9923782
   8.5737076  59.6554375  23.3396282  32.3544998  17.2119484  16.8422356
  32.4064026  17.4187660  17.7753830  32.3209572  18.0650101  16.4093475
  65.6191864  32.3125877  53.8199081  65.4963379  31.7361012  54.5740967
  65.0208282  31.9695034  53.1562119  86.7078094  16.0700817  37.3989830
  87.3255157  15.8460808  36.7029266  85.8988113  15.6202917  37.1551704
  64.8471069   5.5735440   5.7836452  65.4277954   4.9688749   5.3216925
  65.0462341   5.4363661   6.7098002  64.3769836  69.0271072  55.6026459
  63.5728340  69.0331497  56.1218147  64.2687683  69.7503357  54.9850235
  54.1472588  38.1035957  84.9475174  53.4158897  37.9175682  85.5363464
  54.1791306  39.0590668  84.8996201  21.1994019  10.4773693   7.2548537
  21.3421516  10.8884487   8.1074190  20.2821598  10.2041845   7.2712479
  73.1255188  55.4469490   1.1275549  72.4581146  56.0652504   0.8300501
  73.9142151  55.6955376   0.6454874  34.6816216  44.4818192  53.6421432
  35.0192375  44.9892654  52.9040718  34.7962456  45.0555992  54.3996849
  86.4996262   2.8629141  75.3428192  87.4240189   2.9094913  75.5868759
  86.1156540   2.2542391  75.9739380  70.2925110  68.8626404   2.7243612
  70.8379440  69.5099716   3.1712387  70.7773285  68.6506271   1.9267159
  75.2764130  44.3016014  25.7583218  75.2150116  43.3487053  25.6915970
  74.6584625  44.5334663  26.4515781  37.7891045   6.3043237  11.7122192
  38.3342247   5.8736610  12.3707066  38.0684319   7.2196579  11.7314625
  17.1775246  11.1077461   4.8127651  17.5465126  10.2337580   4.6853895
  17.4534874  11.5993128   4.0391765  68.8113708  39.4764977  41.1932030
  68.8138199  38.6195030  40.7668419  68.0875778  39.9474220  40.7801819
  29.6333427  67.5629120  55.1546631  30.3221321  67.0077744  54.7891197
  30.0616837  68.4045715  55.3107643  26.9818649  22.6864147  19.1295986
  27.4617233  21.8751545  18.9627934  26.2118988  22.4112530  19.6272621
   3.4228458  47.9242134  70.0735397   3.2699163  47.7898407  71.0088425
   4.0426111  47.2362747  69.8309250  43.1754646  70.9292984  77.7642746
  43.3849182  70.4165268  76.9836121  42.3703766  70.5355988  78.1005325
  55.8649788  21.7795391  70.2540817  56.4517441  22.2465668  69.6592560
  55.5465431  22.4535255  70.8545609  60.9517899  31.6537666  47.5424995
  60.5595131  32.3912086  48.0099716  61.8610916  31.6373253  47.8410492
  35.0542641  59.2665863  28.3716145  34.5206833  60.0137367  28.6423359
  34.6026421  58.5052528  28.7358150  45.8842163  65.1453552  31.9424324
  45.6561432  64.2158890  31.9251785  46.8085365  65.1697998  31.6949120
  86.2784882   7.5821986   3.9249442  85.8687210   7.6724958   3.0646129
  85.5502243   7.6352515   4.5438552  54.2650337  30.4064445  75.2381821
  53.5073509  29.8348732  75.1138763  54.2308693  31.0136051  74.4989853
   7.7733059  24.9595261  66.3441162   7.6542439  25.3784504  67.1964951
   6.9108386  24.6042290  66.1293030  26.5638523  43.4198418   2.1209893
  26.2278347  44.1884422   1.6599225  25.8264656  42.8097763   2.1386449
   2.5241220  55.7081261   3.3941758   2.4467781  56.6472893   3.2261648
   1.6198225  55.3974533   3.4383957  49.2273979  42.1652794  89.0741425
  49.3593102  42.8651543  88.4346085  48.2934074  41.9632072  89.0188446
  58.1775398  33.1014938  13.7251511  58.6008911  33.6393929  14.3942318
  58.0771065  33.6874657  12.9749641  30.8628616  49.2058182  64.1027832
  31.3369713  48.6600494  64.7301559  30.3479347  49.8027077  64.6457443
  83.4216690  64.0822067  83.1943665  83.0714340  63.2484360  83.5080338
  84.1786118  63.8387337  82.6614532  50.7666283  50.5731850  68.5621338
  51.4579391  50.5579224  69.2240143  50.9124489  51.3884659  68.0822525
  21.4413109  54.2901535  61.4933777  20.7479630  53.6460609  61.3497047
  21.1799526  55.0450592  60.9660835   7.7975197  21.3020744  69.7823181
   8.2968159  21.7297115  69.0865707   7.1226182  21.9383965  70.0186081
  74.8682480  54.0919800  24.2063408  73.9805603  53.7422676  24.1292286
  74.7500839  54.9649010  24.5808735  14.1394777   1.5053630  50.2171211
  14.6609468   0.9308864  50.7777252  13.7563457   0.9195423  49.5642357
  60.0678596   9.3638315  64.7789459  60.0001945   9.2922478  65.7310638
  59.8464928   8.4900990  64.4567337  84.7536621  62.0127945  61.5784111
  84.4933548  61.9191208  60.6620598  85.2567368  62.8267746  61.6024857
   5.5524583  65.3019943  31.8520031   5.9616313  65.9860153  32.3820267
   6.2878771  64.8152771  31.4798546  74.7649384  10.9721880  30.5397129
  74.5057907  10.1532249  30.1173706  74.7993546  11.6092377  29.8261185
  30.4999962  42.3772659  75.3611908  31.3798313  42.2074318  75.0246201
  29.9634838  42.4998207  74.5780106  28.4796047   6.4245286  26.1655998
  27.9296474   6.8909554  26.7950630  28.1749058   5.5180583  26.2068577
  58.8771935  14.8207464  76.9602280  59.1276741  14.4652281  77.8129272
  59.5199814  14.4574499  76.3510742  57.0300331  69.0297623  49.6050606
  57.4810638  68.4164505  50.1852798  57.6363831  69.1596451  48.8758812
  69.5313492  67.4816132  15.7233210  69.0121613  68.2736282  15.8625593
  69.7468262  67.1783524  16.6052685  10.7774525  61.6539688  58.9390221
  10.0239038  62.2431526  58.9745216  11.4165993  62.0464668  59.5337181
  73.6814346  59.2277870  81.7395020  73.7796402  60.1380768  81.4602890
  73.8215485  59.2511673  82.6861038   9.3459320  39.2800751   2.5220885
   8.7239590  39.5755081   1.8571824   9.6624374  38.4374619   2.1964269
  41.9113617  67.8382568  31.0645275  41.1981010  67.2230072  30.8943672
  41.6681137  68.6269608  30.5797482  31.7209587  44.5310402   7.3529882
  32.6726227  44.5679436   7.4489455  31.5004883  43.6118660   7.5038018
  64.4329910  63.2675819  71.2570267  64.7576828  63.9373894  71.8588333
  64.3633270  63.7161980  70.4143448  27.4294796  27.2016258  22.0438156
  28.3064270  27.0500507  22.3962612  27.2875080  26.4768639  21.4348831
   8.8848181  25.2971859   1.3729246   8.4386787  25.3572998   2.2176600
   9.5777550  25.9558182   1.4206237  20.7759743  55.9995193  21.0811214
  21.0578957  56.3932037  20.2554321  21.4064789  56.3192101  21.7264862
  76.2510223  31.4652233   1.6899658  76.8224487  31.2706108   0.9471129
  75.4813080  30.9134350   1.5510526   7.6143522  54.9751472  86.8893890
   7.9449515  55.8706017  86.8179855   8.2153912  54.5457611  87.4981613
  65.7793579  43.3561745  44.1168709  65.1481705  44.0594597  44.2692604
  66.3741684  43.4018135  44.8654404  45.3974304  67.2587585  13.4590197
  44.4527740  67.1239471  13.5343752  45.5044785  67.7560272  12.6481609
  27.8281002  56.3829117  26.6287060  27.1897278  55.6739197  26.5509834
  28.4465485  56.0767136  27.2920265  36.3454933  21.2035389  22.4870720
  36.1611938  20.2725296  22.3626194  37.2030716  21.2232494  22.9118118
  81.6381226  59.0933876  18.3867397  81.0899506  59.1357880  17.6031952
  81.5170517  59.9433289  18.8100281  71.9232407  -0.2421842  32.3329010
  71.2836838   0.0260594  32.9926338  72.0511475   0.5373979  31.7924175
   4.1454329   1.1864226  57.7214050   4.5041995   1.3819495  58.5870209
   3.3345006   0.7103395  57.9001961   2.1228766  62.3341522  40.2462082
   2.2373517  63.2717056  40.4015236   1.1741384  62.2093887  40.2225075
  29.8326397  66.4474487   1.9954538  30.0365429  65.7157211   2.5778928
  28.9643745  66.7396393   2.2728884  44.0384979   4.7479477  44.7489433
  43.9096069   5.6661658  44.5112572  44.5404625   4.7795444  45.5633545
  14.4402809  47.5423660  75.8501968  14.4799013  47.0025330  75.0607376
  14.4688168  48.4426804  75.5263901  55.5857925  36.9689407  50.9982300
  56.5301399  36.9816933  51.1540489  55.3119316  36.0894928  51.2586212
  13.4904976  48.9079094  56.9851913  14.2099161  49.0975914  57.5874252
  12.8262262  48.4867172  57.5306931  34.0198860   3.1981845  49.0421257
  33.2816963   3.1986406  49.6514778  34.2675438   4.1195869  48.9652214
  10.7578259  19.2937508   2.7404783  11.4414139  18.7604713   3.1461291
  11.2343578  19.9861927   2.2825780   0.3758789  67.4551697  29.2345886
   0.5484948  66.5213013  29.3542747  -0.4900631  67.5899429  29.6195717
  68.0805283  69.2863922  57.9363022  67.2539902  68.8452454  58.1324120
  67.8423004  70.2080917  57.8365517  66.7564697   0.2786556  57.6802101
  65.9266510  -0.1084064  57.9591560  66.5704117   1.2144446  57.6033173
  31.1084747  57.1868401  30.8438396  30.6303902  57.5040779  30.0776653
  30.4272861  56.8695450  31.4367466  51.1427422   4.1271791  62.9045105
  50.9803810   5.0012550  63.2592812  50.3830070   3.9487238  62.3502655
  61.5241508  47.7465324  41.9437370  61.1173134  46.9045410  41.7393723
  62.4162598  47.5232964  42.2093315   8.9206715   4.5510955  37.3340836
   8.0784807   4.1496186  37.5480042   8.7204876   5.1660609  36.6284065
  71.0298767  34.6243515   2.1551082  71.7054367  35.2078934   2.5005562
  71.4070358  34.2720718   1.3489562  47.7283134  67.8579712  19.3668270
  47.8745499  67.1940079  20.0406227  48.3418427  67.6296921  18.6684685
  71.1805344  51.8769226  33.7055550  71.9743652  52.1839828  33.2676392
  70.4972305  52.4802780  33.4134941  58.1419525  32.2689629  76.7114258
  58.5018539  31.4496765  77.0512390  57.7470360  32.0277710  75.8735123
  83.7287903   4.3476315  71.1370621  84.1030426   4.2203593  72.0088272
  84.3761444   4.8791614  70.6737671  52.7510223  11.5910149  67.7647705
  52.7247009  10.7433710  68.2086563  52.9536285  12.2185354  68.4585953
   9.2059307  51.5099716   4.5340881   9.3521700  52.3986778   4.8582001
   9.9882622  51.3108444   4.0197573  61.1843529  66.7819748  48.0549774
  60.7007866  67.1470795  48.7959862  61.1751480  65.8367004  48.2053299
  55.4322624  69.6722107  77.8283005  55.1755600  70.1987762  78.5853043
  54.7268639  69.0325089  77.7312088   0.9890811  54.8869514  28.0647774
   0.2955101  54.3833160  28.4908524   0.6691895  55.0289803  27.1738625
  78.6757355  10.2466736  69.4165878  79.5737228  10.0552664  69.1459961
  78.2852249   9.3873682  69.5757294  52.7015114   4.4974165  39.3045578
  52.1802521   3.9127607  39.8547401  53.5156670   4.6225085  39.7921448
  36.3335190  32.2601738  83.4322357  35.4844856  31.9430065  83.1243820
  36.8648033  31.4695244  83.5262756  63.0325394  60.3778000  86.8875809
  63.5831680  61.0966301  86.5772247  63.2860413  59.6306725  86.3455734
  59.2655373  51.6273766  82.8808136  59.6112175  50.9670258  82.2802582
  58.5325966  51.1935730  83.3176727  17.0203972  62.1215324  52.9652290
  17.8774700  61.7541161  52.7492142  17.1997204  62.7556610  53.6594582
  10.8540020  43.1099129  42.7210426  10.9972239  42.8447075  43.6295509
  11.0487909  44.0470352  42.7115479  62.1891479  53.4482727  37.5342293
  61.2758064  53.4420395  37.8205910  62.1411438  53.3995132  36.5794792
  67.8201447   7.3705115  19.3337116  68.0524216   6.4463220  19.4240074
  68.3976898   7.8237414  19.9479275  57.4783287  70.1870422  81.0126266
  58.1192322  69.9236374  80.3522568  56.8016472  70.6498032  80.5184860
  81.4185638   2.0833693  50.1443558  80.8479156   2.6822052  49.6626968
  81.0818329   1.2119486  49.9358521  51.3339272  46.8616066   2.9675727
  51.0749817  46.5148163   2.1138096  51.0868492  47.7858200   2.9356322
  57.5005112   5.1552634  30.2637234  57.7165604   4.7415423  29.4280262
  57.2583656   4.4271297  30.8359280  27.6582260  64.4186172  80.4827194
  26.7550468  64.7356339  80.4823685  27.9371872  64.4891815  79.5697937
  41.0810661   8.4117947  41.4580040  41.8986092   8.5420866  41.9385033
  41.1983757   8.9066591  40.6470909  34.8187141  11.2243023   8.9921455
  34.9634781  10.4339447   9.5123463  34.9257469  11.9436197   9.6145267
  47.6589355  45.2534637  56.7181129  47.6521454  45.7573776  55.9043236
  48.4002380  44.6553726  56.6232986   9.0139780   0.7848891  14.6999063
   8.8036413  -0.1358441  14.5442123   9.8676891   0.9089924  14.2851686
  72.9110107   5.8497777  13.7002230  72.1871796   6.4436493  13.5011930
  72.4900818   5.0767231  14.0763006  10.3477468  53.6743927  67.9903564
   9.4211531  53.8029366  68.1931686  10.6080589  54.4779015  67.5399780
  83.5225525  54.4960785   7.8761253  83.5306625  55.3638649   8.2799978
  83.1848145  53.9170380   8.5594101  36.5852585  33.7507019  74.1304169
  37.1473579  34.3777847  73.6753922  35.6945724  34.0426865  73.9363708
  73.5817184  58.8638611  60.6756516  73.4022827  58.8981056  59.7360458
  72.7702560  58.5352058  61.0626335   3.2827435  57.0802498  39.1946945
   3.0698290  56.1471062  39.2066307   4.2381382  57.1072769  39.1425171
  29.6613178  28.1506062  18.6565113  30.4148674  27.6538715  18.3376846
  29.9199600  28.4436932  19.5302601  67.0844879  32.9668045  56.5052071
  67.9000397  33.1112404  56.9850349  67.3538437  32.5146446  55.7056885
  52.7240181   0.6947203  79.1494141  53.6224632   0.8035793  78.8376846
  52.3799553  -0.0373246  78.6375885  29.1085434   3.2073834  40.7412720
  28.9445553   4.0405498  40.2994843  28.8727379   3.3700886  41.6545906
  19.2271595  28.1880970  57.5842133  18.9501648  28.7079525  58.3387032
  18.4108124  27.8625813  57.2049370  73.8488617  43.4555626  57.0409927
  73.4016190  44.0843010  57.6074600  73.4719772  43.6041756  56.1737556
  17.6251335  10.0454741  29.9509525  18.1000500  10.3213415  30.7349052
  16.7097893  10.0035915  30.2277603  71.4081726  44.4438362  29.4212780
  70.6251221  44.1975250  29.9136124  71.0954590  45.0768051  28.7749138
   9.1519051  22.8064308  67.8804550   8.9752083  23.5899067  67.3597107
   8.9555292  22.0779781  67.2913666  65.6598969   6.9063635  57.1552620
  65.7206879   6.4651494  58.0025330  66.4434433   6.6258726  56.6823883
  85.0241013  61.1767654  34.9078293  84.3787231  61.8221016  35.1963768
  84.7193146  60.3497620  35.2811928  22.5001755  70.5751266  16.3212051
  23.4570541  70.5969238  16.3094025  22.2784748  70.2651138  17.1992550
  18.8783512  51.0510483  45.5055847  18.0573235  50.8988113  45.9735222
  18.6237736  51.0972862  44.5840187  20.8114338  55.4721985  75.7093277
  21.3056698  55.2855949  76.5075455  20.1396141  54.7910538  75.6788559
  41.5099869  69.5569305  79.9839172  42.3112564  69.0698166  79.7917633
  41.5374069  69.6994629  80.9300461  37.0496254   4.6370115  53.5104599
  36.9864159   4.0665560  54.2764969  37.5156403   5.4112158  53.8261681
  74.9107742  41.6728325  27.4775429  75.2850342  41.8883438  28.3317795
  74.0066757  41.9833069  27.5269318  57.6425781  30.6316338  83.4362793
  57.5759621  31.5764866  83.5742950  56.9181862  30.4241390  82.8460007
  80.5650864   7.3104329  55.5321655  79.7442169   7.7454143  55.7628212
  81.1595917   8.0255346  55.3054123  62.9574318  58.7717323  67.0070419
  62.3291588  58.0747795  67.1961441  62.5259171  59.5713539  67.3080826
  46.2744865  18.9456863  13.3937912  45.9335327  19.7120533  13.8549490
  45.5285721  18.3484459  13.3376780   5.1964312  14.0975351  45.9440956
   4.9403596  14.9732332  46.2336006   5.2317357  13.5800867  46.7486038
  55.0353584  39.8253593  17.1557961  54.5836983  39.9940453  16.3288879
  54.9093361  38.8892593  17.3109245  86.9430084  36.2626457  45.2126389
  86.4078751  36.9017181  44.7420464  86.3186340  35.7799339  45.7542839
   4.8646774  52.8465462  14.8576298   4.8802323  52.8974113  13.9019089
   4.5936646  51.9478951  15.0452738  80.3938980  66.3456345  77.1879501
  79.4727020  66.5328903  77.0074844  80.6103897  65.6209412  76.6012802
  14.4247971  50.2979431  27.7943096  14.5624943  49.3663902  27.9659958
  13.4827595  50.4254417  27.9062939  86.9195633  71.4788055  46.8285217
  86.9392395  70.5621033  47.1032906  86.1303787  71.5510559  46.2916794
  86.2985382  29.4839725  10.3924742  86.7118530  28.6441307  10.1923027
  85.7408371  29.6629353   9.6353951   3.0880141  22.4203339  22.5853519
   2.7388387  22.2641582  21.7079029   2.3135200  22.4741669  23.1452560
  75.2334747  11.4783831  52.6379623  74.4995193  11.4427309  53.2513733
  75.7746277  12.2020245  52.9537659  76.0986481  25.3567047  57.3358574
  75.2828598  25.8006763  57.1043358  75.8924561  24.8810577  58.1405144
  22.8825359  63.6753006   0.2418096  22.2602634  64.3541260   0.5029808
  23.6195621  63.7818146   0.8432067  64.5926743  20.6044178  58.2320290
  64.8249512  20.6126251  57.3034782  65.2656326  21.1401234  58.6520081
  49.5255241  42.2152405  68.7389221  50.2362823  42.6629601  68.2800064
  49.6736603  42.4153671  69.6631699  16.5581303  27.5393124  79.9610138
  16.5262737  28.0430737  80.7742996  17.2874489  27.9201145  79.4718094
  34.1842041  34.0175285  87.0751114  34.1129799  34.9017220  86.7154465
  35.0047493  33.6787224  86.7171402  15.6781034  29.8344498   2.7917459
  14.8895712  29.5570660   2.3253703  15.4038296  30.6052456   3.2886164
  49.4972725  63.7586060  77.6691971  48.5724144  63.6634789  77.4415588
  49.9387321  63.0716019  77.1698303   9.0094509  17.4855824   3.4158227
   9.0712280  17.3575897   4.3624129   9.5330296  18.2685432   3.2453246
  64.8702393  46.9523849  62.9205246  65.5674133  46.3608475  62.6372147
  65.2289886  47.8289795  62.7822762  72.1855087  65.3061142  45.4257393
  72.5261383  64.8636703  44.6482811  72.9663010  65.5891418  45.9016533
   5.4198904  10.2825670  57.2658157   5.7917423  11.1583357  57.3706360
   6.1047473   9.7832355  56.8209877  21.2741890  49.9671173  24.6685963
  21.8047142  49.5106773  25.3216190  21.9097290  50.4423828  24.1333942
  21.5584908  10.0601215  35.7739754  20.9944038  10.8071680  35.9738731
  20.9903126   9.4500723  35.3036079  43.7627106  68.3834000   0.8149590
  44.3861847  68.8074875   1.4045920  42.9138832  68.4957886   1.2428538
  40.2106590  -0.2713084  37.4088593  39.3729973  -0.3009901  36.9466095
  40.2974777   0.6398556  37.6889915  26.0162048   1.8915478  63.2320557
  25.7481613   1.6325459  64.1137009  25.2915649   2.4270678  62.9090309
  13.5568876  14.2256737  24.8613319  13.5705624  13.3187561  25.1671848
  13.0095339  14.2054729  24.0763302  71.0255966  16.4826393  76.9016724
  70.3386002  15.9530287  77.3063660  70.5569916  17.0710869  76.3097534
  79.9318008   3.6857135  47.5926971  79.2818375   3.0225420  47.8250465
  79.4406509   4.5071449  47.5766144  52.0949974  20.2761784  51.1282692
  52.7929115  20.8597336  50.8305931  51.2939262  20.6587620  50.7702942
  16.2285671  57.4032936  60.9279060  17.1514606  57.3196754  60.6881027
  15.7666016  56.8483047  60.2995682  79.0699768  62.4531593  56.3814316
  79.1696548  63.2492104  55.8593178  79.1008453  61.7417526  55.7417603
  60.1049271  66.7513809  44.3737984  59.4947090  66.2048035  44.8688965
  60.8450470  66.1742249  44.1857910  10.7872572  51.3187370  22.2934132
  11.0799036  50.4226494  22.4595947  11.4261627  51.6680145  21.6720943
  62.7759438   5.6406350   4.0157895  63.4840508   5.8387613   4.6286197
  62.2226410   6.4216118   4.0285277  63.6768417  52.9720192  27.0444489
  63.2118912  52.2261353  27.4235306  63.6948853  53.6241379  27.7449112
  44.2646294  69.0647202   6.3518167  44.7836075  69.7076340   5.8685398
  43.3599625  69.2478027   6.0982685  82.2137833  23.1768436  11.1163263
  82.7883224  22.6599636  10.5515509  81.7305222  23.7419033  10.5135021
  59.9528580  47.4631195  68.6835632  59.2548561  46.9829521  68.2380753
  60.7592621  47.1446571  68.2779465  73.9368973  46.3615570  67.0437622
  73.7664642  46.8113441  67.8713379  74.6904221  45.8003998  67.2269058
  29.4244232   2.5346479  27.2653008  29.8569088   2.6752493  28.1075726
  29.3740788   1.5827812  27.1778545  65.0805435  43.3739395  14.1835680
  65.8162231  43.9599648  14.3612766  64.8668442  43.5299492  13.2636614
  21.6065121  57.7090836  80.1176834  22.2048721  57.2335777  79.5414124
  20.9032536  57.0857468  80.2996445  26.6311836  64.1903687   6.5596471
  25.9055252  64.5013275   7.1009030  26.2215881  63.6032219   5.9242587
   4.3532276  21.1482754  37.7848206   4.8142943  20.3992786  38.1625175
   4.4191012  21.0178833  36.8388367  44.2036705  17.3073616  12.1289740
  44.4353256  16.4593029  12.5076075  44.3502045  17.1982212  11.1893740
  52.1156311  24.9534435  59.9145546  52.4426346  25.6730843  60.4543877
  52.1596069  24.1865101  60.4856148  82.1329193  63.5015907  14.4739027
  81.8314896  62.8037529  13.8921909  83.0826797  63.5182228  14.3559132
  17.5545731  37.7957306  81.3717499  18.4358158  37.4314613  81.4551163
  17.4845753  38.0448494  80.4501877  12.3510256   2.6632311  12.4097767
  13.2232018   2.3147039  12.2252007  12.4882631   3.6035290  12.5248318
  44.4178200  51.1139259  18.7243881  44.5845337  50.1720428  18.6883984
  43.5227890  51.1862450  19.0559330  73.7141266  28.1107903  35.3893890
  73.8717041  27.2933884  35.8618927  73.7593536  27.8657455  34.4651947
  54.6911316  66.4610214   8.5460825  53.9380417  66.3570480   7.9644685
  55.3135262  66.9840927   8.0408602  22.8570766  46.6740227  88.6193695
  21.9154034  46.5023575  88.6231384  22.9767666  47.3380661  87.9404373
  77.3473206  59.7587051  39.8591843  76.9819183  60.1782188  40.6381073
  76.7564850  59.0267868  39.6818848   7.7803774  48.8926964  34.4261284
   8.3008251  48.1375504  34.1520386   7.2673411  48.5732803  35.1684227
  16.4801464  20.4920368  12.1858530  16.4061432  21.1864357  11.5312042
  15.5748405  20.2545223  12.3864594   3.9319978  65.2170029  71.1626740
   4.4875951  64.6144409  70.6682358   4.2475834  66.0875092  70.9200897
  58.4665756  39.4765282  23.3453503  57.7651863  38.8322868  23.2492733
  58.1440773  40.0842476  24.0108604  56.5716438  67.7004700  72.5778580
  56.0244598  68.3986130  72.9375992  56.7331085  67.1166992  73.3190613
  50.4838524  47.0097122  34.5812683  50.6099586  46.8618736  33.6439972
  50.0400772  46.2200699  34.8907166  63.8032837  12.7756262  32.1618805
  63.8531532  12.1105614  31.4752693  63.0056610  13.2659636  31.9629002
  24.6237659   6.8570337  88.4647369  24.2553291   7.6467266  88.8608093
  24.2607841   6.8415251  87.5791702  52.8999443  57.8564034  53.3437462
  53.4987984  57.9348412  52.6011467  52.0592308  58.1665840  53.0072594
  76.3370667  34.2267342  84.5134354  75.9766922  34.9641151  84.0208588
  75.9322662  33.4543381  84.1187592  86.6924896  56.9869499  85.5581970
  85.9778442  56.4574699  85.9119949  86.2553864  57.7174149  85.1204834
  23.2087173  71.1001740   2.1224980  23.9072342  70.4496994   2.0504825
  23.6409245  71.9361267   1.9475209  82.4776688  57.7724953  67.7841415
  83.4084167  57.5706863  67.6881180  82.4525604  58.4931870  68.4135971
   0.3768823  29.4640503  38.9554253   0.6314227  28.6819458  39.4450722
  -0.0623028  30.0181828  39.6006279  54.2920151  49.4146957  63.7748985
  53.3688164  49.4953575  63.5352554  54.2783508  49.0794220  64.6713562
   3.4609113  57.5281334   5.4829788   2.6560819  57.7967567   5.0398965
   3.2336469  56.7040176   5.9135785  83.2315369  25.9007664  26.0755119
  82.5901718  26.6080837  26.0077801  82.7100830  25.1227036  26.2728271
  12.4363432  33.2754936   1.6565770  11.8123093  33.1159477   0.9485098
  12.4718132  34.2288742   1.7342818  43.4246864  27.0019455   2.2205329
  43.1701012  27.9167442   2.0998569  42.5986366  26.5187664   2.2002299
  14.5932636  53.2313232  79.6136093  14.0163736  53.9615631  79.3895950
  14.2744503  52.9260635  80.4629669   3.5789206  26.3489056   5.6871905
   3.1978910  25.9368191   4.9117980   2.8283207  26.7057114   6.1620817
  57.4737778  32.6017876  73.3690720  57.3888550  33.5251503  73.1315384
  57.1662216  32.1266365  72.5971451  66.9192734   9.2013702  35.5877914
  66.9764328   8.7700319  36.4403839  67.2838058  10.0739565  35.7359085
  78.1736908  22.4814892  49.3964348  77.3234482  22.4175491  48.9614296
  78.0358505  23.1161499  50.0995941  65.2783966  60.6017075  70.6017075
  64.7814484  61.3964729  70.7956696  64.9265976  60.2974510  69.7651062
  22.0394840  59.0632401   1.7144766  21.6559391  58.9382019   0.8464373
  21.8282146  59.9688110   1.9414957   4.8805494  46.2504158  54.9246445
   4.8230939  45.3050690  55.0633774   5.0024700  46.3469086  53.9801559
  32.4632034   8.9141474  70.5865936  32.6134491   9.1069651  71.5120621
  32.5262260   7.9608703  70.5272522  45.8751793  69.0418243  11.6448927
  45.3494225  69.3306656  10.8989820  45.7920494  69.7489471  12.2846603
  10.8506384  39.9507904  56.3273315  11.0882215  39.7069931  57.2219505
  11.6829004  40.1754074  55.9112549  15.4114761   7.1148186   2.2746243
  14.7383547   6.6678748   2.7878301  14.9342308   7.5067825   1.5433015
  75.1632996  65.1706009  69.6156998  75.2980423  66.0951920  69.4078369
  74.2531967  65.1210022  69.9080887  41.3235512   2.3237643   7.3370638
  41.1753845   3.2660255   7.2569261  40.6091690   2.0155418   7.8946395
  86.4334564  23.3760109  59.4095192  85.9818649  24.0143318  58.8573914
  87.2683334  23.2243595  58.9665642  27.5740356  29.3376179  17.6721020
  28.3516560  28.9959946  18.1135006  27.8671379  30.1546898  17.2687206
  23.6635971   3.7291679  77.1209106  24.5244560   3.4343174  77.4179306
  23.7108421   4.6843872  77.1603546   6.2422781  63.0590096  62.2161789
   6.0224752  63.0965996  61.2853165   5.8773174  63.8651085  62.5811958
   4.0696135  34.9370308  39.4542580   3.5369096  34.9844284  38.6603966
   3.9542444  35.7907753  39.8714409   7.0642056  37.1882668  60.4695549
   7.1652622  36.4617691  61.0845451   6.1855264  37.5269241  60.6412125
  73.8401260  39.9802475  67.0019226  74.6860352  39.9724312  66.5540237
  73.6539154  39.0580292  67.1781998  67.9159851  39.6361542  84.9567719
  68.3067322  40.5077362  85.0191498  68.6309891  39.0371742  85.1717682
  76.5622482  18.8864422  75.3722916  76.7767029  18.7427330  76.2940216
  75.8479538  19.5234146  75.3890686  13.0411978   4.4114885  49.1062622
  12.7096863   3.5135326  49.1090164  12.8838320   4.7221651  48.2146606
  70.3337860  34.0382347  48.2526970  70.3268280  34.9833641  48.4040565
  69.7434387  33.6847534  48.9181061  32.0478668  60.9476585  51.8045464
  31.5269012  60.1549759  51.6761627  32.6887589  60.9307938  51.0937691
  86.5071487  54.8134460  47.9205589  86.8573303  53.9735909  47.6234970
  85.7373657  54.9599075  47.3708115   5.9627600  20.2735901  75.4044876
   6.5828166  20.0818882  74.7009125   5.7249842  19.4150791  75.7547073
  62.3006706  43.4535027  88.1236115  62.9805260  42.8108978  88.3263092
  62.5446548  44.2281761  88.6301498  70.9806900  57.0303383  57.0861206
  70.4284439  57.1260834  57.8620644  70.4211807  57.3028069  56.3588371
  75.1233292  30.2041607  67.9745331  74.7853546  29.3099575  68.0235443
  75.7737579  30.1762428  67.2728195  50.2360077  69.3162155  61.3584251
  51.0569153  69.7364731  61.1020584  50.2870331  69.2528152  62.3121605
  23.8250237  25.8462849  85.0252457  23.7491894  24.9105053  85.2117844
  24.7619839  25.9885254  84.8906937  29.5684395   9.9410028  76.3914337
  29.7758102  10.2989902  77.2546082  29.2839336   9.0439320  76.5662308
  56.1786079  29.6649017  89.2106323  56.4574738  30.0088558  88.3620148
  55.6830559  28.8741932  88.9974670  72.3797989  44.9572334  18.5298252
  72.1290054  44.5057526  17.7239094  72.6607132  44.2571526  19.1190701
  38.5290031  15.8834095   3.9751334  38.4280167  16.3421669   4.8091445
  38.6435852  16.5813751   3.3301940  53.0981827  64.0999832  52.3151360
  52.4817047  63.4167099  52.0518379  52.6371803  64.9198608  52.1376076
  29.3741055  44.1248817   0.7983788  30.0200291  44.8301353   0.8388157
  28.5794582  44.5062027   1.1716908  71.7295837  46.7473030  81.7163086
  72.4742279  47.1643753  82.1496582  71.5043793  47.3425636  81.0013428
  49.3173904   6.5458322  86.3560410  49.6919746   6.5500937  87.2368927
  50.0004196   6.1605463  85.8071747  85.8469696  44.2508583  14.8719254
  85.2512283  43.7491112  14.3155384  85.8743210  43.7627487  15.6948662
   3.9743180  69.9535141  26.4420605   3.1492546  69.6062927  26.1030331
   4.5313516  69.1828842  26.5519409  39.4479790  48.8824120  72.4971085
  39.3240967  49.4835358  71.7625732  40.3353882  48.5427246  72.3815689
  85.7755814  34.3608131   3.9124167  85.7330856  35.2777443   4.1838303
  86.6782761  34.0989990   4.0935793   7.4988928  48.8031006  85.3855133
   6.7144632  49.3516312  85.3895874   7.8624821  48.8985596  86.2658157
  48.9179764  45.0275536  71.6701050  49.5790596  45.4822769  72.1920395
  48.9975700  45.4104576  70.7964401  33.9949875  67.5968170  70.1833267
  34.0101662  67.4568863  69.2365341  33.2909203  68.2306137  70.3205185
  59.1824112  10.5158958  14.5784006  58.5347176  10.5042887  13.8737068
  58.8271408  11.1308708  15.2201347  17.3136387   4.6208043  27.9950409
  17.6785603   3.7880328  27.6957855  16.4339867   4.6459613  27.6184635
  56.4161110  56.1854439  68.7237244  56.8821754  55.9477615  67.9221497
  56.6870346  55.5262642  69.3627243  24.6656761  56.6250572  55.2011795
  25.2082443  56.6072960  55.9895554  24.5977650  55.7077026  54.9364510
  53.1979675  43.1966934  65.0536575  53.3889275  42.3075638  64.7549667
  52.7532654  43.6080132  64.3125153  16.2404385  21.8581886  70.3409424
  16.1172619  22.3287792  69.5165634  15.7244444  22.3521481  70.9781189
  56.8150368  21.3622704   0.5169691  57.1390457  22.0306320   1.1207438
  55.9481544  21.6741562   0.2572079  21.1442947  43.0834351  76.4524307
  20.9436970  43.0588875  77.3880539  20.4781189  43.6609497  76.0797119
  47.0157852  31.5174561  25.0796471  46.6344185  30.6814232  24.8116150
  46.4411659  31.8297119  25.7786045  19.1070843  62.2018318  18.1070824
  19.8759861  62.0629845  18.6600227  19.2964745  61.7128220  17.3063107
  62.7987595  50.6390495  46.7863312  62.1726341  50.5603867  47.5060616
  62.2578621  50.6334419  45.9966316  62.8779373  18.5480652  11.5089674
  63.0295639  18.2710114  12.4125605  61.9495583  18.3714066  11.3568678
   8.4713755  34.2063255   0.3954409   8.1392689  33.4120445  -0.0229557
   8.8037949  33.9096985   1.2426382  61.2056847  30.1357517  30.3290005
  60.4814568  30.7493286  30.4524765  60.9606247  29.3687077  30.8465137
  56.5633163  15.7123060  70.8515472  56.9660835  16.4951859  71.2271881
  55.6918831  15.6784639  71.2461243   0.8472153  18.2666664  31.5030022
   0.9538978  19.1734676  31.7903404   0.6621664  17.7809238  32.3067703
  69.7793121  58.6984863  17.0693207  70.1143112  59.4838257  16.6366024
  70.5262222  58.3600006  17.5630684  10.1648474  49.9350281  71.5703354
  10.2817678  49.8696022  70.6225586  10.2173958  49.0312042  71.8811035
  26.4592285  50.0707588  80.4604492  25.5026417  50.0474854  80.4353104
  26.6657372  50.7936897  81.0528641  57.9848938  13.3004847  80.6449509
  58.1369209  14.1567907  80.2451248  57.4936333  12.8116779  79.9846802
  69.6571655  59.4657402  52.0367584  70.3549652  59.4602966  52.6919518
  69.2386703  58.6094551  52.1254425  84.5505371  40.8036690  60.7388458
  83.6316147  40.5408096  60.6866493  84.7879410  40.6638680  61.6555405
  62.3219185  54.7376518  21.9536400  62.7940598  54.3210449  22.6745777
  61.8682251  54.0171013  21.5163765  27.0825233  63.0483551  32.8972054
  26.2246857  63.2125969  32.5055771  27.0795517  62.1121330  33.0964813
   7.9785333  36.3909760  87.6250076   7.2987237  36.6541519  88.2453537
   8.3683910  35.6084099  88.0146637   8.6291695  64.0984650  24.7067089
   9.2999201  63.6734314  24.1722260   7.8148360  63.9614754  24.2226372
   4.1999927  54.4580345  67.4834366   4.1375384  55.3410187  67.8476639
   3.2969255  54.2220192  67.2713013  63.0804176  21.7615376   3.4649279
  63.8713722  21.5930481   2.9528391  62.6130371  22.4340611   2.9694493
  73.3033752  58.3803749  57.9353676  72.8398056  57.5923958  57.6517830
  74.0238342  58.4718742  57.3118286  85.4861526  66.4424438  78.4393845
  84.9126434  65.7703476  78.8076248  86.0463333  65.9686966  77.8245697
  24.4785004   4.8627315  13.7379417  25.3687286   5.2095270  13.6791239
  24.5426617   4.1435251  14.3663187  57.9396400  59.4496422  74.7995758
  57.1185188  59.5985832  75.2684174  57.7503700  59.7071381  73.8973007
  86.5752411  58.8791771  17.8622150  87.0684586  58.1593170  18.2556171
  86.3638916  59.4546089  18.5973625  44.8555260  13.7946739  29.4560242
  45.0565529  13.3231974  30.2644348  44.4270592  13.1442318  28.8996296
  46.7041969  49.7197151  54.7877731  45.8628693  49.9473877  54.3920898
  46.4906044  49.4990845  55.6943779  74.3114243   6.7297621  25.5859394
  74.9960938   7.3905134  25.6901855  73.6682816   6.9425154  26.2622089
  21.3737431  37.1508102  27.9844742  21.9288349  37.3392448  28.7411766
  21.8887081  36.5415649  27.4554558  45.3576889   5.5581279  55.6060715
  45.7825203   5.3957500  56.4483185  45.2365761   6.5072184  55.5779343
  57.8378067  39.1928940  59.7680550  56.9193268  39.2558136  59.5060005
  58.1195335  40.1015778  59.8736610  27.9286537  50.8762741  73.5384750
  27.8410244  50.4674606  72.6774216  27.5910931  51.7637978  73.4177017
   7.0008497  26.2273712  26.0106564   7.7476296  25.9271927  26.5287724
   7.0770502  25.7523651  25.1831341  17.9164352  55.2686081  26.1146679
  17.6600552  56.0933228  26.5273952  17.5950317  54.5923004  26.7109413
  47.8222809  53.4849739  54.6140060  48.7031212  53.1131897  54.5678177
  47.8618813  54.1049843  55.3421898  52.0653191  48.3259315  17.2225170
  51.2028694  47.9493256  17.0476398  52.2707176  48.8299446  16.4351082
  41.1782150  15.1857471   6.5225396  41.6484642  14.8839388   7.2997203
  41.3468170  16.1274605   6.4912343  38.2109451  63.5046844  26.7021294
  37.7861633  64.1167145  26.1011238  38.2718735  62.6871567  26.2079964
  16.2161541  65.2170944  43.8869781  16.4806843  64.5263519  43.2794189
  17.0360737  65.6430359  44.1370621  11.9465961  19.2818012  18.5402470
  12.0731993  18.4912663  19.0648975  11.9010687  19.9904747  19.1820736
  33.7437515  57.5290909  41.1725464  34.1533394  58.3940735  41.1890030
  34.1012802  57.1096382  40.3899422  68.9601288  11.2009230  19.2035828
  69.4628525  11.8920870  18.7725410  68.2244873  11.0364056  18.6136780
  13.5489321  20.9059029  82.3197784  13.0547609  20.4134331  81.6644135
  12.8914843  21.1805325  82.9589691  68.4004364  68.7531281  53.9096298
  68.1561737  69.3032074  53.1653252  69.1310272  69.2158890  54.3198929
  22.8937359  66.0266953  72.5689240  23.4878407  65.3445511  72.8818893
  23.1045990  66.1202164  71.6399307  48.7730560   3.9849942  59.1912346
  48.1499634   4.6869912  59.3788261  48.4791565   3.6206629  58.3562965
   7.9181261  60.0846214  27.9300098   7.5917296  59.3159370  27.4622269
   7.1990609  60.7149010  27.8861332  59.5809479  17.2407684  33.9378853
  58.8627701  17.5941677  33.4129448  59.4054070  16.3008366  33.9820023
  64.6234589  36.2235641  82.3292084  64.8574448  36.1715317  83.2559052
  63.9095192  36.8603821  82.2978287  28.9600449  36.7166481  10.4957724
  29.3363190  35.8664818  10.7235260  28.0151005  36.5915337  10.5832806
  27.3926105  -0.0439648  56.9937553  26.9447498   0.7452522  57.2983704
  27.3468742  -0.6468326  57.7358398  33.0059929   1.5707519  72.6259232
  32.9112206   0.6361992  72.8099365  33.9489479   1.7291815  72.6703033
  73.5991058  16.2408409  27.1385784  73.2466660  17.0384350  27.5333748
  73.2846527  16.2618332  26.2347488  74.6313858  22.8447437  24.6551838
  74.3073654  23.7429142  24.7225075  74.0572205  22.4306469  24.0109100
  83.4017105  59.6545677  54.1450996  83.3849182  59.9935303  53.2500839
  82.9783173  60.3359795  54.6672592  65.4919739  16.3853111  62.6810989
  64.8829269  15.7831573  62.2536659  65.9201126  15.8555956  63.3536530
  80.1993027  13.1167507  57.2695084  80.1809845  12.1597891  57.2585373
  80.0417252  13.3697634  56.3598976  27.3967094   9.0881824  79.0845490
  26.7319355   9.4235830  79.6860580  27.0324402   9.2450228  78.2133789
  71.8860931  11.5860748  64.1392593  72.0319824  10.8545313  64.7390900
  70.9382858  11.7194204  64.1501999  39.0430527   6.7896194  46.7474136
  39.1542549   5.9638758  47.2185936  38.2528343   7.1761518  47.1247444
   1.6719927  26.3526058  28.5024242   2.3928924  26.6680965  29.0474014
   0.8924035  26.7653732  28.8740368  25.3412247  24.8772449  17.3782654
  24.8051701  24.4490814  16.7107677  25.6224384  24.1650848  17.9527016
  29.2259121  58.7020416  14.2821140  28.8848515  58.5549240  15.1643076
  28.7115707  59.4359055  13.9457712  30.6603374   5.8864570  57.0146713
  30.7177849   6.8255901  56.8387184  30.2674084   5.5181155  56.2233658
  51.7457924  42.9781151  13.4256229  51.5029030  42.6727295  12.5515652
  51.1214676  43.6780319  13.6168661  81.9187469  22.5052452  65.3104553
  81.3835983  21.9310436  64.7626038  81.3826370  22.6626053  66.0876694
  85.3476257   4.8650484  11.9086399  85.7227173   4.9818788  12.7815018
  84.6826935   4.1860018  12.0226154  39.6109505  54.7550125  24.6514225
  39.6756706  55.7091141  24.6930676  39.0652428  54.5189972  25.4015770
  13.1253443  56.0342445  49.4580917  12.7763968  56.6080894  50.1401253
  13.8615456  56.5217094  49.0884705  10.2733440  56.2144852  27.0856457
   9.6537828  56.0209885  27.7891617  10.9442091  55.5362320  27.1640263
  56.2644958   9.2981281  55.2554436  56.6850281   8.4955435  54.9468269
  56.0182610   9.1067715  56.1604195  65.4771805  59.2586823  50.4949150
  64.8806381  58.8330994  51.1107559  65.9936142  59.8561630  51.0357895
  63.6815376  51.0946922  58.6471863  64.0866013  51.7700882  59.1912460
  63.0598106  50.6586990  59.2299347  40.3367653  26.0610886  71.1811829
  40.3448677  26.9685402  71.4856491  39.4250488  25.8975716  70.9397964
  35.6532021  54.0878029  58.4368324  35.3050346  54.8338890  57.9486046
  36.4754791  53.8753128  57.9953079  43.1027184  59.4932861   3.8616416
  43.8221626  59.4255447   3.2339129  42.5157051  60.1479645   3.4834349
  11.7737617  58.7277069  18.7990170  12.7260647  58.7963028  18.8671722
  11.6283083  58.1465454  18.0524750  54.5550613  30.9471893  65.9178085
  54.8018837  30.9710884  66.8423309  55.0513535  31.6618633  65.5188599
   0.4766345  41.7064781  22.1893730  -0.3980020  41.3276291  22.1015301
   0.9527639  41.3904572  21.4214783  38.6084366  51.9621887  11.2612066
  38.1595116  52.7468262  10.9465027  39.3772278  52.2954521  11.7239437
  11.2235394   5.8221831  65.1637878  11.8855276   6.3203363  64.6843643
  11.4758415   5.9111776  66.0828400  48.4007874  52.2512703  40.3862572
  48.1603432  53.1187019  40.0607071  48.5487061  52.3796158  41.3232079
  73.8435822  45.0137711  39.1426964  73.1843643  44.6487770  38.5524025
  73.9209900  45.9303513  38.8778915  11.0914068  37.1790199  25.8781567
  11.7052917  37.2080574  25.1443081  11.1038609  38.0666847  26.2361088
  48.6386490  28.4693718  85.8015671  49.0830421  27.6221313  85.8320465
  47.7070084  28.2505741  85.7812881  59.4308014   9.0000153  27.4948826
  58.6618614   8.4381075  27.5909233  59.7451477   9.1307592  28.3894920
  31.6329689  25.6255875  16.3439064  32.3512650  25.1298695  16.7370338
  32.0609283  26.3626041  15.9081440  16.7543106  27.5488358  56.4705238
  16.7450714  28.4743099  56.2263031  16.2117424  27.1209068  55.8081589
   2.2028246  69.4084320  16.0159550   1.7072661  69.3295441  15.2008295
   2.1182044  70.3302765  16.2594376   2.0226450  48.2595291  15.3061743
   1.0692610  48.1748199  15.3169107   2.1796424  49.2031898  15.3392220
  14.5012016  26.7280407  81.7619019  15.1501055  26.0251865  81.7279587
  14.6748676  27.2523174  80.9801025   5.8822632  65.6371307  63.1708183
   5.3077145  66.1768494  62.6278419   5.5618672  65.7689667  64.0631180
  81.2002640   3.8504872  69.3467407  81.2241745   3.9977014  70.2922440
  81.9412613   3.2690964  69.1760483  76.4118195  47.4419518  23.8161430
  76.5402603  48.2451096  23.3114929  76.1515884  46.7895279  23.1658688
   0.0128783  22.7284775  74.7374649   0.5166913  23.4808235  75.0479126
   0.6633574  22.0358315  74.6219254  67.1912766  11.5536690  73.9193420
  68.1143265  11.7650194  74.0591354  66.8059158  12.3671932  73.5939102
  69.6388626  69.5772324  67.3875961  70.0066376  70.4608994  67.3981323
  69.3010254  69.4690018  66.4985580  37.7158203  48.6111183  14.5029650
  36.8998337  48.2548599  14.8543615  38.4002876  48.0572395  14.8784056
  60.3447762  52.2021103  32.6790199  59.6301460  52.1688766  33.3149719
  60.0772896  51.5980263  31.9863701  71.7106781  32.1949959   3.3679326
  71.2170181  32.9227676   2.9899316  72.5002060  32.1361122   2.8299663
  69.8764877  13.7450132  81.9260864  70.7782898  13.8256626  81.6154709
  69.4485168  14.5484867  81.6302795  32.0489311  10.3669262  15.0780411
  32.7369423  11.0317688  15.1073771  32.3068237   9.7868261  14.3616552
  52.0071220  52.3651581  51.2644539  52.7401199  52.3748245  51.8799629
  52.4123573  52.4968796  50.4073257  51.0610466  46.2382126  73.0112305
  50.4831505  46.5927086  73.6869507  51.8943100  46.6889572  73.1481094
  61.4914856  51.2060623  16.0248146  61.5157700  52.1508179  15.8728962
  60.7600861  51.0793724  16.6291580   6.8542562  39.6988907  71.0966034
   6.4204798  40.5070076  70.8227081   7.7600079  39.9585304  71.2652283
   9.8928852  25.8266621  81.4227676   9.9368677  24.8706188  81.4060364
   9.9320736  26.0520020  82.3522415  65.3299789   2.8692303  15.2074518
  64.7391663   2.9280677  14.4566460  64.8303452   2.3899224  15.8684072
  84.3200912  17.2466831  13.8203554  83.4283905  16.9230061  13.9481869
  84.2421951  17.8921261  13.1178141  36.3424492  67.9445038  78.1527634
  37.0138931  67.5404129  77.6031265  35.7792625  67.2169418  78.4167862
  74.7180786  33.1944542  50.8640594  74.5293503  32.6145477  51.6018448
  75.1938858  33.9287453  51.2521973  66.6723938  45.1965103  65.9118652
  66.1745987  45.9831009  65.6889191  66.3604050  44.9547768  66.7839050
  62.3666801  70.8525162  76.1738586  62.0967102  71.0298462  77.0749207
  61.5615082  70.5847549  75.7308807  28.7238998  62.5618477   4.3435674
  28.6817303  63.2476044   5.0100455  29.4141254  61.9731636   4.6489639
  23.2375183  49.1776352  64.6281815  23.8136635  48.7640572  63.9853401
  23.5874882  50.0628433  64.7289734  75.0287170  64.1938553  14.7217302
  74.7281799  64.2086868  15.6304054  74.2503586  64.4104996  14.2084560
  26.8782902  64.8353043  70.2364197  27.3824577  65.2832489  69.5571671
  26.0561047  64.5982971  69.8073883   0.3212294  19.1778374   1.3376122
   0.9835554  19.6725407   0.8550944  -0.3500448  18.9770412   0.6854585
   1.7612957   9.6114292   3.4693468   2.3351183   9.1580000   2.8518016
   1.0276501   9.0106583   3.6000013  69.8871460  36.7994576  48.5687561
  70.2853775  37.6698189  48.5579491  69.3603973  36.7671432  47.7701836
  64.7428436  21.7115955   5.8883224  63.9869347  21.8158131   5.3104210
  64.9816437  22.6054153   6.1338716  49.3972588  36.6294556  81.5648422
  49.8348274  36.9676208  82.3461304  49.1106033  35.7503853  81.8124313
   7.7249675  71.0135803  86.2513809   7.7140818  71.5447845  85.4551849
   6.9101853  71.2385330  86.7005539  65.4071350  36.8311462  51.8383331
  65.7017822  36.3474464  52.6099892  64.8915558  37.5557823  52.1923294
  48.5309219  63.2524338  27.0426865  47.9388657  63.0535965  26.3173122
  49.1787033  62.5480003  27.0231171  48.3722725  50.7526741  52.9133682
  49.2677193  50.5101929  53.1491814  47.8212433  50.2289467  53.4950104
  34.6425323  57.6744881  61.9536514  34.9253006  56.7650223  62.0492783
  34.1521187  57.8583336  62.7548561  80.7318878  40.6766548  57.3617668
  79.8459930  40.7291946  57.7204742  81.2888565  40.5111046  58.1224327
  85.2138672   3.3046122  60.2785835  85.9391403   3.1654119  60.8875389
  84.4295959   3.1099288  60.7916718  28.1004429  54.0769272  64.7552490
  27.8699818  54.7996712  65.3389969  27.3564339  53.4772987  64.8111877
  39.5965195  70.7291183   8.4845047  39.7437782  71.3678131   7.7869239
  40.2189941  70.0256348   8.3004599  51.1394653  62.0983353  51.8667221
  50.6489410  62.9067307  51.7180176  50.5001030  61.4970436  52.2486839
  49.4997635  66.6209717  60.2030602  50.0811119  66.1464081  60.7972450
  49.6693840  67.5445175  60.3888779  56.6670189  44.9750023  74.3363495
  57.0040817  45.4914703  73.6043091  56.9328384  45.4626312  75.1159592
   7.4352350  37.1935120  76.9673462   6.8085880  37.7029533  77.4811707
   8.2414188  37.7088966  76.9933777  80.4647903  47.8742752  45.5259857
  81.1719284  48.4984818  45.3630371  79.7020264  48.4205971  45.7155991
  72.9793625  24.6798210   6.1458707  73.3676834  25.1313171   6.8952637
  72.9747391  25.3347111   5.4477811  68.8687897   9.6796322   2.3385804
  68.2519684   8.9626837   2.4860694  69.6059570   9.4841843   2.9170322
  69.2409286  44.9191818  86.5443192  70.1360245  44.7787018  86.2356033
  68.7531815  45.1684456  85.7593384  19.2628784  26.5459652  27.5695057
  18.8744659  26.0516682  26.8476753  19.4514599  25.8865376  28.2372074
  57.1035614  30.7572842  12.4290352  56.2112427  30.9994736  12.1813717
  57.5213661  31.5867825  12.6605654  80.0500107  66.8349915  52.3354836
  80.1439514  67.7713242  52.1603012  80.7261429  66.6439362  52.9855499
   1.1693355  24.2337055  19.5840454   0.8692961  24.6694279  18.7863274
   2.1196620  24.3479538  19.5764065  86.4098663  63.5789032   0.2852363
  86.0723648  64.0309219   1.0585433  86.2925949  62.6492958   0.4809635
  60.3906517  70.6824493  16.5956764  61.0612717  70.4902115  15.9402809
  59.5624580  70.5019073  16.1510067   8.9775734  54.8785057  76.5458374
   9.4069252  54.1600647  76.0813675   9.6020775  55.6022873  76.4971771
  37.4250221  12.2367859  74.1009293  36.7252464  11.8807878  74.6484756
  37.1657143  12.0149803  73.2066193   9.9714489  13.7164459  71.3930511
  10.0475788  12.9196692  70.8680954   9.2870979  13.5177374  72.0321274
  37.7655220  20.4634399  18.9712639  38.2097244  20.9228706  18.2586346
  38.3587532  20.5485611  19.7176304  84.0534439  32.4822960  62.7861824
  84.3744431  33.0968361  62.1262321  84.8216934  32.2822800  63.3209915
  21.5549355  57.4979210  37.2868805  22.0459042  57.3263245  38.0904541
  22.1412449  58.0400963  36.7591324  34.6912766  55.6192627  31.4067173
  35.3786888  55.1543274  30.9297161  34.1578217  54.9256172  31.7946796
  51.3578644  25.6480789  16.1118851  50.6782074  25.5353928  16.7764130
  51.0403938  25.1511154  15.3579149  21.0163441  34.8501511  12.2504349
  20.9646969  35.1105080  13.1700964  20.6231289  35.5802612  11.7723665
   3.6029532  43.1329880  47.7823257   3.4852998  43.8504868  48.4048882
   2.7927575  42.6270218  47.8440819  44.5778427  46.8994217  53.4863052
  43.8908730  46.7339897  54.1320114  44.5598183  47.8473930  53.3549423
   9.2827301  68.3241348   7.9109101   9.6062613  68.8664246   7.1915526
  10.0328627  67.7842255   8.1599693  18.2635498   6.4807911  12.3093538
  18.8108692   6.3804569  11.5305033  18.5650845   5.7940478  12.9040756
  86.3966293  34.6508217  76.0624390  87.3461380  34.5870667  75.9594879
  86.0910873  35.0282669  75.2375717  32.2806091  21.2246075   0.9794993
  32.0019035  20.5473671   0.3631389  32.7798119  21.8431110   0.4461322
  73.3562546   1.5984228  54.5076714  73.8709183   0.8978645  54.1069527
  72.6266403   1.7353194  53.9033852  49.2460136  32.4160080  85.0071106
  49.6668167  31.7083035  85.4952850  49.5271492  33.2148590  85.4532394
  80.3653946   3.8866959  16.8745689  79.5881424   4.4240060  17.0275993
  80.1159592   3.3033211  16.1578484  71.9427719  32.4488144  69.9406509
  71.5536575  31.6949177  69.4974136  71.1940536  32.9802017  70.2113571
  85.7791138  37.4353867  59.8380470  85.8841400  38.3249130  59.5004921
  86.6726837  37.1003990  59.9124832  51.8891029  17.1979008  85.5573273
  51.0831947  16.6823673  85.5885239  51.6281433  18.0686874  85.8571014
  28.4013882  57.9167900  84.5277176  27.6621838  57.8900452  85.1352463
  28.9786892  58.5928497  84.8825455  35.3685913   7.7076702  79.9427490
  35.9440231   7.1046004  80.4132996  35.3760376   7.3903337  79.0397186
  29.3094406  57.8654747  67.0043030  29.6763687  58.4191475  66.3150711
  29.6969681  58.2009163  67.8127136  86.6799545  47.0652962  39.3573456
  86.7325058  46.1427155  39.1077232  86.3205948  47.0533066  40.2444458
  39.0228996  41.2251205  25.7780724  39.2893524  41.5443535  26.6402359
  38.5433807  40.4168358  25.9596386  38.6579208  51.6225052  24.6785603
  38.6596031  50.7358208  25.0391464  38.5645905  52.1915779  25.4425488
  59.8696060  11.2161407  38.6197586  59.8889046  10.5388193  39.2958450
  58.9685173  11.2067585  38.2969818  71.5607071  47.1278839  69.3381119
  70.7842789  46.8130264  69.8009872  72.2969589  46.7763252  69.8386688
  54.2867126  25.7062855  41.6745415  54.4132309  26.1424065  40.8319092
  54.3286133  24.7722473  41.4694786  27.9826241   3.8323858  35.2677574
  27.3373356   3.3965468  34.7110901  28.2830830   4.5777335  34.7477455
  61.9856834  63.7858086  33.1196899  62.3448524  64.0365982  32.2686119
  62.5920258  64.1641312  33.7564354  41.8951340  58.1266212  40.9325867
  41.6983910  57.2703819  41.3125610  41.2088890  58.7020264  41.2705345
  54.5184746  37.2784424  30.4187717  55.1881905  37.8952599  30.1233921
  54.9997139  36.6309547  30.9339428  10.7684870  67.3676987  54.5421867
  10.7985964  68.2645340  54.2089996   9.9085712  67.2947693  54.9562607
  54.5762749  40.9254723   8.8169985  55.2999458  41.0610352   8.2053194
  53.9737816  41.6476746   8.6390600  41.4227028  10.1876574  71.6495590
  40.7671776  10.0728388  70.9615707  41.6274757   9.2976418  71.9362183
  60.0480080  23.8082256  23.4449215  60.6384277  24.1961422  24.0907974
  60.5670509  23.1199474  23.0288696  44.1726685  56.4517174  35.1511383
  45.0655289  56.4728737  34.8067703  44.0792274  57.2779083  35.6253815
  63.2245178  55.3733826  29.9631805  63.0206490  54.5691414  30.4405327
  62.6966782  56.0468712  30.3921623  16.2293530  36.3628845  55.8837509
  15.4367552  36.6087570  56.3607903  16.1703053  36.8428345  55.0576782
  66.3617859  44.0865250  41.5565453  65.4406128  44.3065758  41.4178009
  66.4036026  43.7936859  42.4668884   0.5467766  48.1243668  65.0775146
   1.1724530  47.6107674  64.5666580   0.3478944  47.5746040  65.8354263
  29.5164070  45.2565498  15.8693104  28.7951984  44.9633560  16.4262028
  29.3042221  46.1666145  15.6619720  34.4012756  55.8166008  27.4785500
  35.0800018  56.4691391  27.3060493  33.7470856  56.2832069  27.9986897
  80.8643494  19.0272236  42.6944466  80.7446518  19.7964287  43.2514267
  81.7679062  18.7544098  42.8537674   4.2915239  19.0625610   3.2268229
   5.1479363  18.7229500   2.9671021   3.6708891  18.3936253   2.9377389
  27.4046230  31.9190693  28.9699421  26.8911610  31.4995232  28.2796021
  26.9079666  31.7544594  29.7714825  81.6401825  66.4659653  60.8799667
  81.2330399  67.3321762  60.8917809  81.3551178  66.0561676  61.6966896
  67.3355789   8.1329279  44.7728310  67.2156601   7.5199213  44.0475197
  67.9654999   8.7738075  44.4431229  61.6778336   6.1735773  23.6249123
  62.0394211   5.3237081  23.8763294  61.1916084   6.4646754  24.3963242
  64.7011414   7.1572537  54.7192078  65.0652618   6.8195601  55.5375061
  64.8186722   8.1053886  54.7780190  65.8065796  35.0771904   7.9546127
  65.1469421  35.4672012   8.5281963  66.2307053  35.8251839   7.5340714
  52.9686623  26.6962471  30.4459438  52.7791824  26.7308426  29.5083218
  52.2124290  26.2498264  30.8268051  74.0933685  54.3494377  70.5789719
  73.5446625  55.1170158  70.7401505  74.2712021  54.3752975  69.6387939
  77.7656021  37.1376114  67.0743256  78.1112289  36.2515717  67.1825333
  77.8999176  37.3355675  66.1474991  10.8592453  29.6835823  75.5668106
  11.1607170  30.5512924  75.2976913  11.2273130  29.0888157  74.9133530
  41.3363838  68.1575165  86.9765167  42.0472145  67.5178833  87.0191498
  40.5430336  67.6445465  87.1304169  38.7124710   6.5322051  17.1904659
  38.0333023   6.6894908  17.8463802  38.3668556   6.9249635  16.3888893
  52.3002243   7.5146055  22.9177303  53.1157188   7.8577685  23.2830296
  51.6153107   8.0551500  23.3113499   9.4263153  37.1946106  54.3641014
   9.8049393  37.8577957  54.9412155   8.6273851  36.9157104  54.8114929
  67.1593933  43.4738655   5.7679625  67.2685623  43.5205460   4.8181539
  67.0392380  44.3836212   6.0402403  14.0476875  48.1252747  25.0024834
  13.3063087  47.7386436  24.5365410  14.6826534  47.4127274  25.0754662
  44.8917847  59.6608620  17.1346359  44.9322052  58.7884598  17.5264416
  44.7288437  59.4987907  16.2054348   7.5122409   5.1480379  82.6866760
   6.6716557   4.6984005  82.7731323   8.0698624   4.7431993  83.3510513
  65.2495041  42.1182442  56.7260475  66.0039139  41.7349472  57.1734543
  65.5450668  42.9894142  56.4615936  85.8196945  23.1427746  68.5756073
  85.3422623  23.2424297  67.7519836  85.3538971  22.4472294  69.0398102
  83.3363419   5.1670661  35.3041878  82.7714844   4.5951142  35.8238411
  83.9958267   5.4794197  35.9236526  23.0459042  58.4973869  71.0286102
  23.8852386  58.9478912  71.1223984  22.8395100  58.1893158  71.9110641
  14.8319540  44.9222908  66.2561798  15.1975956  44.0385818  66.2162933
  14.4133244  45.0469513  65.4044495  13.3373575   7.4390712  20.3403339
  14.2796211   7.4472198  20.5085735  13.1843615   6.6170826  19.8743305
  59.9443893  63.0979195  63.0896339  59.6972389  63.8586922  63.6153450
  59.4940643  63.2270775  62.2549133  40.2733078  20.5511246  69.8401031
  39.5186920  20.5018482  69.2532883  40.9950142  20.8347244  69.2789078
  54.6884537  49.8686256  14.7667685  54.9743042  49.2802849  15.4656086
  53.9216690  50.3139534  15.1272621  67.5292282  61.5621529   2.8938854
  67.8830185  60.7998428   2.4356875  68.3014450  62.0604439   3.1614902
  23.5640526   9.3788567   8.5598927  23.7914085   8.9645596   7.7274871
  22.8447495   9.9721756   8.3435459  61.7732239  53.1981697  85.7180023
  61.4820709  54.0829353  85.9385834  62.0713692  52.8298187  86.5496674
   3.8661902  41.2409821  15.9679089   2.9450409  41.4976082  16.0110264
   4.1438246  41.4921875  15.0869751  37.5083542  49.4971886  44.3679161
  37.7583008  49.8620949  43.5190353  36.6863022  49.9369049  44.5849648
  79.8981323   9.1500244  26.3677235  80.1755524   8.3693209  25.8883762
  80.6669006   9.4030619  26.8788033  70.5438385   0.7397914  58.4384766
  70.5188980  -0.0798112  57.9446526  70.0431061   1.3565003  57.9044685
  71.0908661  18.8046570  56.0107918  70.1460648  18.8059273  56.1643715
  71.4201202  18.0851784  56.5494690  55.4229164   3.5058675  78.4802780
  55.9714317   4.1212573  77.9937973  55.5405197   3.7534835  79.3973846
  73.3479538   9.7424812  75.9465637  73.4445801  10.5129728  75.3868866
  74.1594925   9.7111597  76.4531784   6.3113389  17.4919758  78.8569489
   6.1378803  16.5522232  78.9117966   6.1041822  17.7213001  77.9510117
   0.9894758  62.1344032  53.6530037   1.1196213  63.0504494  53.4077377
   1.1927309  61.6422806  52.8575592  83.7211456  31.4080257  12.6490650
  83.1094284  31.9691849  13.1256552  83.4645157  31.4990940  11.7314138
  12.7104864  70.7494278  49.2041512  12.2095098  70.1490479  48.6520691
  13.6243896  70.5767746  48.9778709  67.3074265  23.5179043  66.7069550
  67.8420563  23.8907204  66.0059433  67.1013641  24.2620811  67.2726135
  29.0148640  15.4810514  76.0081177  28.8677235  15.9208708  76.8454590
  29.7964115  15.9022970  75.6503983  81.6781387   8.7246246   0.4738984
  80.8078461   8.3264675   0.4567812  81.5201263   9.6531429   0.3032592
  77.4552155  25.5411510  48.2357635  76.8199005  25.3186588  48.9162865
  77.3896255  26.4921112  48.1485558  69.5824966   0.4601586  39.8213768
  68.9194260   1.1417516  39.9309235  70.2346497   0.8516287  39.2402802
  65.0200577  44.6206512  11.5494938  64.2807541  45.0698967  11.9591722
  65.4583511  45.2995148  11.0363903  73.0108566  29.3916931  27.5112438
  73.0244522  30.1462994  26.9225006  73.0669098  29.7711067  28.3882465
  53.3888283  10.1562614  71.8819733  53.5381355  11.0038204  72.3009949
  54.0751534   9.5902176  72.2352219   5.6354966  27.0123653   1.4379122
   5.8445683  27.9458599   1.4046334   4.8155499  26.9330349   0.9504439
   8.4512863  16.2894135  18.8227196   7.8443894  15.6472044  19.1907902
   8.2610569  17.0983925  19.2976894  60.0726929  18.2183743  11.0929747
  59.8010101  18.0148354  10.1979933  59.4390755  18.8699665  11.3932924
  61.5443077  17.7060757  80.1512451  61.4621277  17.4965534  81.0816040
  61.5045891  16.8574657  79.7102051  15.2883568   9.4183283  87.3515701
  15.9958096   9.9412003  87.7288589  14.8010263  10.0341349  86.8042831
  73.0432739  39.1308098  63.0185852  73.6939011  38.9891853  62.3309402
  73.5022049  38.9155731  63.8305473  69.5112076  11.7187824  65.3116684
  69.3702393  11.4201212  66.2100906  68.7392502  12.2481089  65.1113281
  86.3721085  20.8729553  28.8212090  86.5967941  21.7700062  28.5741310
  86.0558929  20.9446487  29.7218208  65.5918427  58.8008881  67.5992432
  65.8892822  58.4004135  66.7823105  64.6393127  58.8406715  67.5135727
  36.6463394  11.2149420  51.7709656  37.2240753  10.5538177  52.1522408
  36.3462334  10.8257532  50.9495621  56.9400482  49.5805473  66.5035782
  57.2679749  49.4060707  67.3857651  56.2479515  48.9323730  66.3727722
   7.6312637  25.0037212  33.9421387   7.1758947  24.5237637  34.6338844
   7.0977716  24.8607941  33.1603546   1.6197538  49.9676971  69.6120911
   2.0058651  49.1591415  69.9488220   2.2608194  50.2944756  68.9808350
  58.9916992  40.7322426  31.5024624  59.8171997  40.9236298  31.0573158
  59.0853043  41.1366806  32.3649597  81.4566803   1.2717066  15.5774145
  80.9005814   1.8350518  15.0392427  82.2328720   1.1167239  15.0391359
  52.8488464  20.8847141  12.4613619  53.2359085  20.3816109  11.7449121
  52.8741951  21.7921581  12.1578274  17.2692356  60.7097015  27.6246777
  16.9591732  61.1296692  28.4270000  16.7618561  61.1233521  26.9263306
  55.3536758  66.1972351  83.0460815  54.4087334  66.3438568  83.0887222
  55.4750786  65.3144073  83.3955154  52.7963676  34.9725227  81.1233063
  53.4425468  35.2817574  81.7581787  52.0876541  35.6141434  81.1710052
  41.3000183  68.0964966  72.2188721  41.1081009  68.0397568  73.1549149
  41.0671997  68.9938583  71.9805984  81.8324432  62.4740601  50.9802437
  81.6367416  62.5417061  50.0457077  82.0989685  61.5630569  51.1038094
  68.7975616  21.4965000   0.5386387  68.2296295  22.2430687   0.3480489
  68.3961029  20.7644901   0.0704203  76.5368423  71.5954437  61.5838509
  76.2221375  70.7355118  61.3050880  75.7903442  72.1791153  61.4485283
   9.2726355  56.0747452  23.2580471   9.5808735  56.3032074  22.3811054
  10.0090647  56.2836151  23.8327446  60.9742928   1.4768625  59.7740211
  61.6694908   2.1223190  59.9017563  60.7742577   1.1626256  60.6557655
  67.2392883  34.1196899  68.9142380  67.1755142  34.8471909  69.5330276
  66.7626495  34.4207573  68.1406631  69.2125931  64.9813766  57.3728333
  69.3796082  64.4420395  58.1457825  69.5093765  64.4448929  56.6377602
  19.6048050  24.7636223  88.3701248  19.0093727  24.9923363  89.0838318
  19.7419968  25.5859585  87.8998260  57.6503792   9.3624611  36.7175255
  57.5821800  10.2950563  36.5129585  57.2827148   9.2828083  37.5976982
  37.1720428  26.9095478  73.8424683  37.4367752  26.8835049  74.7619629
  37.2051888  27.8374672  73.6098785   4.1478705  19.4794655  65.2613602
   4.4877620  18.5998917  65.0968704   4.4407115  19.6873436  66.1486435
  61.3251801  19.4523163  28.6293297  60.7796097  19.0569077  27.9494495
  61.9270172  20.0231228  28.1516209  23.9519329  54.7086105  60.5436363
  23.0729446  54.3690300  60.7118568  23.9206600  55.6155357  60.8481598
  52.1634941   3.9611771  46.4849548  52.5362320   4.7728672  46.1407738
  51.2558060   3.9667203  46.1811371  32.6135216   6.2832952  43.7067719
  31.7998466   6.0304117  44.1429062  32.6494331   7.2352591  43.8000793
   1.6959591  61.3542900  19.4051208   2.2433693  61.9472237  19.9199066
   1.5171515  60.6212997  19.9941730  76.6100159  51.3173065  47.8243065
  77.0652390  50.6247177  48.3031921  76.7829895  52.1115303  48.3297958
  34.0164032  68.1160965  15.7013779  33.6041603  68.9782791  15.6473055
  33.3014336  67.4986572  15.5470362  74.3412857  59.2330627  86.4395828
  74.7358322  59.6233330  87.2194901  74.0950546  59.9813004  85.8957596
  45.5747566  56.8310165   7.3788867  44.7932777  57.2782249   7.0540338
  46.1351395  56.7379799   6.6084657  48.9456863  16.1364956  69.5841370
  48.9296799  15.3810501  70.1717453  49.8114586  16.1050301  69.1771011
  57.5146332   2.3118873  18.4510326  56.9793167   1.9278263  17.7566509
  58.4115067   2.0633645  18.2272339  33.5973549   8.2051001  38.8387222
  33.3564758   9.1311646  38.8635025  33.6217804   7.9392900  39.7579498
  79.2906799  14.9182253  28.8706684  78.4807281  15.4257450  28.9220161
  79.6774597  14.9955196  29.7428246  71.0649796   8.9947014  72.1557007
  70.4850845   8.2446022  72.0241470  71.8631058   8.7669401  71.6788940
   2.7707176  69.2978897  64.9201202   3.4498694  69.7812424  64.4496384
   2.9816582  69.4272385  65.8447876  18.5711479  39.7368660  25.0013332
  17.7155933  39.4140701  25.2842770  19.1316338  38.9609261  25.0006027
   5.1125579   7.9201031  60.0635223   5.4089556   7.3969302  59.3187599
   5.9091439   8.3304520  60.4001160  72.0650940  33.5993996  36.1982651
  71.6925888  32.7281418  36.3338432  71.8681412  33.8045158  35.2842827
  63.5597763  51.9878273   5.9806538  63.1276817  52.2372513   6.7975469
  63.6391220  51.0353508   6.0327964  37.9460220  28.4732513  15.7953014
  37.7817574  29.3629246  16.1079216  37.6529541  27.9098034  16.5114498
  71.0059280  47.5201569  88.3428574  70.4098282  47.7481613  89.0562286
  70.5423508  47.7866516  87.5489349  21.1140156  48.9224472  80.3342743
  21.0286160  49.8196869  80.6566010  20.4214764  48.8363724  79.6791306
  61.7340660  35.6380005  23.1441288  62.5374832  36.1582947  23.1510296
  61.2127266  35.9928474  23.8642120  11.4337797  69.6412430  58.9590187
  12.1933365  69.5460892  59.5336952  10.7983036  69.0093689  59.2953758
  17.2526054  62.2173195  63.6406021  16.8218956  61.6543846  62.9973106
  17.6332569  61.6092110  64.2742767  31.1602135  64.3894730  30.0597782
  31.5778046  63.9136276  30.7777061  31.8870316  64.6702728  29.5037937
  62.9471779   1.4609318  16.0543480  62.4479980   1.0129241  15.3714581
  62.9620361   0.8425890  16.7848701  60.9441032  40.9479103  23.9132957
  60.1740761  40.5205269  23.5382843  61.5818443  40.2420578  24.0195637
  82.2280502  56.8742905  31.4543724  82.4459152  56.6100578  30.5605354
  82.8370819  57.5867119  31.6487103  41.3380470   1.5380791  75.2506409
  42.2867050   1.4282870  75.1856613  41.0891266   1.0217097  76.0172119
  66.8020706  21.0312233   4.1962142  65.9801331  21.2585297   4.6309309
  67.4670486  21.1219025   4.8787217  65.7975006  52.0567780  67.9564743
  65.2559586  51.5655327  67.3386993  65.4636841  52.9525642  67.9078827
  47.3536606  58.0553360  59.8611450  47.5286789  58.9953766  59.8172760
  47.1593285  57.8906975  60.7838402   7.8694987   9.6696463  33.9609718
   7.3869457   9.0664425  34.5262337   7.2687149  10.4021645  33.8241997
  50.2206459  63.7235641  33.5894814  49.6268005  64.4699173  33.5086327
  51.0066948  64.0860748  33.9980659  52.8414040  69.3989334  18.1703129
  53.7916565  69.4766541  18.2552605  52.6746483  69.5109177  17.2344265
  22.7967453  18.3542328  88.3337555  21.9503422  18.7715778  88.1735764
  22.7735939  17.5556183  87.8065872   8.3386211   3.3089163  80.9736328
   7.5579224   2.8129823  80.7270737   7.9977765   4.1053834  81.3806915
  78.8554459  57.3358345  40.9829903  78.7271271  57.7862587  40.1481934
  78.7660828  58.0237617  41.6425362  10.3709078  22.8103065  70.4026947
  10.5579319  21.8737926  70.4674759  10.0577822  22.9305687  69.5061874
  38.9647255  70.8638763  73.7944183  38.3059769  70.1736450  73.7178345
  39.1466331  70.9183121  74.7325974  16.9514198  67.7437973   7.3372827
  16.8926754  68.4534302   7.9769769  17.8118153  67.8562393   6.9331698
  78.1242142  10.7364483  86.4379501  78.9926224  11.1219692  86.5540161
  78.2897263   9.8997574  86.0034561  62.0925446  53.7269058  34.7813072
  61.9915314  53.1480560  34.0256882  62.4033318  54.5528145  34.4104729
  82.3524475  15.3981667  84.7876434  82.5964584  14.4851408  84.9395523
  82.7728500  15.8801146  85.4998398  61.4579430  30.2754669  38.2381516
  62.2136192  29.9763794  37.7324486  61.8019867  30.4212151  39.1194115
  48.7993927  40.7491188  78.5622940  48.0255966  40.1861916  78.5864487
  48.4497299  41.6389885  78.6081161   8.3038063   8.2702427  11.0722570
   8.9910040   7.7218428  10.6937761   7.9584765   7.7532611  11.8000689
  32.6092033   4.7279043  16.1212082  33.1785469   4.7464399  16.8904514
  31.7219162   4.7171011  16.4801483  70.1155548  57.9736176   8.1405392
  69.7326584  58.8424759   8.2618046  70.6214371  58.0456581   7.3311410
  77.7078247  60.3440323  16.3534946  78.1249924  60.3683167  15.4923248
  77.5064468  59.4191856  16.4960842  79.7474594  53.8629456  28.2755508
  78.9738388  53.9604378  28.8307457  79.4214935  53.9947243  27.3852634
   5.4680929  62.5793610  65.0869064   5.9921684  62.3221931  65.8454819
   6.0970984  62.9772301  64.4850006   6.7428837  53.5528069  63.2572250
   7.6894565  53.6838036  63.3126564   6.4623728  53.4450569  64.1660309
  82.5757294   5.1209264  57.2653313  82.1828079   4.5102549  56.6416931
  83.2920532   5.5307055  56.7803688   5.1182537  65.1130295  87.5930557
   4.9974918  65.3974380  88.4990158   5.9647083  65.4798203  87.3376846
  11.8602209  64.4372787  30.4046612  12.6409473  64.4892883  29.8533058
  12.1349983  64.8056641  31.2443142  40.7430763  40.2345543  27.9922142
  41.4690018  40.5686226  27.4652786  40.3073273  41.0193558  28.3245449
  30.9447765  12.3380766  70.3360443  30.7655544  12.5706463  69.4249878
  31.8525372  12.6066675  70.4776764  17.7146053   5.1851611  55.2327385
  18.5327511   4.7403693  55.0113106  17.4541340   5.6245003  54.4231911
  47.3373985  63.6051407  47.0644684  47.4572906  62.7380333  46.6771889
  48.1160469  63.7354546  47.6057205  84.4349747  22.1418877  37.8818626
  83.6362076  22.6683407  37.9143715  84.1940842  21.3151073  38.2997589
  16.7531319  56.7965622  63.6938553  16.0787201  56.4651947  63.1009026
  16.2716255  57.3154297  64.3381882  62.4445839  34.3997765  45.6017532
  61.8424835  34.0051041  44.9709282  62.1436424  35.3044891  45.6863899
  54.7819977  13.8102827  64.4886398  54.2069969  14.5203476  64.2033081
  55.4452972  14.2411623  65.0277176  30.9895592  14.4232121  10.8786697
  31.4886875  13.6068859  10.8519545  30.3826427  14.3090353  11.6100035
  27.1994610   0.5733170  48.7203598  27.3858528   1.0766960  47.9278297
  27.9708996   0.7013332  49.2723770  56.3324623  17.0314064  18.2893562
  56.4559402  17.9368210  18.5743294  55.5068741  17.0432034  17.8051052
  73.0650482  55.2617378  58.4998817  72.9377899  55.5026360  57.5822716
  72.2479553  54.8302917  58.7497749  75.1872482  36.2963104  59.5272636
  75.4125443  35.4120140  59.8162155  75.3033218  36.2747574  58.5773735
  43.6846619  68.5076752  65.7090225  43.6943169  67.8548126  66.4089661
  43.7386436  69.3478699  66.1644211  77.2438965  27.1976070  75.5493469
  77.2028198  26.5937290  76.2908859  78.1611862  27.4685097  75.5116043
  14.0598631  58.7712555   6.5578580  14.7198420  59.2491035   6.0555425
  14.1196642  57.8714638   6.2368717  41.1929588  36.0283508  56.3061333
  41.3593407  35.7291336  55.4122543  40.6249390  35.3558197  56.6820068
  15.2506514  54.7174950  82.9396439  14.9138670  53.9614525  82.4588013
  15.2313175  54.4457436  83.8572540  65.0939713  43.3580055  80.7814331
  64.8727798  43.3320732  79.8505020  64.8476868  42.4934692  81.1103058
  78.5143890   4.7802463  61.2981567  78.7395630   4.1870365  60.5814743
  77.8400574   4.3139210  61.7921677   4.1744642  53.7437134   2.1462610
   3.8152795  54.5062981   2.5997832   3.6495426  53.0081329   2.4618745
  35.9917603  39.4957542  20.7794552  36.5602531  39.0179863  20.1754818
  36.0205612  38.9861946  21.5892391  15.4961023  71.0468216  42.5276833
  15.9656219  70.8362732  41.7205582  15.0625582  71.8798141  42.3422318
  44.3652344  57.5523453  88.5270538  44.4086075  57.4914894  89.4813309
  43.8374062  58.3333244  88.3606033  35.0930099  45.0337257  17.7973766
  34.4846840  45.2306442  18.5096931  34.5691681  44.5435982  17.1636562
  45.5641823  43.1858482  79.2933044  45.8627968  43.1328697  80.2011871
  46.3388481  42.9715805  78.7734756  38.0782166  68.4766006  22.8238945
  38.7360954  67.7818527  22.8513165  37.6468430  68.4317932  23.6772060
  67.0452805  47.2007484  43.2301445  66.6998749  46.8944511  44.0686607
  67.9857483  47.0302467  43.2818565  56.4216537  11.5790873  29.0039673
  57.0707169  12.1603956  28.6076984  55.5898056  11.8475924  28.6138840
  73.2177277  16.0974865   9.0870132  72.8892059  15.3418064   9.5740967
  73.7927017  16.5491161   9.7048111  83.3407059  35.2653885  56.1756516
  84.2590332  35.3561707  56.4299431  83.2061234  35.9466782  55.5168915
  72.6235886  55.4714088   4.2040896  72.1226349  56.2867508   4.2262712
  72.9777756  55.4320107   3.3157034  39.8394012  57.8773842  45.5140648
  39.8341293  58.7938118  45.7904091  40.7595978  57.6181488  45.5616989
  56.5787277  23.1713562  81.1288757  57.4164619  23.2704296  81.5812225
  55.9215736  23.2655811  81.8184433  75.3364792  70.0267258  49.6919403
  74.3986130  70.1482773  49.8398170  75.5754395  70.7254105  49.0828629
  49.9021378  11.7976542  15.3087578  49.1345139  11.2352619  15.4122057
  49.8209457  12.1533470  14.4238157  56.3856621  15.4868040  77.1626663
  57.3217812  15.4161386  77.3495331  55.9580460  15.2039289  77.9709702
  18.1709309   3.0030890  58.9171448  18.5937824   2.4324925  58.2753906
  18.8085766   3.0790617  59.6269836  53.1654625  64.5026779  41.6585274
  53.3887672  64.6140594  40.7344284  53.2236977  65.3842239  42.0269432
  44.8420982  52.1655884  43.2108154  44.7711563  51.2676506  43.5347137
  45.4874344  52.1155510  42.5056419  16.5792789  63.3009186   0.6970568
  16.1395683  64.0115356   0.2302481  15.9906406  62.5520363   0.6026352
  69.5133667  40.9999466  76.8137589  70.4549561  41.1322365  76.9239197
  69.4399796  40.1488457  76.3819351  40.9094391  27.9120560  75.5708313
  40.7274704  28.8397598  75.4208679  41.3626709  27.6256523  74.7778702
  58.5348816  59.4274750  45.4161072  58.7668610  58.6036530  44.9874649
  59.2219009  60.0381584  45.1490784  19.7861195  61.6240158  34.2405548
  19.8824520  60.7568512  33.8468742  18.8786030  61.6498947  34.5438309
   6.8231626  39.2098923   6.7805371   7.2771311  39.7815475   7.3996930
   7.4798226  38.5608292   6.5280614  55.3882790   4.6450520  74.7662201
  55.4400215   5.3205814  74.0900421  56.2269249   4.7000017  75.2243500
  46.6026917  65.3106232  25.4898434  46.5778503  65.3308868  26.4465065
  47.0838814  64.5103073  25.2796440   6.1738424  62.4636345  82.8698807
   7.0376401  62.3099442  82.4871750   5.6487021  62.8055878  82.1463318
  41.2680855  70.2456436  68.0802536  41.7954178  70.7607956  67.4696960
  40.6476212  70.8738403  68.4498825  12.9146919  61.5069008  24.6708183
  13.4733534  62.2349205  24.9430599  12.0372839  61.8856201  24.6164417
  52.8548737  44.7308426  84.9607315  53.4831276  44.4310455  84.3037262
  52.1734276  45.1744118  84.4556427   1.3333795  16.4757442  14.7688379
   0.6360766  16.1316414  15.3270435   1.1126357  17.3997860  14.6519985
  50.2685165  17.9564228  78.3663940  50.1688995  18.9001942  78.4913101
  51.0511971  17.8681068  77.8224792  77.5498276  38.6054420  13.7600565
  78.2514191  39.2552757  13.8015032  77.1760864  38.5999451  14.6412592
  81.7304840  32.6511726  20.2915325  82.2716980  33.0459213  19.6077938
  81.1480408  32.0545769  19.8213654  50.6961479  52.8635979  88.2817841
  51.6279716  52.6553154  88.3492584  50.3830986  52.3277168  87.5530396
  31.8455410  53.7809906  13.3031750  31.2870617  54.4153061  13.7525940
  31.8161983  54.0452271  12.3836374  39.0234909  68.0677872  49.8282394
  38.6884804  67.6792068  50.6363297  38.2788544  68.5487518  49.4671059
  67.9465256  71.2273636  69.9417725  67.7176743  71.4047012  69.0294113
  67.2234802  71.5994415  70.4467392  15.9363165  37.5246048  77.4462204
  15.4750090  36.8276825  76.9796066  15.6494122  37.4350128  78.3550034
   3.5995381  21.6210556   3.0204616   3.6319406  20.7417564   3.3973103
   2.7237921  21.6862926   2.6396134   0.5522463  43.5237274  63.7897186
   0.2562934  44.4241524  63.6559982   1.1173639  43.3432961  63.0385094
  74.7994843  37.2737923  55.4510994  74.8547974  37.5653191  54.5410500
  74.2213745  37.9102364  55.8717613  36.7046967  55.7601051   5.3328228
  36.5197639  54.8328323   5.1838255  37.5736198  55.8948250   4.9546018
  12.4057178  22.9567032  61.5022430  11.5140514  22.6360359  61.6376495
  12.3289423  23.5801582  60.7799950  37.8206139  52.5652008  43.9771156
  36.9999161  52.9267998  43.6425552  38.4442711  52.6838379  43.2607307
  69.1582718  62.3937988  18.5198708  68.7570572  62.1263847  17.6929798
  69.0281830  63.3415108  18.5537643  47.7756729  41.8020515  58.2460632
  48.2571907  40.9802322  58.3408470  48.4360924  42.4356194  57.9655762
  28.2481594  53.7307892  52.4311333  27.3773422  54.0779343  52.2377434
  28.2184772  53.5151863  53.3632622  83.4764557  61.1479111  69.6739273
  83.7498474  60.9737740  68.7732773  82.7032013  60.5980072  69.8000793
  15.0314102  21.5378723   2.6929848  15.3423929  21.3595066   3.5805135
  15.8069229  21.8476982   2.2252033  52.6010704   0.8965309  86.0697174
  53.4319420   0.9318550  85.5957565  52.7631721   0.2901570  86.7923965
   1.7570413  50.2282867  57.2824249   1.2396361  49.8016052  57.9654121
   1.9730282  49.5244713  56.6706848  69.0666504  44.2761154  76.7832947
  68.6990051  43.4347076  77.0536728  69.0944519  44.2293472  75.8276367
  85.7059555  20.7164230  31.5715027  86.3271027  21.0657368  32.2105598
  85.4388885  19.8717518  31.9340439  59.8521423  53.9413223  76.6757355
  59.9763985  54.4808731  77.4565506  60.0804253  53.0555801  76.9578400
  65.5899124  60.2304993  62.8137627  65.6745071  60.9759598  62.2193222
  66.2480087  60.3881073  63.4907417  81.8140869  17.2730064  20.7210674
  82.1475143  17.4872303  19.8497658  81.6209183  18.1218796  21.1189804
  34.0073586   1.3363831  82.3380585  34.0858612   1.5871680  81.4176331
  33.7830124   2.1499770  82.7896805  59.8754921  24.4770603  75.5311661
  60.2283401  25.2186031  76.0229492  59.8356361  23.7641106  76.1686249
  30.1035042  42.0214157   2.4484341  29.3088970  41.5430679   2.6851087
  29.8058624  42.6897011   1.8311526  53.1990509  28.9635868   3.7921317
  53.9069557  28.8818493   4.4312081  53.4075279  29.7603664   3.3043716
  78.5320816  29.1925640  29.5007000  79.2145920  28.5227280  29.5423584
  78.9853897  29.9775906  29.1933193  81.4936600  52.1175880   8.1803627
  80.9724350  52.6700974   7.5978761  80.8467865  51.6303940   8.6906796
  74.1634140  17.3818016  37.5759621  73.5496063  16.7342739  37.2292862
  74.4131165  17.9064236  36.8152695  14.6708384  41.5347672   6.6524506
  14.9391212  40.9639397   7.3724575  15.0623970  41.1385727   5.8740282
   4.0733109   4.4837241  67.4667358   4.0287404   5.3978992  67.1865082
   4.3747010   4.5258298  68.3742752  65.9827652   6.4677811  10.9496546
  65.5232315   5.9704204  10.2731228  66.5767212   7.0402980  10.4641943
  73.2245331   8.4574394  70.6046371  72.7535858   7.8694692  70.0140991
  73.8823700   7.9012890  71.0219727  20.4800129  36.5399094  61.8557434
  20.5388470  37.0044289  62.6906013  20.6787148  37.2052650  61.1969185
  49.9448853   5.2230244  50.3889847  50.3683472   4.6679425  49.7341576
  49.6824036   6.0062776  49.9054031   9.0124950  58.0996895  13.5265236
   9.0656071  58.4312592  14.4228888   8.3940859  58.6859589  13.0905333
  16.0111618  37.8862534   1.0863177  15.7758675  38.7195778   0.6783525
  15.9181900  37.2415237   0.3849522  34.4872055  57.3644981   6.1080112
  34.7847290  57.0185318   5.2665715  34.5143661  56.6122932   6.6993518
  79.6600037  47.5365181  66.7853088  80.0657272  46.7680969  66.3838730
  80.3723297  48.1714058  66.8610535   1.7085676  18.9259415  44.0012016
   1.6429918  18.1478615  44.5548477   2.6480925  19.0991306  43.9417839
  35.9170837  57.1367912   2.3774855  35.4848022  56.3621140   2.7369862
  35.1987610  57.7218094   2.1366568   5.5384593  37.5382347   3.3848910
   5.3261657  38.0149345   4.1873369   6.3987837  37.1545334   3.5547364
  52.3755074  25.9949684  20.6045418  52.1051483  26.8603992  20.9114113
  53.3197289  25.9700394  20.7596283  72.6786957  41.9108887  63.0905075
  72.8046417  42.4283562  63.8858719  72.7829819  41.0032997  63.3762321
  69.8128204  21.6431923  77.8162460  69.6464767  20.7525196  78.1248932
  69.7506485  22.1848412  78.6030045  42.0693703  55.1538162  38.6836624
  42.6934624  54.6601143  38.1516876  42.0606766  54.6994476  39.5261040
  80.9563904  71.1539383  86.1294174  80.9882584  71.6481781  85.3103104
  81.4124069  70.3355255  85.9332352  13.9661636  54.6018105   4.6486058
  14.0173550  53.8089790   5.1824861  13.5037928  55.2326775   5.2003775
   6.2022371  63.0038185  10.0071850   6.1847153  63.9545898  10.1165438
   6.6425633  62.6803970  10.7931528  60.2414818  67.1514664  58.9015350
  60.2402039  66.6588974  59.7222710  59.7230530  67.9335480  59.0907593
  63.3577156  17.2813530  69.3791733  63.1636887  18.1755028  69.6603851
  62.6884727  17.0860081  68.7232819  84.5038223  48.8147163  39.2340240
  84.7010880  49.6390114  38.7892113  85.3308411  48.3328896  39.2233162
  56.0297699  30.7069263  46.9825706  55.4671783  31.4795017  46.9292030
  55.5366974  30.0201187  46.5337868  61.8041229  43.4689217  68.6242981
  61.9684906  44.4019394  68.4875793  62.6355858  43.1244965  68.9502945
  37.4214287  50.5201263  50.8792191  36.8561821  50.8993492  50.2062263
  37.1651993  50.9661942  51.6864395  59.5885124  67.4696503   7.5497875
  60.0072517  68.3080902   7.3551025  60.2206841  66.8127594   7.2580934
   9.6483850  51.6226158  57.5377731   9.0966187  50.9217491  57.1905327
  10.5218544  51.4313164  57.1961784  66.8679657  39.9695740  15.5650558
  67.4897079  39.8961143  16.2891216  66.9236908  39.1265907  15.1150513
  81.1534653  41.0131874  69.4265442  81.5984573  40.9315529  68.5830078
  81.8572006  41.1807632  70.0533600  58.3247108  32.6410866  87.6036606
  58.0995598  32.5180206  88.5258255  58.3055305  33.5896721  87.4769592
   1.3822038  25.0794048  16.8730888   2.2099302  25.5237389  16.6896000
   0.7392304  25.5377846  16.3320675  20.6005230   6.4285717  53.8062363
  20.4366016   5.6213408  54.2938194  20.3743553   6.2121305  52.9016724
  14.8931904  12.6440401  65.6944504  15.5830126  12.6360254  66.3580093
  14.4159517  13.4581213  65.8549042  33.1763840  23.7999535  19.6505051
  33.4524689  23.2523518  18.9155617  32.7844353  23.1866570  20.2721748
  57.4706497  54.3889198  85.1378860  56.7368355  53.8699722  85.4671936
  58.1620865  54.2656631  85.7882385  76.3526611  14.7501402  21.4567375
  75.5599670  14.2179928  21.3882771  77.0682602  14.1362343  21.2916203
  40.9590492   3.5310395  44.5851898  41.4581528   4.3405862  44.6936531
  40.9756317   3.3638766  43.6428452   0.4581038   8.0027218  59.7237549
   1.1671699   7.5683746  60.1978874  -0.1440616   7.2954116  59.4927979
  30.5657806   6.5433035  70.7642059  29.9104271   6.3481560  70.0943832
  30.4771061   5.8333478  71.4000702  80.1143494   2.6316650  64.0491867
  80.3882980   2.7299449  64.9610672  79.1606598   2.5617187  64.0918121
  78.8398895  58.0792313  21.6627636  78.6393967  58.2276878  22.5868835
  79.4346542  58.7919312  21.4292221   5.8424020  15.5444365  74.3764038
   5.9499612  14.6672554  74.0086899   6.6880403  15.9694710  74.2333221
   9.2713585  16.5199890  23.3055954   9.4582090  16.3650703  24.2315121
   8.9489908  17.4207096  23.2737503  48.5771255  19.4209442  18.7916927
  48.0677185  18.7677174  18.3120804  49.2349129  19.7199116  18.1638660
  -0.2530201  56.0197487  64.9755096   0.6193424  56.3840485  65.1255112
  -0.2156533  55.6670303  64.0864487  42.4491768   1.6120149  28.3796635
  42.8772163   1.5201952  29.2308884  41.7669106   2.2676616  28.5241356
  56.4558601  47.4648399  87.6783676  57.1929855  47.3629265  88.2804413
  56.7624512  47.0803757  86.8571396  22.8688126  19.4219837   2.0010374
  22.3749542  18.7983265   2.5333774  23.0911865  18.9357834   1.2070663
  46.6212654  12.5689278  68.8934708  46.0263214  13.3172731  68.8460007
  46.3899155  12.1305904  69.7123566  78.0444565  69.2400513  42.6928291
  77.4378433  68.5421906  42.9403000  78.8425827  69.0495911  43.1857262
  62.2206612  58.6441612  83.9920807  61.6171227  57.9118729  83.8666992
  62.7526360  58.6550331  83.1963959   7.3803411  16.0516014  34.5229225
   7.3970094  16.9319229  34.1474380   8.0305777  15.5634279  34.0178337
  53.7616043  57.2820663  38.4594040  53.9200478  57.3128319  39.4028969
  53.1367416  56.5660934  38.3446922  19.5597401  40.2593765   7.2375956
  19.6731243  40.8399925   7.9900990  18.6331120  40.0201797   7.2571101
  13.6691313  41.7759132  63.0445824  12.8059216  42.1653557  63.1839981
  13.8510532  41.9227486  62.1163712  67.8229294  28.2765331  70.1231232
  67.7044067  28.7347832  70.9551010  66.9734573  28.3471737  69.6876450
  72.5368881  46.8896637  52.6510887  71.8757401  47.4115715  52.1964073
  72.5935059  46.0800247  52.1436348  84.9612427   7.2909288  69.6124268
  85.4522705   6.4722080  69.6818619  85.5164108   7.8585739  69.0778275
  15.4445314   9.9802999  67.5470886  15.7412586  10.8703766  67.3574905
  14.7068281   9.8421068  66.9530106  29.4915829  18.4957981  17.3332081
  30.1121845  18.4145412  16.6089973  29.5362129  17.6518841  17.7827072
   2.6657548  55.0366974  35.4837761   2.8722057  55.9705696  35.5224419
   3.4328272  54.6060066  35.8610535  60.8099403  24.8619385   3.5806875
  61.0339317  24.1684952   2.9600439  61.5626297  24.9080238   4.1702342
  38.3548317  54.6904640  53.4901543  38.9240112  54.4870071  54.2323647
  37.5407410  54.9969635  53.8895874   2.4382446  26.4804153  43.6378136
   3.1872284  26.0551929  43.2201500   1.6743408  26.0991001  43.2050514
   8.1843615  49.7503204  38.9363251   7.4070621  49.6220207  39.4799957
   8.9193573  49.6413879  39.5397720  79.4485397   2.4697673  87.7455444
  80.0229263   2.6059110  88.4990463  79.9531326   2.7915368  86.9984970
  76.9215088  25.8478851  18.2392044  77.1647034  25.2847519  17.5043774
  75.9679794  25.7797089  18.2878704  82.5813980  45.0718193  30.3162975
  82.6821671  44.4432526  31.0311279  81.7043076  45.4350929  30.4386559
  49.3525162  27.3063049  66.4131546  48.9008293  27.9287643  65.8432770
  49.2619095  26.4641113  65.9673615  73.8594589   5.5233693   2.8413141
  74.4062653   5.7857294   2.1007743  73.6521606   4.6043105   2.6722269
  59.5652313  29.8995609   5.0345583  59.9670105  29.6202145   5.8572187
  58.9692230  30.6049271   5.2864790  19.2078857  41.0384026  16.5541229
  18.4827442  41.0997734  15.9323225  18.8026218  41.1809196  17.4095078
   2.1301792   9.2283735  57.9949074   2.9270697   8.8783569  58.3932610
   1.4198331   8.8772650  58.5319023  72.9630737  21.7174110  53.2787476
  72.4309692  22.5130653  53.2734566  73.0033035  21.4500713  52.3605194
  48.4061775  69.7466278  58.6233292  48.4842911  69.7976685  59.5759697
  49.2085915  69.3081055  58.3403702  25.4521561  55.7403412  80.8554535
  25.5980301  55.8012695  81.7995071  25.9190655  54.9474792  80.5916290
  28.5593433   4.9883280  52.7117424  27.6920757   5.0681014  53.1088753
  28.6789532   5.8074307  52.2311211  22.0738640  49.0288353  56.7659225
  21.8138790  48.9684258  55.8466873  21.9422626  49.9495888  56.9920387
   5.3690462  43.4690399  51.6961594   4.9130020  43.2315636  50.8887825
   5.7386279  44.3336563  51.5170441  21.2951393   0.8374711   4.2549872
  21.0626221  -0.0752745   4.4254646  21.8784103   0.7984942   3.4970241
  17.4370098  15.3001108  71.7289658  17.6035366  14.8778696  72.5717087
  18.0715275  14.9028254  71.1324921  20.2137947   8.9600420   9.6358042
  20.0575523   9.5751772  10.3523445  20.9152126   8.3927345   9.9558153
   6.0445862  44.9470406  21.6940594   5.3544159  45.1002312  21.0487442
   6.0892329  43.9943466  21.7754192  75.0592422  68.8308258  42.4539490
  74.2397690  68.6387787  41.9980812  75.6691895  69.0746231  41.7576981
  65.2291718  55.8067322  31.9539413  65.6652756  56.5760498  31.5876217
  64.5997620  55.5454597  31.2817669  27.5170898  70.4247894  79.7208633
  27.3148079  69.4892502  79.7302704  26.7973995  70.8303146  80.2044220
  75.0543976  19.5064602  41.8654213  75.9766159  19.6552811  41.6566010
  74.7421722  18.9263706  41.1709862  42.0473900  14.5963774  11.7976236
  41.2195549  14.8361025  12.2141027  41.9641647  14.9144325  10.8986540
  13.1160717  18.2530479  10.4968481  13.2458820  17.3166180  10.6467810
  12.1957827  18.4047470  10.7119932  80.0451965  56.2432823  13.9896250
  80.9520264  56.0823631  14.2503805  79.9458847  55.7698860  13.1636305
   0.7368466  62.9537315  58.1323128   0.1871600  63.7294235  58.2435837
   0.2021913  62.2318726  58.4629097  46.8790932  49.1799011  40.2435837
  47.0426559  48.8991890  39.3432045  47.6856422  48.9644928  40.7118874
  86.8285446  49.1465187  36.7080803  86.0860672  49.1821251  36.1050186
  87.3304596  48.3821449  36.4251556  25.8337135  20.0623379  85.9510422
  25.9324646  20.4483795  86.8213577  25.3604717  19.2445049  86.1040802
  40.3709641  62.6482697  56.1277542  40.0676765  62.1800385  55.3499298
  41.2291107  62.2685432  56.3164825  76.4948959  49.6148109  37.5132332
  76.6841049  50.4677505  37.9042854  76.1574936  49.8205719  36.6414261
  41.4476738  20.4376812   3.6352768  40.9461708  19.9776535   4.3084030
  42.1867676  20.8211632   4.1074171  68.5617981  54.3382912  71.2785339
  68.3341522  54.6333008  70.3968506  69.4918213  54.1182938  71.2248230
  13.8681011  23.5097771  83.6086044  13.1971474  22.9594898  84.0126266
  13.6684914  24.3944893  83.9146652  69.1526337  70.0343170  43.9793968
  68.2008438  70.1352615  43.9912300  69.4785461  70.8741150  43.6557426
  20.4372272  37.6740837  25.2218876  21.1334953  37.6639633  25.8786526
  20.8163624  38.1423340  24.4780903  46.0952759  69.6661530  25.4925251
  45.6218376  69.3142242  26.2463417  47.0175438  69.6144333  25.7434788
   7.8194399  14.7677135  84.7808990   8.0439854  14.2609911  84.0004807
   8.4782362  14.5155821  85.4279251  78.4715195  62.6386223  51.1455345
  78.3332138  61.8901901  50.5650558  79.0639496  63.2123337  50.6596222
  73.5020218   3.7754393  26.7703133  74.2572632   3.4864705  27.2824993
  73.8799973   4.2798219  26.0499210  12.4893379   5.7440019  23.8248138
  13.4439869   5.6957040  23.7743664  12.3167105   6.5164976  24.3630352
  30.7059860  30.1020813  88.8505402  30.2515106  30.8589134  89.2205200
  31.4288502  30.4786053  88.3486099  64.4390564  26.4709091  29.5487137
  65.3718643  26.5176487  29.7582760  64.1995010  27.3691616  29.3207073
  36.8982086  22.7206669  73.6204147  36.0808449  22.5961132  73.1380920
  37.5193863  22.1289463  73.1958771  61.8832474  43.4657555   8.6423674
  61.3526268  42.8328362   8.1585398  62.7857819  43.2525673   8.4052696
  20.7376308  12.7782812  45.5668106  21.0253735  12.1797638  46.2561646
  21.1363983  13.6175995  45.7965050  57.5563698  56.9794846   2.1733577
  57.4659004  57.8208084   2.6208208  57.1193085  56.3531265   2.7503159
  36.2017403  68.2707214   3.9093528  36.3016357  68.8353882   3.1429296
  36.5768929  68.7766571   4.6301312  34.4132843  26.4337196  27.2467861
  35.3551369  26.4491844  27.0767708  34.0124130  26.5421982  26.3843670
  28.2706223  67.3919144  20.9593430  27.4540882  66.8929062  20.9371471
  28.8631306  66.8582687  21.4888573  35.9687462  25.4350014  76.8927078
  35.4828796  26.2239208  77.1330643  36.8576202  25.7447567  76.7189713
  82.4912643  17.3881474  77.5777969  82.8958969  17.5554256  78.4289856
  83.1309662  17.7078133  76.9415359  79.4246292  44.5714073  63.3195152
  80.2740479  44.8266182  62.9595337  78.8041840  44.7368088  62.6096420
  12.9751806  47.7808228   2.4624603  12.7052956  47.5919228   3.3611870
  13.6074648  48.4944496   2.5472353  23.3991470  47.6136131  78.4509735
  23.2786312  46.8396339  77.9008255  22.5150223  47.8454170  78.7352600
  24.8700905  67.4218903  23.2572803  24.7604942  68.1073303  23.9163704
  24.4090710  67.7542953  22.4870853  64.8929367  22.4755592  31.3285313
  63.9630089  22.5109291  31.5526218  65.3110733  23.0757542  31.9459133
  23.0778446   6.1112151  29.2316666  22.1246262   6.0398560  29.2818317
  23.3893719   5.7442036  30.0590019   1.0710574  68.9855347  40.6549263
   1.9548094  69.2701874  40.4221420   1.2047757  68.3015518  41.3110619
  86.5191269  49.8657417  79.7150192  87.0684357  50.5362091  80.1211777
  85.7429962  50.3401756  79.4170685  60.5721283   5.5281100  58.9733086
  59.9084816   4.9396234  58.6134720  60.6448402   6.2306962  58.3273087
  64.2335663  54.6375923   1.0529792  65.1443405  54.3586235   1.1473274
  64.1882782  55.4704056   1.5226655   0.9646339  12.1097145  63.8812447
   0.9389647  12.7439518  64.5977097   0.5735865  12.5707541  63.1391144
  80.6219559  69.4516602  17.9695282  81.2887726  69.0435410  18.5218182
  80.7477341  70.3919144  18.0973663   4.6245589  23.8295956  75.7027588
   5.3099108  24.4901104  75.6015472   4.7096329  23.5330734  76.6088867
  62.1869316  25.8173676  51.9377441  61.6460419  25.0357304  51.8249931
  62.4667702  26.0449276  51.0511017  52.8483658  66.7785568  68.3428497
  52.0072136  66.3646622  68.1495056  53.1502075  66.3459320  69.1415710
  27.8172226  16.3783455  40.4754066  27.8942947  15.4605932  40.2145958
  26.8742218  16.5380955  40.5136375  17.3727131  60.7770691  38.8701820
  17.7504292  60.5186615  39.7108917  16.4766464  60.4415398  38.8969421
  26.1131687  32.9380150   9.8721991  25.4135494  32.2847443   9.8742895
  26.6150169  32.7489662   9.0793304  13.7506437  13.3958826  28.7124119
  13.1354065  13.4390421  27.9803925  14.5817127  13.1404037  28.3120537
  10.4321356  36.7343292  14.8298931  11.1020613  37.1472168  15.3748302
  10.0121517  36.0974655  15.4080343  69.6993332  40.3891563   5.2623320
  70.0408173  40.2920685   4.3734021  68.7976608  40.0724335   5.2084556
  26.9879646  67.6613388  25.4338646  26.8488388  67.1262589  24.6524754
  27.9162769  67.5493851  25.6386433  86.1617126  53.4276123  16.3795700
  85.9055710  54.3354492  16.5422268  87.1074905  53.4155884  16.5265369
  53.8066750  10.7538853   8.0747023  54.2187042  11.5604839   7.7650833
  52.9032860  11.0050154   8.2671976   4.7088442  51.7106018  25.9713879
   4.8396916  50.9619522  26.5533104   5.4157724  51.6416283  25.3297291
  50.8165283  44.6987953  37.7624207  50.6333656  45.4136429  38.3720703
  50.2053680  44.8383827  37.0390739  45.9715347  67.4969559  48.0072098
  45.7364540  67.1650848  48.8737183  45.3390808  67.0898972  47.4151497
  65.7734756  59.8418350  11.1460590  65.3905945  60.1958771  11.9487324
  66.5215759  59.3250351  11.4452362   4.8482728   4.5832567  83.1071320
   4.6090431   4.6566753  84.0310440   4.4750752   3.7468970  82.8288193
  25.3069153  38.5038261   6.4268441  25.8457451  38.2380180   5.6816983
  25.4511890  39.4470711   6.5023708   0.1523796  30.6991673  82.1242294
  -0.4416380  31.4218349  82.3270264   0.5392137  30.9363976  81.2814331
  57.7054939  29.8385372  63.9347305  57.8336792  30.7180882  64.2899628
  56.7610741  29.7725658  63.7934914  11.8119268  60.8101730  76.7099152
  10.9204969  60.7705383  77.0563431  12.2284489  61.5184250  77.2009506
  55.5004768  18.6142464  26.0694275  55.3101578  18.3861065  26.9793510
  56.4108086  18.9098225  26.0819836  66.7114410  31.4571896  58.8852119
  66.2100754  30.6732464  58.6609497  66.9345627  31.8485489  58.0406456
  16.1924000   3.8647304  12.0972919  17.1235828   3.7817898  12.3028402
  16.0776367   4.7885671  11.8746109  57.4622192  20.4352798  22.4374275
  57.7971802  21.1683636  21.9210739  58.2342796  20.0799103  22.8777294
  74.8858337   1.9219373  70.4460068  75.2926102   1.9194030  69.5795441
  74.5442963   2.8103340  70.5476532  76.5820770  68.0220718  27.9091034
  76.4054642  68.1845169  28.8357372  76.1903763  67.1657791  27.7371464
  60.1316910   1.6488092  48.9694481  60.5738602   2.1958516  48.3202438
  59.7358055   0.9430099  48.4582176  27.7598782   8.8545170  24.8968773
  28.5116329   9.3954296  24.6549873  28.1296673   8.1611881  25.4434891
  43.1360893  15.3156824  55.2587128  44.0815468  15.3722935  55.1203728
  42.7608604  15.8794031  54.5822105  33.9991455  10.7228041  78.3290558
  33.7778816  10.9251995  77.4200363  33.5753479  11.4137058  78.8382492
   1.6924200  43.5445595  10.1155758   0.7754256  43.4188385   9.8715534
   1.7149404  44.4095879  10.5247831  15.0779715   0.4956093  73.6897812
  15.9676294   0.7440672  73.9407959  14.5467052   1.2638819  73.8989410
  23.0073853  31.2769318  88.7918854  22.8239689  30.3456287  88.9154358
  23.0524387  31.6320057  89.6796494  81.3880997   0.7537902  32.8217659
  81.7280502   0.4839587  33.6749115  80.4748611   0.9857827  32.9903145
  66.5735550  35.7981720  71.0445328  66.3826675  36.7203026  70.8728485
  67.3439941  35.8147430  71.6123123   8.2841101  16.8058300  73.8535309
   8.5232067  17.4153080  73.1552429   8.6173563  17.2143078  74.6524811
  79.3491669  65.9236984  55.3562965  79.7699509  65.6015549  54.5591812
  78.4472046  65.6091614  55.2948990  29.1473465  55.0838470  19.0887280
  28.8145847  54.8788223  19.9624939  29.8139744  54.4170456  18.9237595
  63.5163345  43.6377144  24.3545036  62.6839752  43.2302818  24.5941067
  64.1820984  43.0336037  24.6831970   8.0479269  40.2278862   9.0452108
   7.9568167  40.8454170   9.7708721   8.9540682  40.3316498   8.7547436
  41.6280098  68.0239029  49.1114349  40.7309685  68.1516037  49.4200516
  41.5473175  67.3952332  48.3941574  26.5946560  25.0903797  85.1345673
  26.7792244  24.2295837  85.5103226  27.3983345  25.5907345  85.2759018
  62.4635162   3.6017945  17.8561478  62.6450500   2.7823248  17.3959885
  62.7745323   3.4493804  18.7484894  54.7646866   5.4110160  36.0020714
  54.4292107   4.5180321  35.9228973  55.3089828   5.5322518  35.2240753
  26.9320164   7.3456478  37.2923508  26.1911869   7.3791509  37.8975601
  27.2237186   8.2544651  37.2202988  17.4543591  68.9718552  85.5041656
  16.6152287  68.5943680  85.7679749  17.6555157  68.5486984  84.6694717
  54.0150566  47.8216591   6.5482941  53.0829353  47.6055450   6.5742388
  54.0785217  48.6630211   7.0003066  67.3961792  21.1831913  86.1260071
  67.2805481  20.6656494  86.9228897  68.1622925  20.7988625  85.6998672
  32.8045883  54.6657372  49.4458466  32.6992607  54.6934395  48.4948616
  31.9297695  54.4641495  49.7779427  67.5324707   8.5824671  55.5429726
  67.6420822   7.6391888  55.6631508  68.0313644   8.7825794  54.7509537
  78.4860001  10.0592299  33.3847008  78.6311798   9.9147310  34.3197289
  77.5536270  10.2646160  33.3160133  80.8642654  52.7677422  59.1805840
  80.6141205  52.0461807  58.6035118  80.5409470  52.5076904  60.0431747
  74.4318390   9.2973156  10.9052038  73.9402161   8.4760714  10.9148083
  74.6943283   9.4299984  11.8160982  75.3268051  27.6751289  42.7043457
  75.0436401  28.5892658  42.6843109  74.5971146  27.1898632  42.3192444
   3.3176324  30.6408329  59.0846176   3.1646614  30.7241001  60.0258369
   3.9428375  29.9202557  59.0063972  57.2648087  64.0284119   7.3877392
  57.5680771  63.3030891   6.8416929  56.7664909  64.5859756   6.7902150
  28.6391792  52.5599899  34.3926926  28.1871719  52.3709564  33.5703850
  28.7295399  51.7071800  34.8178711  23.4717464  23.7760658  15.4612303
  22.7722969  23.3978405  14.9283628  24.0830498  24.1476974  14.8252821
  26.6898270  55.4396706  15.8016319  26.6305962  54.5056381  15.6008530
  26.0525761  55.8510437  15.2177525  14.9090824  70.1333466  47.5319405
  15.2423668  69.3497162  47.9690628  14.7007885  69.8421326  46.6442223
  86.3111115  46.7089844  67.2853012  86.8983078  46.0487099  66.9172363
  85.4614716  46.2712975  67.3378754  69.9828796   8.4218912  20.7806854
  69.7445221   9.2690592  20.4042244  70.8520355   8.2375622  20.4245605
  57.6876755  70.5221863  15.6824417  56.9630775  70.8617477  15.1571980
  57.3756638  69.6755829  16.0020409   3.5300624  15.1858234  15.7654152
   2.7378159  15.6017761  15.4254742   3.4287620  14.2602568  15.5433865
  81.1716080  70.8639145  45.8535042  81.5706177  71.2130051  45.0565338
  81.3609543  69.9260559  45.8251610  35.3829918  42.8501663  22.7210464
  34.5724030  42.3527718  22.6125183  36.0136681  42.4071579  22.1534023
  23.4374809  10.3432436   2.7215638  23.8472652  10.9945221   3.2908998
  22.9142208   9.8029280   3.3135860  52.4856911  60.5381660  32.0634003
  53.0678215  61.2784042  32.2348671  53.0500755  59.8777046  31.6615314
  13.0568733  14.0906086  59.6766739  13.2118702  14.4906521  58.8210030
  13.8136864  14.3492069  60.2025948  79.1363144  53.9632225  18.8625221
  79.6846542  53.9677773  18.0779610  79.0649872  54.8850594  19.1102333
  81.8050385  55.8123665  46.4076195  80.9673538  56.2649002  46.5062103
  81.6125717  54.9012299  46.6290131  78.6276855  33.0816498  49.3923264
  78.8179703  32.1978264  49.0778770  78.2834930  33.5397415  48.6255684
  31.1050472  51.1030769  12.8520365  31.4113026  51.9550705  13.1627464
  31.7918968  50.4908524  13.1159515  32.9844742  33.1473274   1.6077280
  33.4019318  32.5760956   0.9630133  32.2941551  33.5956268   1.1191401
  39.2880783  67.2125931  31.2975979  38.9346123  67.5715103  30.4836750
  38.9266472  67.7737350  31.9836845  57.3137169  26.4703960  18.3911495
  58.1755333  26.7952824  18.1304626  57.0397148  27.0571651  19.0960293
  60.1613350  49.3861885  22.2713585  60.0105782  48.9317474  23.1002064
  59.3664055  49.2265091  21.7626171   2.2308409  45.8582954  29.5220909
   1.5965155  46.5121574  29.8159065   2.9312458  45.8944244  30.1735191
  33.1720314  42.8851166  42.6043510  33.8574905  42.2171478  42.5904274
  32.3644028  42.4032707  42.4260406  21.6875439  60.4731903  47.1696968
  22.0054169  59.6780319  46.7420082  20.9793301  60.1722031  47.7389679
  77.6844635  16.8309917  59.9230270  77.8882446  15.9374437  59.6468506
  77.1767654  17.1958084  59.1981926  32.2925110  28.7917957  27.4832916
  32.0487251  28.2671318  26.7207127  32.4852257  28.1482067  28.1651192
  41.4785156  41.3577080  85.3958893  41.7846527  42.2420349  85.1947098
  40.7632332  41.2055664  84.7782669  32.9025650  52.0213203  55.2750206
  32.5435715  52.8652573  55.5491066  32.1639519  51.4155731  55.3362923
   0.5399439  38.8909912  48.1315155   0.2450467  38.0132942  47.8887939
   1.4927503  38.8554115  48.0471001  50.5546265  16.9099407  58.7932968
  49.6477661  17.2093430  58.8580627  50.9803047  17.5555744  58.2292175
  18.9725418  30.4315147  25.5533886  18.8502159  29.5117512  25.7885532
  19.8157253  30.6675167  25.9401398  37.0364685  67.8411789  25.9696312
  37.5169792  67.6675949  26.7790813  36.1165352  67.7262802  26.2078571
  61.9411316  38.2457390   3.2508533  61.2873116  38.1607475   2.5569286
  62.5743065  38.8761292   2.9074464  45.2429276  66.5648041   3.9318032
  46.0380745  66.8546600   3.4846451  45.0541039  67.2615509   4.5603919
   5.6501822  62.0749664   5.0373154   5.0622301  61.6272392   5.6456604
   5.6936769  61.4959450   4.2763462  61.3215828  64.7467422  77.6056137
  62.1392860  65.0213013  78.0205994  61.0174751  65.5245056  77.1378174
  23.7285900  60.2616501  49.2209206  24.2992916  60.7161102  49.8405991
  23.1893196  60.9544411  48.8395271  10.9766445  39.4207802  27.4268360
  11.5069389  39.1798859  28.1864338  10.1312866  39.6761246  27.7961597
   0.8211757  24.0959854  78.4360733   0.4203811  23.9607391  79.2947388
   1.3063825  23.2881107  78.2683029   9.7029753  21.1317234  61.7864189
   9.7282152  20.5405064  61.0340500   9.5584002  21.9979324  61.4056168
  56.6708412  29.4830265  58.5181999  56.6053276  29.1040497  57.6416626
  56.1005592  28.9363651  59.0587311  46.6633911  54.3022461  74.0058060
  46.1331635  54.8210373  73.4008713  46.0763359  53.6071701  74.3032455
  39.4341545  30.0737724  11.7581825  39.0614929  30.4411907  10.9567089
  40.0189552  30.7571678  12.0856066  66.9223557  67.9923019  85.4675598
  66.6134949  67.8190460  86.3568420  66.1944199  67.7273331  84.9053040
  80.9837952  49.2761497  19.7267532  81.5068130  49.9161758  20.2095051
  80.4033127  49.8050842  19.1794872   0.4953496  24.4919796  22.1869907
   0.4230423  24.3668556  21.2407627  -0.2207574  25.0885029  22.4051208
  15.5610065  10.1910486   7.0011306  15.9879417   9.4259863   7.3866649
  16.1081314  10.4169617   6.2489014  71.9459305   0.3607033  88.1836014
  71.8184204   0.6728192  89.0794525  71.1161194   0.5474298  87.7445221
   4.6343303  10.5564699  30.5251045   5.4754586  10.1265678  30.3704472
   4.8082333  11.1746521  31.2349224  46.9067726   7.9033480  37.5423965
  46.9169655   7.8564625  36.5863991  46.2568855   7.2523823  37.8072052
  66.9501419  31.5798149  70.9015121  67.6395721  31.9913559  70.3804016
  67.4189072  31.1158066  71.5951920  42.9851265  10.7230282  88.3317490
  42.0462685  10.8948956  88.4041290  43.2927246  10.6879387  89.2374954
  50.6939240  69.5115662  43.4713402  49.9542046  69.8305359  43.9883575
  50.3992996  68.6686859  43.1263924   3.5778575  39.9029770  76.3507614
   3.6761627  40.5241776  77.0723419   3.2033904  40.4208984  75.6381836
  33.0558510  61.2614784   5.7371230  32.1444817  61.0687332   5.5169315
  33.3246841  61.9161034   5.0925870  53.9048538  10.2632742  12.9990616
  52.9493561  10.2963257  13.0456247  54.0889816   9.6404066  12.2959509
  73.8040695  69.4439316  52.4510727  74.4860611  70.1146164  52.4150429
  74.0722351  68.7944870  51.8010445  83.6006927  32.0680580  41.1085052
  83.2039871  31.2974682  40.7022476  83.7228241  31.8196239  42.0247955
  10.4354391  45.0471191  75.4052200  10.5359249  45.9764824  75.1992722
  11.0545883  44.6047974  74.8245010  39.7397995  15.2321939  12.8830004
  39.4592896  16.1387749  13.0081234  39.4037971  14.7694063  13.6505680
  81.9334183  55.5492744  69.4804764  81.9781647  56.0963745  68.6963196
  82.0346832  56.1637840  70.2073593   9.7766504  17.9269905  68.4772720
   8.9332466  18.3299370  68.6835098   9.7960186  17.1285400  69.0048447
  24.8874779  26.3218155  78.5684738  24.8195400  27.1273518  78.0559082
  25.2678642  25.6846008  77.9639130  34.8836060  12.1595030  70.0022278
  34.7206612  11.6903887  69.1839294  34.2183952  12.8475380  70.0204239
  19.4265442  56.5411453  35.5587273  20.2409515  56.6439590  36.0510712
  19.3624439  55.6001244  35.3956146   8.6611757  64.6381989  73.5560455
   9.6068869  64.7479630  73.6551132   8.2830305  65.1886902  74.2417603
  29.1459312  36.2726822  70.7010422  28.7420330  35.5051041  71.1059189
  29.3247871  36.0022087  69.8004379  67.5192642  38.7362022  24.8742828
  68.1776733  38.3675995  25.4632301  67.8108521  39.6350288  24.7215805
  16.0390644  50.0375938  40.6891403  15.9016819  49.3703613  40.0167084
  16.9872036  50.1677284  40.7072411  42.9990349  63.7000694  72.1605453
  43.6742020  63.1982422  72.6172180  42.2490425  63.1070061  72.1156464
  32.2836533  10.6033945  34.3355217  31.4679298  10.2783260  34.7165222
  32.1030884  11.5206156  34.1297722  71.6406326  45.8873177  85.7420120
  71.7874146  46.6119194  85.1340332  71.7192764  46.2832298  86.6099472
  72.0690689  33.9956551  88.7973938  72.9330063  33.7813072  88.4453964
  71.5991592  33.1617584  88.8031616   2.0546460  19.1883850  76.3630371
   2.4616530  18.3975964  76.0091629   1.1922276  19.2197361  75.9489365
  15.9250116  26.8781776  17.1892796  15.9241114  26.5165272  18.0755291
  15.0048370  26.8687172  16.9257984  36.8179054  56.8155594  56.2563629
  36.6291924  56.0368538  56.7800407  36.3058128  56.6961861  55.4565239
  28.9580059  33.9159698  72.1770935  28.7654591  33.0033226  71.9620819
  28.9954739  33.9339752  73.1333847  36.1933937  45.9065247  74.2028809
  35.2966537  46.0743484  74.4925842  36.2410851  44.9550018  74.1103592
  55.0134697  36.5677757  87.3948441  55.2285538  37.0674706  86.6072693
  54.1016541  36.3046570  87.2699890  84.9646454  52.0143547  65.2494049
  85.8432083  52.2614822  64.9608002  85.0237122  51.0740433  65.4184036
   9.0278835  65.8305283  70.5705261   8.5643568  65.6810379  71.3945618
   9.0451670  66.7827682  70.4747772  15.7734394   0.7395496  18.6823730
  15.8016186  -0.2075969  18.5469055  16.2925148   1.0998820  17.9633789
  16.5804710  47.1259460  10.7505541  16.8750229  46.2271652  10.8977451
  15.8933630  47.2626610  11.4027987  15.7191439  68.5275421  13.8626709
  15.3859835  69.2372437  14.4118147  16.6115150  68.3807449  14.1762905
  32.2180176  22.0939236  25.7906742  33.0184937  22.6145439  25.7241611
  31.8433285  22.3377934  26.6370602  70.9576263  33.0658989  31.3737926
  71.8410339  33.4330444  31.3418102  70.4083557  33.7893753  31.6756439
  55.4639969  30.1768303  17.3158264  55.3483734  29.4652481  16.6861324
  56.0569687  30.7886677  16.8796291  39.7787209  20.4146271  21.0435181
  39.8881607  21.3597755  20.9388885  39.5837936  20.2975616  21.9733200
  17.6241608  55.9138336  40.3828430  18.3918724  56.3889389  40.0648384
  16.8998775  56.2470894  39.8531380   9.7098722   8.0171022  74.4200134
  10.5853739   8.3941803  74.3331757   9.4937754   7.7082286  73.5401611
  73.3967209  49.5905876  10.8858910  73.4797363  48.6835785  11.1802959
  72.9171829  50.0278473  11.5895052  59.2937202  63.8264656  31.4228306
  60.0534019  63.7236290  31.9960136  59.5318832  63.3575478  30.6230640
  46.9834747  28.1580200  72.5534668  46.0988121  28.2584000  72.2020035
  47.4740143  28.8903294  72.1802063  45.9986458   7.0450668  15.6940441
  45.9040070   6.1016383  15.5628290  45.2242813   7.2956896  16.1978054
  65.5716400  61.8749657  77.6246796  64.9626617  61.2857590  77.1794662
  65.8557205  61.3866005  78.3973541  30.6087093  51.4395256   9.9944687
  30.1814785  51.3364754  10.8448133  31.5253468  51.6154785  10.2067213
  23.7201023  61.1082153  35.8913803  23.6270027  60.1606369  35.9896545
  23.2993412  61.3046951  35.0543709  80.1803665  24.3575287   5.5976405
  79.6865463  23.8197155   6.2166123  80.6204605  23.7255116   5.0292144
  65.6542511  63.6986771  66.7940903  66.5000839  63.2749138  66.9397507
  65.2111816  63.1367874  66.1583252  86.6943054   3.1539686  49.3994865
  86.6529846   3.9114730  49.9831924  85.9191513   3.2370062  48.8440857
  63.8726120  69.3413925  85.2248383  63.8816833  69.8534622  84.4161758
  63.6979179  68.4448318  84.9386520  57.6632957  31.6912766   6.0156608
  57.9211617  32.4071808   5.4349566  56.7064438  31.6950397   5.9902000
  43.8344460  17.4259548  18.7889576  44.1437988  18.2390747  19.1881657
  43.0641136  17.6852798  18.2834129  55.2462311  65.2876511  67.1459808
  54.8447151  65.9050140  67.7574387  55.4686050  65.8184662  66.3811188
  48.7469559  47.0110664  26.6209373  49.3604622  47.3881531  27.2515316
  47.9086761  46.9947014  27.0827255  81.3399506  41.9776611  35.3551369
  80.9841843  41.1570206  35.6960335  80.5691681  42.5137291  35.1686935
  68.0085678  18.0556984  52.4415932  68.6109390  17.6883984  51.7946968
  68.5408401  18.6764526  52.9391708  10.0276880   9.3611441  35.8966980
  10.9108801   9.5463953  35.5775032   9.4658747   9.4834509  35.1314278
  43.8681412  43.0113335  58.5784531  43.1417274  43.5528183  58.8872337
  44.2694054  43.5256805  57.8779793  45.5340042  46.1202087  11.8444567
  46.0433311  45.4131966  11.4482870  44.9279213  45.6757240  12.4371862
  40.2114716  65.8070450   5.3793759  40.8334961  66.0519180   6.0644703
  40.1657982  66.5761108   4.8113208  10.9383497  43.8334084  49.6658859
  10.9582634  43.7778282  48.7105064  10.1939220  43.2889328  49.9220123
  35.0602875  23.3810749   2.2835639  35.0181007  22.5047970   2.6664340
  34.8102875  23.9669247   2.9980652  79.0806656  44.8236885  68.6306534
  79.6185837  45.0774918  67.8806839  78.6800766  45.6414146  68.9257584
  14.7254562  48.7824783  65.8183212  14.9501038  49.2741547  65.0283737
  13.7747679  48.6800270  65.7744217  66.8273468  10.4914913  14.8914127
  66.0245819   9.9718904  14.8487625  66.7159500  11.1602764  14.2157278
  85.1299820  24.6859894   0.5209391  84.5058517  24.6185551   1.2435350
  85.2799759  25.6260605   0.4209518  43.2097473  11.1567411  18.5764675
  43.8433685  11.1202641  17.8599300  42.5287476  10.5324488  18.3260078
  51.0225182  56.0106926  71.7980499  51.7342148  56.1594505  71.1754761
  50.4277802  56.7483864  71.6626816  70.1959229   2.1715672  20.2961884
  71.0008240   2.6888123  20.3248501  69.5028229   2.7948201  20.5139122
  17.4187775  11.0088749  61.7444992  17.1418247  11.1567888  60.8402596
  16.8663826  11.5939522  62.2629318  66.9597092  27.8084774  39.0007057
  66.0616455  27.7482376  38.6750031  66.9384766  28.5296383  39.6297607
  46.7755470   8.4646835  34.5656013  47.6463127   8.1503649  34.3222847
  46.7783203   9.3903542  34.3219681  79.7077484  39.7231979  61.1864014
  79.3680573  38.8924408  60.8537102  80.3144608  39.4721565  61.8829002
  55.5503273   0.4025178  79.7934952  55.8191681   1.2477113  79.4334869
  55.1360970   0.6188477  80.6288681   2.5766377   8.8986359  16.3593826
   2.2399530   8.7277031  17.2389603   3.4558778   9.2485762  16.5032959
  44.7077446  60.8850212  25.5264168  44.3657837  60.2380104  24.9094334
  43.9357719  61.1972504  25.9984398  80.5244446  59.0342331  35.2162666
  79.6073608  59.3081703  35.2284431  80.5509491  58.2610092  35.7798767
  74.6032715  36.4558487  36.9532204  74.8435745  36.9569511  37.7325668
  75.1020584  35.6423302  37.0283318  86.7465057  13.4762964  66.2539825
  87.2290344  14.3029108  66.2434540  85.8259888  13.7357874  66.2147064
  81.4468155  32.2698517  37.5482063  81.5859528  31.3458347  37.3406944
  82.2495956  32.5385170  37.9949722  67.0504303  54.1602859   8.6509809
  67.1244965  55.1084824   8.7589865  67.8291168  53.8085289   9.0824327
  53.7574997  61.4861755  72.8622894  53.0238647  62.0287476  72.5731125
  54.5100670  62.0776405  72.8556061  21.6831532  43.5912285  29.6268711
  21.0777836  44.1446915  30.1202660  22.0620880  43.0064430  30.2831230
  41.2426643  36.8816261  68.9202271  41.5014992  36.6414223  68.0305405
  41.7969093  36.3426895  69.4846649  35.8358765   7.8998890  72.0642242
  36.0068665   7.5372834  72.9334259  35.6241455   8.8193102  72.2256699
  65.6647949  55.8827705   4.1358795  65.0203323  55.9985123   4.8340964
  66.0499115  55.0230370   4.3055115  60.5827751  43.2263718  35.5337524
  59.8304214  43.6419220  35.9550781  60.8322716  43.8331032  34.8367157
  72.6092682  53.1228790  72.5032654  72.3914719  53.8748360  73.0540466
  73.2825928  53.4499702  71.9067078   3.5163386  51.3458481  42.5839233
   2.9967787  51.4406624  41.7856140   4.2006359  52.0104485  42.5046806
  55.6487961   1.5557890  16.4053345  54.7398224   1.3808972  16.6490688
  55.7935333   1.0238690  15.6228104  36.9891129  62.3940735  33.2774773
  36.8466721  63.2933121  32.9819908  36.1370964  62.1140900  33.6120033
   9.7310247  18.3571815  82.1292801  10.4805984  18.8131351  81.7465591
   9.5502691  18.8323097  82.9403381  71.9981384  53.1424408   1.5676135
  72.4076614  53.9982758   1.4408474  71.8343735  53.0924149   2.5093725
  10.5312672  54.9167595  29.5913677  11.2973547  54.8788872  30.1640015
   9.8321247  54.5048904  30.0991020  54.9791908   0.2433555  54.5116844
  54.9137230   0.9822980  53.9067802  54.9575882  -0.5300996  53.9481850
   1.4526184  53.4046898  78.4610901   1.1287392  53.1023827  77.6125946
   1.4972782  52.6124878  78.9964905  29.5680485   5.5471425  12.7131615
  29.4955978   6.2526708  12.0703449  30.4643459   5.6141953  13.0423851
  77.6257095  51.3517189  27.8733883  78.4910965  51.3929787  27.4664021
  77.6159286  52.0836983  28.4901104  54.3578529  50.7691269  47.3138962
  54.4476280  51.4247284  46.6222610  54.1123047  49.9668961  46.8530655
  39.0837173  47.3040237  55.8977547  39.5468254  47.3960609  55.0651131
  39.7768478  47.2973557  56.5578728  11.0629339  10.6611376  51.2279549
  11.1245956  10.7941732  50.2820511  10.1731730  10.3366184  51.3666840
  34.5275841  67.0301514  65.6269302  34.3501663  67.8613510  66.0672379
  35.0067139  66.5134354  66.2747498  19.1265774  23.9554329  22.0539379
  19.3095570  23.3890533  22.8035812  19.9767113  24.0743027  21.6304131
  53.9919281  60.8567772  65.7874146  53.1632843  60.3851395  65.8719177
  53.7359695  61.7551231  65.5783844  31.3977470  61.9033966  25.3854351
  32.2695999  62.2959328  25.4303627  31.4219017  61.3554916  24.6009293
  15.4619541  65.3439941  73.7806931  14.6019154  65.1807785  73.3934860
  15.5247192  64.7142487  74.4988251  76.8035660  38.2292290   1.1986297
  77.2824631  37.7189827   1.8517275  76.0656815  37.6712875   0.9527572
   6.4743772  31.8034496  26.9189854   6.1766171  30.9128265  26.7336178
   7.3053117  31.6871700  27.3797016   3.3128121  26.7195072  66.0215759
   3.6457124  27.2998028  66.7061691   2.9508567  27.3107491  65.3615341
   0.6318458  61.2644310  70.7071762   1.5256813  61.3868256  71.0270309
   0.7334493  61.0986328  69.7699356  10.9966135   7.6455760  10.5794640
  11.2457523   6.7433186  10.7796965  11.8264399   8.0907078  10.4077711
   4.8145447  33.5168953  13.9888563   4.5220637  34.0152168  14.7519817
   4.0078897  33.1784630  13.6002655  58.4877815   2.8084896  62.8850555
  58.3674202   1.8589050  62.8792305  57.7416344   3.1475325  62.3905411
  23.5711231  43.1899300  78.7216644  23.1812077  42.3724747  79.0314484
  24.4736786  42.9572868  78.5037155  85.3356247  28.7096100  73.6308670
  86.0111237  29.1555233  74.1418457  84.5115356  29.0749226  73.9528275
  66.4812622  69.3739700  34.9337845  66.2281342  70.2434540  34.6236992
  66.4872513  68.8309250  34.1455536   2.9723885  29.0282841  44.4489784
   2.2492590  29.3815765  44.9671478   2.7801480  28.0934601  44.3756256
  87.0513382  67.3592682  83.4930267  86.7955246  68.2760468  83.5945282
  86.3415298  66.8656540  83.9038239  75.0860138  23.7223263  87.7812195
  76.0077438  23.6536846  88.0300827  74.9193115  24.6638660  87.7371063
  65.5762253  15.7513971  31.2587070  64.9672928  15.0489197  31.4866428
  66.3540039  15.5753326  31.7881355  80.0788116  26.9002781  31.6374588
  80.0706863  26.6522884  30.7129765  79.2126541  26.6511974  31.9598770
  45.5955391  62.5606651  32.4540482  45.0746117  62.4073715  33.2423172
  46.4266129  62.1181030  32.6263580  40.0317650  12.6281767  26.8680458
  40.3474808  12.7829905  27.7583199  40.8107224  12.7168703  26.3188686
  55.6530876  62.7427635  70.2475204  54.9855576  62.8352127  69.5677490
  55.2882423  62.0998459  70.8556213  10.0249367  53.1210022   8.6047096
   9.2182407  53.2383423   8.1030073   9.8384037  53.5194740   9.4548016
  83.2443390  14.6989746  21.8908463  82.3658142  15.0436411  21.7307720
  83.1197815  14.0280800  22.5621262  43.9603958   6.6099715  25.1185760
  44.0976334   5.9238563  24.4653969  44.8080711   6.6989574  25.5541935
  75.0588837  12.9233952   9.0796881  74.6331558  12.9554253   9.9364033
  75.0104599  12.0026817   8.8224449  50.8868027  17.2146282  24.3533707
  51.4594421  17.2502384  25.1195621  50.2299919  16.5547848  24.5757084
  12.8956013  61.6014481  86.4052124  12.8991442  62.2764626  87.0838699
  12.6253357  60.8045464  86.8614273  60.9218025  65.4974365   6.3634553
  61.2058525  64.7725754   6.9203420  61.2562714  65.2769089   5.4941273
   2.8112786   5.1426635  24.3763962   3.6609635   4.7557430  24.5874882
   2.2839727   4.4071383  24.0646534  66.3647385  66.8759537  38.1543503
  67.1433945  67.4254379  38.2437553  65.7267761  67.4349365  37.7107582
  67.7016373  69.8403549   1.9924576  67.1776581  69.0411987   2.0474398
  68.4960480  69.6404343   2.4876008  37.1576614   3.9494600  62.3081818
  36.8553009   4.1915817  61.4328613  37.1937790   2.9930611  62.2930717
  58.8870163  47.3694878  75.6070557  59.5928917  46.9955063  75.0796890
  58.7331696  48.2329102  75.2235641  43.1769981  42.5596390  81.2509155
  43.7087975  42.5671310  80.4550705  42.3038406  42.3043900  80.9531250
  27.5220566  16.6689777   6.0490875  27.2549515  16.8246555   5.1431894
  28.0362682  17.4416046   6.2833238  24.0605640  52.2422867  27.0073032
  23.5396175  52.5935555  26.2851830  23.4291420  52.1048813  27.7134609
  69.5169525  32.9628067  71.2236481  69.2470169  32.2394257  71.7894135
  68.9944458  33.7075272  71.5213165  13.0499601  69.9182663  20.0380783
  13.0364952  68.9636230  19.9695168  13.9244223  70.1675644  19.7390785
  64.6796646  32.3090935  38.5824699  63.8241463  32.6670837  38.8194695
  65.2165604  32.4336472  39.3650665  21.9869156  29.7184315  10.9317865
  21.5890045  30.3831596  11.4939566  21.4685059  29.7434025  10.1275101
   0.7994186  51.6079636  54.5935287   0.7550994  52.3555908  55.1896133
   1.1317071  50.8906784  55.1332664  81.1576614  54.9072151  66.0107117
  82.0561600  55.2295837  66.0814819  81.0972977  54.2188797  66.6731186
  65.8766861  25.5920811  19.7518597  65.3294830  26.3701878  19.8583889
  66.7680511  25.9025059  19.9110184  25.1803436   3.4096546  66.6311569
  26.0502071   3.6986938  66.3554306  25.0392036   2.5897207  66.1578445
  68.5197601  38.6789703  13.4527311  68.3466797  38.0343933  12.7665873
  68.9372940  39.4090462  12.9956894  56.7025490  56.8534355  52.6242142
  56.7903137  55.9067535  52.7352371  57.5969200  57.1869164  52.6957626
  40.8776321  64.8130798  65.1631775  41.1465454  65.2198029  65.9868774
  40.5832062  63.9373283  65.4133911  61.6007156   0.8731396  26.4795742
  61.4816818   1.8160782  26.3658676  61.5299988   0.5144036  25.5949631
  41.2451515  67.9616013  42.3456764  41.9237900  68.1751099  42.9860687
  41.2743492  68.6823349  41.7164497  57.2596474  36.8350487  32.0072289
  56.8989220  37.5429306  32.5410957  57.5076141  36.1606255  32.6395988
  18.1458797  19.5988159  81.1144180  18.4488678  20.5046825  81.0524826
  18.7937737  19.1671009  81.6712723  40.1162300  37.5506058  28.6278877
  39.9804688  37.1981087  27.7483711  40.2711372  38.4850883  28.4901180
  45.0844536  61.9051514  29.6483440  44.1766663  61.6485786  29.4860783
  45.1431160  61.9892540  30.6000347   5.4233441  26.8972759  71.9438324
   5.2982044  27.6903095  72.4650497   4.7313061  26.9329815  71.2835007
   2.1135025  22.7189999  58.5727654   2.9599264  23.0488873  58.2711525
   2.3292422  22.1359367  59.3005905  20.1363487   6.0965652  77.8746796
  20.6505432   6.6246638  78.4853745  19.9381485   6.6916118  77.1515884
   0.5573286  20.4990349  25.1751060  -0.3763345  20.3580379  25.3320293
   0.6413991  21.4461994  25.0653667  70.0219040  28.1792679  16.8591156
  70.0049744  28.9997082  16.3663445  70.6095428  28.3535385  17.5943279
  30.9325771  36.5500526  81.4899216  31.2314110  35.6749344  81.7371063
  31.4544907  37.1429596  82.0305710  62.9342461  22.7705975  42.0219727
  62.5658798  23.6412239  41.8718071  63.8815193  22.9081020  42.0221786
  26.1224957  53.2327690  41.7058907  25.3246441  53.2627182  42.2338753
  26.8289223  53.4004135  42.3296585   0.9096243   0.3474590  67.4690018
   1.1251669  -0.1653375  68.2479782   1.7373155   0.7550415  67.2139816
  72.2645493  68.6257401  18.4696102  71.9305038  69.4481049  18.8278790
  73.1906967  68.6178513  18.7113190  83.0270767   3.3359694  66.5594406
  83.0009613   3.0770628  65.6382904  83.2762451   2.5379274  67.0255661
  57.4579620  20.2264423   6.7853060  56.7610092  20.0064678   6.1671634
  57.3037224  19.6513252   7.5347605  16.8792152  11.2683277  88.3357010
  17.6828938  11.7581425  88.1613083  16.1887264  11.9312201  88.3301086
  41.0610275  62.6067848  38.8385506  40.3043060  62.9941444  39.2784996
  41.3882523  63.3022079  38.2679863  76.5019302  55.0422287  54.7294884
  76.9891510  55.8661537  54.7301712  76.8333511  54.5686302  53.9665375
   4.1869884  12.5855999  43.7104912   4.9597549  12.0823889  43.4538956
   4.5028720  13.1786757  44.3921890  77.4797287  64.2472763  47.4436150
  76.6346207  64.1266251  47.8765907  77.8751984  64.9935989  47.8939857
  78.2634659  46.2550812  85.8946838  78.8122253  46.7710648  86.4853210
  78.8525925  45.9947586  85.1865921  13.6854773  53.0376434  55.7872734
  14.4436007  53.5395470  56.0865555  13.0329056  53.7007637  55.5622139
  13.0709972  18.1246815  15.0367928  13.8532743  17.5851936  15.1518030
  12.3419991  17.5306644  15.2155046  60.8450394  69.4148254  86.1291733
  60.4016380  69.2862701  85.2906647  61.7610359  69.2017670  85.9508743
  25.5259418  31.2374268  26.5247383  24.9936790  32.0219688  26.3927536
  24.9455376  30.5124340  26.2928982  80.2257462  31.5494385  29.6065407
  80.8020096  31.4828720  28.8451424  80.7084351  32.0978165  30.2250252
  49.2103844  47.2367439  15.6744976  48.6921616  47.3241882  14.8744802
  48.6089172  47.4821930  16.3775063   1.7006569  18.8505001   9.6914244
   2.4256403  18.2586708   9.4905043   0.9386869  18.2768879   9.7726793
  75.3869247  37.8190117  47.7744980  76.0574951  37.6829910  48.4438744
  75.5258179  38.7176247  47.4754524  15.9958477  44.6826744  36.5942535
  16.5433311  45.2942162  36.1017990  15.9723616  43.8932724  36.0533943
  71.9365463  59.3176689  18.6745281  72.7147446  59.5320587  19.1889954
  72.2798386  58.9091415  17.8798676  31.2402592  60.9913025  28.3127918
  32.0440826  61.2260590  28.7764626  31.3587952  61.3477478  27.4323788
  80.3192673   4.1654496  32.1788406  80.6350174   5.0027070  32.5187416
  79.4252625   4.0930667  32.5131302   4.2762337  64.1918182   7.3880029
   4.4107285  64.2847519   6.4448667   5.0527201  63.7242775   7.6957479
  54.5469933  52.1242485  40.6083145  54.8606949  51.5205269  39.9350090
  54.6510658  52.9924202  40.2188568   8.9805746  11.4225788  29.0417938
   8.8070917  10.9370584  28.2353172   9.7689362  11.0158396  29.4013500
  61.9643593  67.0658417  38.9751740  62.8620453  67.1166840  39.3035126
  61.4209785  67.3080673  39.7250366   9.8574705  27.6555767  83.5985947
   9.0071411  27.8944855  83.2296906  10.3851938  28.4501057  83.5182037
   1.1874452  65.8223877  38.5929375   1.6857389  65.2143250  38.0468712
   0.6056719  66.2726364  37.9805260   5.1313720   7.3798676  80.2808762
   5.3005219   8.3101320  80.4299698   5.1097217   6.9968095  81.1578140
   0.5177172  65.2741241  70.9505310  -0.4201969  65.0836029  70.9664001
   0.9354933  64.4379501  71.1567154  72.5292969  37.5856628  66.4686737
  71.7532196  37.8695526  65.9856110  72.3884659  36.6510963  66.6202927
  79.3473816  68.5333710  55.9587440  79.5665131  68.5726852  56.8896942
  79.1912079  67.6044693  55.7884712  44.8780746  24.4251442   9.0922441
  45.5318069  24.7453709   9.7137880  44.8373642  23.4822483   9.2519960
   1.6150242  14.3534641  11.9896326   0.7687752  14.6760988  12.2994738
   1.5607892  13.4032011  12.0910749  45.4694862  11.6728382  54.3396263
  45.0442772  11.4104033  53.5231972  46.2437172  11.1129398  54.3971825
  68.3502045  43.5461617  36.3275299  68.2797623  42.8353195  36.9646912
  68.2572708  44.3442307  36.8478012  55.3862190  10.5858669   4.4518094
  54.5151329  10.9047403   4.6879416  55.2226677   9.7683468   3.9815512
  82.1734238  18.7988377  83.9440460  81.8441467  18.4524059  84.7733841
  82.9097443  18.2289925  83.7219086   0.7291694  69.8257370  13.6672688
   0.0979557  70.4426727  13.2968769   1.4843000  69.8748016  13.0810938
  56.0446587  22.7391758   4.8410749  56.4706535  21.8822861   4.8634930
  56.7586060  23.3575974   4.6859388  65.4907074  27.1561146  10.2028084
  66.3656311  26.7930279  10.3403292  65.5366364  27.5721703   9.3419828
  53.1510849  15.0946980  84.4722519  52.7850227  15.9336033  84.7523727
  52.3967819  14.5070858  84.4278717  84.3883057  10.5857830  28.5599461
  84.4124222   9.7398119  28.1127529  85.1874466  11.0296402  28.2760544
   1.3935498  42.0167160  67.4481430   0.8731102  41.6832504  68.1790161
   0.8377368  41.8873520  66.6796570  82.6924744  18.9916134  67.2596588
  81.9043427  18.6661625  66.8247375  82.5033569  18.9053993  68.1940155
  58.2573090   1.7794890  22.0929737  57.6284485   2.4475260  22.3659096
  58.9123688   2.2598281  21.5866070  73.2409592  22.6813850  61.6071548
  73.0827789  22.0300980  62.2905540  73.6357040  23.4214573  62.0683479
  47.3479958  11.3220968  85.4874115  46.6929131  10.6640177  85.7198639
  47.8969421  10.8923483  84.8315125  85.4866638  49.0809746  24.8420944
  85.3086319  49.9784622  24.5609283  86.3198471  49.1373672  25.3099213
  56.0546913   3.8428779  38.1336861  56.9819450   3.6089137  38.0925369
  56.0461845   4.7985258  38.0798683  64.3930435  58.4651031  85.5728302
  63.6346321  58.4867210  84.9892426  65.1428299  58.3590202  84.9873505
  42.4542198  64.3612976  77.9449844  43.0770416  64.2755280  78.6667633
  41.9806824  63.5294685  77.9371262   8.6769915  52.3680534  50.9001656
   9.4849005  52.4650726  50.3960800   8.4873886  51.4302826  50.8706017
  77.1040115   6.5497932  19.6887550  77.5308380   6.8541679  20.4896374
  76.8347397   5.6528697  19.8868752   6.2674093  50.9020653  23.4537258
   6.3188105  50.1214638  24.0053177   6.8780046  50.7295418  22.7370396
  81.9496078  34.0529976  27.3199902  82.0459061  34.0720482  26.3678360
  81.9466705  33.1218643  27.5418415  40.3982239  30.5163937  75.2156830
  39.4780960  30.7462978  75.0863037  40.8784180  31.1252308  74.6544647
  39.5458603  67.6727905  18.0749302  39.8180771  67.2476120  18.8881702
  39.6662064  68.6076660  18.2415028  78.3532104  70.3143082  15.7271481
  78.9321213  70.9916763  15.3774815  78.8459167  69.5004349  15.6219149
  78.4930344  14.3123350  15.8306675  79.1861038  14.8369007  16.2315731
  77.7208633  14.8775148  15.8541937  13.0511189  60.8070793  82.4847565
  12.2955046  60.6044464  81.9331970  12.6798811  61.2569580  83.2437134
  61.0244255  68.5372849  70.5989075  61.8302879  68.8669357  70.9965820
  61.3106194  68.1261673  69.7832489   8.7371120  11.3623238  19.6872234
   9.0895252  11.6147375  18.8338051   8.0143633  10.7692413  19.4819927
  63.3672638   2.5042708  43.6889992  63.8621674   3.0889037  44.2630272
  63.9079399   1.7169702  43.6253052  18.6371441  62.0839233  48.7291527
  18.6932316  61.1506462  48.9342728  18.6644802  62.5185585  49.5815468
  61.9298248  15.6967869   5.8726125  61.3743896  14.9286413   5.7396598
  61.8019638  16.2241783   5.0841060  70.6328430   4.5536981  56.4085884
  71.5785141   4.5180998  56.2648010  70.2953415   3.7683785  55.9777756
  43.2039337  47.1611252  30.8416176  43.1192169  48.1144333  30.8255367
  42.8469696  46.9032516  31.6915054  71.5514450  22.3013363  75.7813263
  71.0895538  22.0109482  74.9948349  71.1314926  21.8228550  76.4961166
  62.0243721  23.8013802  25.9836655  61.5570831  23.2412949  26.6034870
  62.6043358  24.3316517  26.5301895  55.9808807  30.8391743  33.7199936
  56.4260292  31.3669987  34.3829269  56.1245613  29.9345551  33.9979401
  62.0049896  64.5173111  37.7343941  61.9496460  65.4636917  37.8668213
  61.5594215  64.3656387  36.9009094  85.3428116  21.1868877  57.3592186
  85.4443588  20.4386787  57.9475250  86.2381516  21.4279366  57.1215439
  12.5894356  25.6835938  79.8905258  11.7257223  25.9922619  79.6167450
  12.7943316  26.2034969  80.6676636  50.2901764  57.8890533  30.2706184
  49.9108391  58.6065941  30.7780342  50.7675972  57.3663406  30.9148788
  37.8520775  52.7427101  31.8941154  38.5951767  53.3307266  31.7589321
  37.2152634  53.0047417  31.2292576  78.2825394  55.1106033   8.6212330
  77.9515915  54.6570702   9.3964844  77.5108337  55.5314217   8.2422590
  17.8003159  38.8101120  10.8090734  18.3841858  38.1418877  11.1679640
  16.9432125  38.3854141  10.7739134  16.1835747  37.4908180  15.4436846
  16.3997612  37.7415047  14.5455465  17.0028744  37.5996361  15.9265289
   8.3900385  53.6195564  30.5756111   7.7531195  53.3310509  29.9219055
   7.8633246  53.8298302  31.3467064   2.8501258  15.0020609  59.0886345
   2.9066935  14.3477144  59.7849579   1.9679086  14.8970737  58.7324028
   2.2449780  31.9876556  27.7853451   2.3361855  31.0522861  27.6036911
   2.2073612  32.3969688  26.9208927   9.5508547  17.4841423  76.1770020
  10.4258146  17.1856441  75.9288559   9.6935987  18.0247383  76.9539261
  79.9708405  17.9340038  77.2590561  80.2253189  18.5544090  77.9421158
  80.7656937  17.4297791  77.0852661  42.1965370  27.4529018  67.1156464
  41.4273643  27.2334328  66.5898743  41.9705658  27.1681557  68.0011292
   3.1252038  10.4571066   9.7486963   3.6953051   9.6888113   9.7180519
   3.0334268  10.6501932  10.6817160  81.6378021  67.1801300   8.2013340
  82.4244537  67.4038849   8.6986637  80.9330368  67.1939545   8.8489027
  75.5295181  11.1711340  88.0172195  76.2874527  10.7737818  87.5884018
  74.9544678  10.4330988  88.2193298  66.2500229  45.4628105  48.2598495
  66.9922943  44.9295616  48.5443077  65.4791412  44.9613380  48.5253601
  36.0934639  56.5345726  20.4775925  36.3091469  57.4100876  20.1563721
  36.9380379  56.1517792  20.7150669  50.6813049   8.1447592  72.1354141
  51.3130531   8.8301325  72.3530960  50.0210381   8.5880537  71.6027069
  84.3619385  35.0912476  22.7816830  83.6652756  35.7163925  22.5814724
  84.5381317  34.6540604  21.9485855  72.1406784   2.3833091   4.7174816
  72.6901550   2.6287453   3.9731252  71.2741165   2.2378495   4.3378263
  60.4289703  22.5988522  55.6766739  59.5818901  22.1619911  55.7651939
  61.0647926  21.9533062  55.9852753   6.0281811  61.8235016  41.7206001
   6.0150738  62.6879768  41.3098183   5.2207994  61.4044724  41.4226379
  54.4294434  52.5285759   3.4497812  53.7122192  52.2958069   2.8601720
  55.1694336  52.0028725   3.1460001  69.7508316  23.5530567  83.1548462
  69.0834579  23.7991982  83.7953568  69.4737930  22.6930828  82.8387375
  35.4839821  41.4729614  70.6251602  35.9958229  42.2585297  70.8178558
  35.8644791  41.1317253  69.8158340  80.1331711  40.6565208   9.0924282
  80.9974670  40.9602127   9.3699055  79.9564514  41.1412125   8.2861547
  18.3407345  17.8066082  78.3919296  18.1003666  18.2160454  77.5607758
  19.2789860  17.6348629  78.3118210  73.7591019  17.9488697  43.9843712
  72.8372345  18.1611519  43.8383560  74.2375031  18.5643349  43.4288826
  64.3225021  63.8118172  13.8248701  64.0531921  64.1040497  12.9540644
  65.2786636  63.8522148  13.8059988  20.1337490  27.6066360  15.4131718
  20.2722244  26.7819214  15.8788967  19.1883392  27.7501297  15.4561052
  80.2187805  34.0294571  39.3309631  80.5783386  33.2242928  38.9585876
  79.7513275  33.7426262  40.1154671  61.1116714  19.8876362  66.9319534
  60.7696877  19.7232647  67.8107376  61.6564178  19.1242599  66.7402802
  45.3689537  56.2700043  24.4370518  45.2857513  56.4992714  25.3626575
  44.4737587  56.0810852  24.1556892  44.9685745   6.0195212  86.3271484
  45.7384491   6.5854115  86.3845215  45.3120384   5.1773729  86.0287399
  32.6686516  42.9643555  82.4396744  32.5843010  43.4642105  81.6277237
  33.6124496  42.8572998  82.5580750  18.5333824  51.1097527  40.6705856
  18.2910004  51.2043037  41.5917511  19.4850636  51.0078278  40.6825752
  63.5424995  20.6329613  43.8623085  63.1879120  21.4256344  43.4596062
  63.6146736  20.0090542  43.1399765  39.5702171  44.8791542  15.4964190
  39.8525124  45.7937164  15.5071297  38.9532776  44.8103714  16.2250385
  67.5208054   2.4522064  50.6518288  68.1833267   2.6291547  51.3196526
  66.9939651   3.2507236  50.6196175  84.9128113   4.3961215  44.9089165
  85.5068817   4.1149111  44.2130470  84.1489182   3.8268042  44.8162994
  54.6321716  59.1909943  46.8992538  54.1827049  59.7425880  47.5395317
  55.5536652  59.4388046  46.9745827  31.3552971  67.8966675  62.9494438
  31.4805908  68.3004074  63.8082390  31.8019028  67.0525208  63.0141869
  79.5910797  18.8471298  32.6348114  78.7361679  18.4886818  32.8732986
  79.9436646  19.1916847  33.4552956  47.8913116  56.5581093  29.0871410
  48.6933327  56.9102859  29.4730949  48.0442543  56.5936165  28.1429062
  61.7551918  20.3974552  56.6507835  60.9343567  19.9970703  56.9374161
  62.2755203  20.4757519  57.4503860  15.0555210  38.3784790  19.1911240
  15.2282190  37.4386635  19.2472515  14.3075161  38.4495544  18.5981064
  28.7126751  38.7757759   8.4525824  29.3883991  38.4409370   9.0420818
  27.8928623  38.6448288   8.9290190  85.9648743  53.5279427  21.4752064
  85.6588287  53.9249649  20.6597672  85.2421494  53.6555290  22.0897198
  60.6629753  45.8117447  74.3341599  60.5334320  45.0422478  74.8885269
  60.4934006  45.4982224  73.4458008  52.0471115  64.8800507  35.3938637
  51.2459373  64.4837952  35.7364044  52.7530975  64.4424210  35.8695641
  57.4271507  67.9807587  45.2095604  57.2214279  67.5130615  44.4001350
  56.8462868  68.7415161  45.2008553  48.3727036   1.9688909  30.3377991
  49.3071365   2.0380099  30.5334930  48.1590347   1.0519459  30.5103951
   3.3615389  39.3575974  86.0090561   2.9842925  39.1994820  85.1436539
   2.9359651  38.7151718  86.5768661  21.0588398  17.8465347  18.5066833
  21.5421791  18.5250912  18.0353279  20.2101593  18.2458858  18.6977100
  47.5485725  54.7277870  49.1967201  47.5494385  55.1301003  50.0652695
  48.4394875  54.3958969  49.0856056  66.7956772   3.5502877  74.3813019
  67.4955139   2.9388409  74.6106491  66.3846054   3.1645675  73.6076889
  39.0350304  45.8888664  71.5285187  39.4706078  46.5415421  72.0767136
  39.5136528  45.0771103  71.6964874   1.6047211   4.9147329  31.6210613
   1.4288623   4.1573615  31.0627651   1.2878376   5.6634426  31.1158371
   1.2850243   5.5462222  88.0473633   1.5697920   6.0580549  88.8044434
   0.8517997   6.1818929  87.4777374  38.0277214  15.7555208  28.8596802
  38.4009895  16.0594482  28.0323162  37.6021729  14.9266567  28.6403122
   0.6199745  11.0557108  47.5760803   0.8422384  10.2527647  47.1047974
  -0.3065343  10.9562750  47.7950020   2.3868778  57.5109406  66.3832855
   1.6337775  58.0748253  66.2069092   3.0319800  58.0920029  66.7863235
  80.4831085  41.9424210  16.8430195  79.7986069  41.2794266  16.9331741
  80.0869217  42.7437897  17.1851768  11.3886385  51.6087418   2.1817493
  11.8371429  51.0531197   1.5442824  10.8900557  52.2290688   1.6499230
  75.6412888  48.9498177  64.6062698  75.2491837  48.5965424  65.4048233
  75.9092407  48.1771240  64.1089096  52.1187134  14.0079050  73.1567230
  51.2272644  14.1753368  72.8509140  52.0228539  13.3080215  73.8026428
  47.7236290  56.1654243  67.9440536  48.5204277  55.7595253  68.2855072
  47.0260773  55.8391495  68.5125580  52.6567917  35.9689140  57.6859131
  53.3791199  35.4949341  58.0979958  51.8689117  35.5265617  58.0018234
  47.1603050   1.8418572  68.5778198  47.4389839   2.6293674  69.0451508
  46.2056007   1.8477601  68.6466064  80.5137177  60.3426552   7.1657715
  81.3396835  60.1904106   6.7066073  80.3577728  59.5335274   7.6528311
  28.5615044  30.2521210  78.6632767  28.9048195  30.3205185  79.5541687
  27.7566757  29.7421932  78.7552414  53.7625694  12.1331196  87.0526581
  54.3651695  12.1390495  86.3089752  54.3092041  11.8966074  87.8019791
  52.2517052  28.2696972  79.8576813  52.9538422  28.1983051  80.5043182
  52.6534271  27.9879093  79.0358276  63.2828560  18.8573818   1.7407031
  62.9407654  18.2618484   1.0739607  62.7282372  19.6347389   1.6747817
   9.7429657  41.1288605  61.4885788  10.6321249  41.0340500  61.1470566
   9.8139372  40.8866119  62.4118958  22.1088791  48.2534332  67.1506119
  22.6012192  48.5431366  66.3825607  21.3540688  47.7883263  66.7898178
   9.8851624  19.3013020  14.1667776  10.5411558  19.2242813  13.4739780
   9.2836676  18.5735931  14.0090590  40.4625168  17.8903599  17.4661942
  40.3528633  16.9436665  17.3768711  39.9230270  18.1237354  18.2216549
  82.4430008   0.5864794  28.2256546  81.8697662   1.3395333  28.3689785
  82.6970367   0.3079576  29.1054974  56.0606651   8.5412760  78.5031509
  55.3555183   9.1515064  78.2872467  56.5599442   8.4551754  77.6910324
  65.3227921  38.0114555  46.9783096  64.9017258  37.9436951  46.1213684
  64.7555847  38.5985565  47.4781265   2.9677269  66.5611801  57.8041763
   2.6915457  67.0410385  58.5850029   2.3365455  65.8457184  57.7269974
  66.5025406  30.2772026  27.8246422  66.0955124  30.4956608  26.9862862
  66.8830490  31.1014175  28.1281433  64.4681931   7.2081857  63.0789375
  65.3422089   6.9074836  63.3277550  64.5644455   7.5003271  62.1725044
  68.2465134   6.7208033  50.6629295  68.3897324   7.6660476  50.6156731
  68.6886826   6.3725567  49.8886948   2.6531892  39.8299828  10.8346329
   2.7851334  39.3992500   9.9900675   3.4609580  40.3221626  10.9812679
  24.9381008   3.8052363  43.0462875  24.0856762   4.2365084  43.1063461
  25.0919342   3.7085767  42.1064873  49.8984108  67.2354431  41.9619408
  49.1940651  66.8932343  42.5124207  49.5451508  67.2024002  41.0729256
  17.6586227  54.7651978   3.2196355  18.5302296  54.9903793   2.8943233
  17.1685066  55.5864296   3.1796684   3.1710925  37.2795639  41.0508842
   2.6399372  38.0728607  40.9817390   4.0012288  37.5787163  41.4218445
  71.3470154  27.3425732   6.7123084  70.4540024  27.6538906   6.8600965
  71.6257019  27.0020180   7.5623617  14.9166250  11.7962208  12.9417715
  14.8337069  10.9104042  13.2948818  14.9753761  12.3576775  13.7147818
  44.0560760  10.1060829  82.2236404  43.1739807   9.9908819  82.5770111
  44.5144997   9.2985430  82.4559326  77.8304367  64.0290985  59.1665421
  78.0132065  63.4683762  58.4126091  78.6234894  63.9789314  59.7001953
  27.4469395   5.0412817  21.6120434  27.0665741   4.1632838  21.6380043
  26.6955204   5.6300173  21.6826859  13.8723631  59.2638206  47.9021950
  13.8660307  58.4057312  47.4780731  12.9714203  59.5771179  47.8223305
  50.6653786  35.8268280  24.0898819  50.2894630  35.5223961  24.9158611
  51.0255737  35.0376167  23.6853676  84.2167969  33.3788300  87.6020355
  84.3271637  33.3518372  88.5524673  83.6205521  34.1122284  87.4508820
  50.4915466  13.5218115  28.3373737  50.8499069  14.3702250  28.0765972
  49.5830460  13.5429096  28.0366936  67.6798019  40.1566048  71.8643188
  68.3907242  39.5584946  71.6339188  67.9793320  41.0132294  71.5598450
  60.6342087  35.5398407  61.2951241  59.9165382  35.8617134  60.7496185
  61.1084785  36.3289452  61.5570564  32.7163658  46.3460197  78.0634537
  33.6317902  46.4885254  77.8227768  32.7580757  45.8458328  78.8785019
  33.5555611   3.2913332  42.3294144  33.5952301   3.0074449  43.2426872
  32.8939133   3.9829984  42.3221245  12.3088093  16.1723347  26.8262005
  11.6975937  15.5612288  27.2375374  12.6640491  15.6897621  26.0797691
  86.5900574  64.1956329   5.6603599  87.0519714  64.8617783   6.1694026
  86.1762466  63.6361580   6.3176146   9.3298349  65.9725113  65.6342010
   9.8265591  66.2936859  66.3867569   9.0228071  65.1063080  65.9018936
  58.5480957  63.0742302  47.1214027  59.4975128  62.9623451  47.1695709
  58.4126434  64.0165939  47.2206001  78.0255051  31.8321648  37.6582375
  77.4788818  31.3980598  37.0032654  78.8864670  31.8991528  37.2453384
  43.9753647  39.2713509  24.5138931  43.7768745  40.0599937  24.0090427
  44.7024269  39.5270271  25.0815582  69.5452271  11.3010693   0.0677843
  70.2246628  11.7605162   0.5612471  69.2357483  10.6192684   0.6641074
  54.3915520  10.8497496  83.5420074  54.7256737  11.4797802  84.1804886
  54.5183296   9.9970465  83.9580078  85.5509872  38.6647186   2.5807920
  85.6888733  39.5389404   2.9454279  85.7932892  38.7489014   1.6586006
   2.0217102  10.0198307  51.2191963   2.0924230   9.8924170  50.2731552
   2.7233748   9.4821806  51.5863914  56.5746307  28.3444157  10.7150879
  56.8751335  28.0352650  11.5696964  56.6929321  29.2936840  10.7486181
  44.1209908  54.8400917  21.2183971  44.0869980  53.9838181  21.6448631
  43.2983932  55.2631149  21.4646034  48.0971794  53.2016220  34.3974304
  48.3872871  52.4583969  34.9262810  48.8504028  53.7920456  34.3804893
  23.2353497  31.9563065  74.0669250  24.1639366  32.0272217  73.8457184
  22.8018742  32.5789604  73.4832916  38.5795631   6.2204914  55.1011086
  38.4837952   6.8358631  55.8280029  39.2068710   5.5708218  55.4183502
  45.9021187  14.2354879   1.7090187  46.1854935  14.9988728   2.2121825
  45.2925339  13.7791567   2.2890201  73.3647308  66.8929291  51.4640770
  72.6060638  67.4517288  51.2955475  73.0366135  66.0015259  51.3458405
  12.4444866  10.9650784  59.7803345  11.6873026  10.6855259  59.2657890
  12.3344545  11.9113369  59.8737106  87.1128159  14.2925110  58.1455879
  86.5080261  15.0189705  58.2963066  86.6776428  13.7513075  57.4868355
  44.1157455  66.8994751  68.0694122  43.7249336  66.7874680  68.9359894
  43.9746284  66.0595093  67.6326370  60.5316505   3.5094521  70.0153503
  60.5798683   3.1064889  69.1484451  59.6357231   3.3420506  70.3077927
  34.7209625  12.2947073  44.2850838  35.6412621  12.3597870  44.0300331
  34.3767090  13.1801128  44.1677094  27.9745121  11.7377453  85.5822525
  28.8956642  11.6966352  85.3253098  27.9765682  11.5260668  86.5157547
  59.4952545  37.3428612  19.8425694  59.0633087  38.1961670  19.8035831
  60.0664711  37.3282509  19.0746307  59.6122971   9.3577442  32.7538605
  59.2183075   8.5048265  32.9369850  59.7954597   9.3402510  31.8145123
  81.1055984  10.8898745  72.3420944  80.4011383  10.9868450  72.9828568
  81.8699646  10.6419010  72.8621750  84.4727859  56.9544525   2.1532798
  84.7022552  57.7475586   2.6375902  83.5204315  56.8948059   2.2288115
   7.0059781  57.8569031  26.7687378   7.4420543  57.6208458  25.9499912
   6.8470378  57.0200539  27.2053757   8.6673489  65.4300690  15.5967073
   9.2029314  66.1929321  15.3789520   9.2971582  64.7701340  15.8866396
  71.6885986  28.1291065  52.4740410  70.9882202  28.2930260  53.1055717
  71.7901993  28.9591370  52.0082512  75.9583817  18.9938965  53.1428375
  76.0860901  19.7398090  52.5567169  75.5098953  19.3616714  53.9043045
  67.7688904  51.0790176  37.0216103  68.4060593  50.7643738  37.6628952
  68.1290359  51.9110031  36.7144890  35.3866348  21.5864983  76.5714798
  36.0565071  22.1725540  76.2192841  35.6071815  20.7272034  76.2120285
  54.4412003  34.6469765  31.9193745  53.9044647  34.7716103  32.7020721
  54.0538635  33.8890190  31.4815407  54.6064606  11.8945942  59.6738777
  55.4047928  11.4909239  59.3333626  54.6191711  11.6975908  60.6104965
   6.0883226  50.4851036  67.7070007   5.9341278  49.5716782  67.9480515
   6.6137161  50.8370361  68.4255676  62.6992798  18.8453808  54.2674294
  62.5641594  18.8134289  55.2145042  61.9099884  19.2664833  53.9269524
  17.0362816  11.4297972  37.2735405  17.4312763  11.0058556  38.0354347
  16.8915997  12.3344069  37.5509911  71.8492737  48.5152397  37.1905975
  71.8201523  48.8561745  36.2966461  72.7572708  48.2374954  37.3115425
  48.7055321  66.1832199  34.5234337  47.8407898  66.5580292  34.3561974
  49.3029251  66.9297714  34.4785042   5.1586285  45.3130493  12.8975220
   4.7049360  45.5621948  13.7027054   5.3908825  46.1455154  12.4860706
  33.8142433   0.6296030  77.2613831  34.5588226   1.0261800  76.8090973
  33.9017067   0.9219800  78.1686249   7.1283636  46.1253929  76.5918884
   7.3604693  46.4332008  75.7157516   7.9693651  45.9692459  77.0214996
  43.1767235  36.8294067  17.3995667  42.9311256  37.5516891  17.9776859
  42.3493233  36.5360603  17.0180054  22.2391529   0.9467868   7.9707017
  22.6785831   1.6697433   7.5229664  21.3628826   1.2809546   8.1623096
  86.1053314  52.3060684  68.9064255  86.9995041  52.1697197  69.2196350
  85.9414597  53.2384262  69.0481644  33.3041115  48.4162102  84.0274887
  33.3472176  47.8109169  83.2872238  34.2133827  48.6737862  84.1795273
  76.4521637   8.7414207  31.9218273  75.9017868   8.6250772  31.1473675
  75.9241714   9.2787724  32.5123482  68.5319824  33.1551399   2.0445526
  67.9330292  33.8659248   1.8159212  69.3821869  33.5824432   2.1484425
  15.8684330  70.6639404   5.5539417  15.8489780  71.4000778   6.1654663
  14.9491711  70.4224396   5.4405069  18.9601383  50.6767578  25.9996166
  19.7685452  50.6757507  25.4870663  18.4958019  49.8892059  25.7160969
  36.9159279  15.5660992  75.2613297  37.2183151  16.3640118  74.8275833
  37.5274429  15.4415607  75.9871140  31.7714272  13.4151525  13.4326792
  31.7197075  14.2705364  13.8591471  32.3061790  12.8848906  14.0235205
  60.3744774  11.9834452  35.1720810  60.5018272  11.0737371  35.4412384
  60.6311111  11.9985847  34.2500496  76.5941772  32.5059090  57.6749382
  77.2301178  32.8620644  57.0544815  76.0426254  31.9281445  57.1474800
  70.2858810  44.3956108   7.6097655  69.9899979  45.3031273   7.5383286
  70.3290405  44.0858459   6.7051034  52.3266411  35.3288841   9.2822723
  51.4449768  34.9696846   9.1828852  52.2726898  36.2051201   8.9007864
  75.6148071  33.3295517  26.9087200  76.5074081  33.0576019  27.1221371
  75.4890976  33.0486679  26.0023365  43.2228928  34.1766167  19.0658932
  43.6003304  34.9479752  18.6430664  42.5129013  33.9073524  18.4831028
   0.9201064  50.9202919   4.2222419   1.4837734  51.1855392   3.4954987
   0.6125596  51.7443123   4.5999193  68.1781235  63.9542465  52.3793983
  68.3189087  64.0326004  51.4358559  68.6780548  64.6779022  52.7570610
  57.3517456  28.8588352  50.8326836  57.0863342  28.0563774  50.3834038
  58.2103500  28.6534367  51.2026100   1.2707304  28.7229176  57.5470314
   1.6735959  29.4374142  58.0404129   0.6617247  28.3186779  58.1650429
  73.2308044   2.4681981  21.1202602  73.7621689   1.9603535  21.7334309
  73.7688141   2.5295525  20.3309498  38.1156235  11.4878454  81.5669632
  37.3471336  12.0097485  81.3361511  38.6711006  12.0870275  82.0656204
  61.9557495  65.1494675  43.2292366  61.7800293  65.2486191  42.2935448
  62.1269646  64.2146072  43.3430405  48.7053833   2.9226887  78.0597687
  47.7604256   2.7709320  78.0758362  49.0000839   2.6916518  78.9406815
  73.3275375  42.4910126   7.4526248  73.1696930  42.1783905   8.3434582
  73.1030731  41.7466393   6.8942728  54.0611382  57.1147575   5.5306787
  54.5528526  56.9712715   4.7220645  53.6432495  57.9672546   5.4088106
   0.8154222  19.0788136  39.7279625   1.5941443  18.5528412  39.5458183
   1.1287832  19.9831715  39.7148666  58.8915672  19.1688862  17.5438385
  58.9066086  18.2155800  17.6287708  59.3973694  19.4840908  18.2928658
  57.4342613   1.8908063  43.3670540  56.9175911   1.7661175  42.5709763
  57.4661369   2.8400939  43.4856644  67.4070663  20.9811687   9.2392645
  67.2928162  21.4508858  10.0654268  66.7327042  20.3020306   9.2546282
   7.3256369  49.4037857  61.2899666   7.2086725  49.4620934  62.2382011
   7.6199040  50.2769814  61.0307922  54.0911903  40.1671715  78.1966629
  53.3567734  39.6100388  77.9388580  53.6815453  40.9728355  78.5118256
  46.6928825   1.5173846  46.5226402  47.5788116   1.4815086  46.8832932
  46.8150024   1.7941580  45.6145020  67.8011780  12.0749741  87.1211090
  68.3509140  11.8802414  87.8801193  68.2664642  12.7738018  86.6613464
  86.2933655   2.7386708  68.4189835  85.4389572   2.3975799  68.6833191
  86.8310623   1.9585289  68.2829971  86.3897934  56.7637367  72.0367889
  86.1965561  57.0419121  72.9320526  86.5155334  55.8170738  72.1019897
  85.9108963  31.6181564  26.5682602  85.7874374  32.5446548  26.3618946
  86.8607788  31.5043793  26.6001167   8.0534878  33.3900719   5.2505736
   8.6083536  33.9586945   5.7844491   8.4809589  32.5344505   5.2881780
  20.9559879   3.0853777  59.3645515  21.2032261   3.7918298  58.7678680
  20.7577267   3.5274816  60.1900635  25.1852131  63.2890167  26.4817677
  25.1874561  63.2330093  27.4373245  24.5557842  63.9825058  26.2839699
  30.0402050  69.0426331  13.1129217  30.5311337  68.8262177  13.9056311
  30.7110519  69.2832947  12.4739552  77.3598480  54.1513634  43.4664268
  77.6428604  54.7427177  44.1638756  78.1502228  53.6671104  43.2275848
  66.9342804   0.6265461  13.1496801  66.3578110   0.8042828  12.4064932
  67.3066406  -0.2353193  12.9632168  35.9267006  14.0225554   4.2477560
  35.2514496  14.5391273   4.6875577  35.9714622  14.3891153   3.3646581
  12.0348549  11.5407238  76.3376617  11.2284918  12.0538969  76.3892899
  12.5014353  11.9028978  75.5844269  64.5895996   9.6734905  64.3583679
  65.1898804  10.0466471  63.7128830  64.3960724   8.7966948  64.0266876
  52.2193718  23.1625061  83.6723328  52.0844688  23.5162468  82.7931824
  53.1699638  23.1553822  83.7843704  12.5313797   0.4227747   8.3390999
  11.7247066   0.8843199   8.5681992  13.2127867   1.0933300   8.3867674
  51.9538918  64.6855469  61.1804886  52.2786980  65.3064041  61.8326111
  52.6134758  63.9921646  61.1605453  48.7731094   7.7968059  12.9654961
  48.5099106   8.4395761  13.6241331  48.3961716   6.9719677  13.2717505
  85.5370331  33.1303444  10.2989349  86.1165161  33.5657234   9.6737337
  86.1178284  32.8416061  11.0028830  50.5048904   2.0708795  54.5330505
  49.7258377   2.5268283  54.2145882  50.9296341   1.7407926  53.7412987
  26.0483589  68.5876007  82.3464355  25.9199333  69.5357208  82.3180237
  25.3013744  68.2596130  82.8471069  19.2542667  57.3743095  64.5679321
  19.4251900  58.0863800  63.9515114  18.4701500  56.9446869  64.2261505
  57.1690178  39.1731644  49.3087540  56.5014496  38.7880020  49.8764076
  57.3939743  38.4739380  48.6949883  11.6076059  65.6649170  84.2847977
  11.2947483  65.8442535  83.3981247  11.3291616  66.4251938  84.7953720
  12.4891043   4.3411412  56.1561127  12.1350279   3.6920643  55.5481987
  13.4386625   4.2463417  56.0813904   5.8579063  70.8333969  17.2145615
   6.4865203  71.1197510  17.8771915   6.3593898  70.2500992  16.6449032
  68.4395752  24.8742142  24.1319466  68.9596252  25.5953369  24.4865704
  67.5354767  25.1850243  24.1792793  30.0340385  70.7498474  78.5267181
  30.7386169  70.4540100  79.1031570  29.2304497  70.5188904  78.9926910
   0.6720895  68.3714523  88.1603928   0.6720839  69.3226242  88.2676620
   0.7359930  68.0298462  89.0522766  53.6379547  14.3341055  68.7097702
  52.7117538  14.3789797  68.4723358  53.9085846  15.2485189  68.7924728
  57.7749786  40.7530403  40.8554459  57.4547958  41.4647636  41.4096718
  58.6381760  40.5421333  41.2113075  50.5569267  57.1753540  74.4924164
  50.8026810  56.2536774  74.5720749  50.8801918  57.4357529  73.6299057
  82.6305542  27.8169670   4.2592311  82.0374451  27.8326702   3.5080922
  82.3807449  28.5818405   4.7776875  61.8860474   6.5095325  41.5953827
  61.3662109   6.8494277  42.3237190  61.8944931   7.2206984  40.9547539
  81.0813828   6.5282779   9.5612383  81.2865219   6.2892814  10.4651346
  80.3108521   7.0918279   9.6314840  60.6125946  46.7612381  45.6196251
  60.9581795  46.4097939  46.4401703  61.3636818  47.1868858  45.2061958
  84.1026154  35.8345528   8.4385071  84.1917953  35.0086746   7.9628954
  84.4538651  36.4943924   7.8406224  63.0148926  41.5744247  45.8250351
  63.6116791  41.5043449  46.5701332  63.5705719  41.4316025  45.0588417
  13.9574137  52.3902855  87.2337799  14.0451260  52.1524467  88.1568069
  13.8818312  51.5526466  86.7767487  65.6032104  42.2002068  36.2170677
  65.3768158  43.1301270  36.2319756  66.3924026  42.1371841  36.7550583
  57.7989922  41.9186745  73.8686676  56.8584862  42.0095558  73.7156219
  57.9345322  40.9770546  73.9745560  26.9134541   7.3212314  70.6915436
  27.3544865   6.6832337  70.1305771  26.1336117   7.5753603  70.1980972
  10.8312807   4.9266438  28.2028732  11.5175581   4.9144793  28.8700371
  10.0215282   4.7722063  28.6893730  81.0266266  35.5037231  79.5505829
  80.7909622  34.5881615  79.4007797  81.2938766  35.5350418  80.4691849
  72.1542969  54.2051735  27.5108128  71.5153275  53.7100563  28.0234585
  72.9534531  54.1818542  28.0371609  47.4245377  62.1735153  57.2667923
  48.2744904  61.7612610  57.1123505  47.5456009  63.0822983  56.9916687
  49.6014214  13.8871384  71.0651932  49.4370766  13.7648640  72.0002213
  49.9132614  13.0340176  70.7632446   4.7994285  22.9507771   5.5207930
   3.9380622  23.0777397   5.1230984   4.7489219  22.0874233   5.9310379
  10.6689863  66.6970444  21.1590652  10.1097040  67.4093094  21.4690952
  10.9463339  66.2458801  21.9564133  53.6161842  63.7431870  30.2896519
  53.6520615  64.6142349  29.8944092  53.0445213  63.2402992  29.7095318
  15.0774403  65.5804062  14.6085434  15.3633661  65.2412491  13.7603378
  15.8753042  65.6083374  15.1366205  14.5324163  66.8073120  66.4094391
  14.7394314  66.5847931  67.3171082  14.2819338  67.7306366  66.4403458
  69.0482635  22.4904079  35.9068565  68.3647079  22.1473694  35.3312645
  69.4028473  21.7168217  36.3451080   2.2978425  62.4130211  14.2737770
   2.6328299  63.3094063  14.2511578   1.6302425  62.3894501  13.5882215
  13.0793991  35.6439438  88.1924286  12.8197899  35.8963890  89.0784912
  12.4476576  34.9704018  87.9404831  43.8798676  14.1516933  71.4495087
  43.7589684  15.0605803  71.7243500  43.0375595  13.7334585  71.6279144
  53.7006226  19.5264969   9.7370996  53.8615646  20.1364441   9.0171738
  54.4739914  18.9626255   9.7507095  65.5969086  55.8537750  76.5285568
  65.2848282  55.4053154  75.7426071  64.8148041  56.2657318  76.8957520
  77.1270599  57.8392601  17.9759521  77.5776367  57.2960205  18.6225605
  76.5551682  57.2304802  17.5084419  60.9794312  66.3982086  29.9804916
  60.0534821  66.3462296  30.2174587  61.0221634  67.1034393  29.3346882
  75.0446777  42.2121391  75.9093094  75.3334274  42.7661781  76.6344986
  75.6331482  42.4355469  75.1881866  80.0116119  29.8710041  68.7332230
  79.3728104  29.4081993  68.1910324  79.7140427  30.7807713  68.7300949
  61.6764755   8.2743292  88.0986557  62.3884964   8.9094124  88.1756592
  62.1017570   7.4738145  87.7911758  12.4085035  16.0525131  64.9792557
  11.6166830  16.3682995  64.5439072  12.5652618  16.6855373  65.6799240
  16.6127167  67.8024597  46.3046532  16.4480553  67.0998535  46.9335060
  17.4056892  67.5297852  45.8430557  65.9791107  56.0514259  26.3774738
  66.5110855  55.7367592  27.1083717  66.4505844  56.8176079  26.0504990
  18.7082882  64.0492172  88.3762741  18.0900593  64.0290527  87.6457825
  18.3799763  63.3885994  88.9862137  47.7054405  16.1935005  56.7483673
  46.9568634  16.6864357  56.4123878  48.2985382  16.8623428  57.0905876
  43.3316727  43.9889221  83.5801086  43.3062744  43.5587502  82.7253952
  44.1508408  44.4840698  83.5747910  50.9591179  49.3454208  55.4858246
  51.7363663  49.8828201  55.6385231  50.2237968  49.9386902  55.6393471
  44.1357803  48.9657173  75.0281372  43.5704155  49.1836014  74.2871170
  44.2734528  49.7995186  75.4776535  12.2126732  44.1967278  73.3091202
  11.3966818  44.1002121  72.8181305  12.5934591  43.3185539  73.3158417
   3.7318025  40.5401726  51.3869896   2.8354654  40.2372437  51.2419167
   3.6309505  41.4058990  51.7826920  33.0039978  70.2971802  19.8665428
  33.4659004  70.0500717  19.0654068  33.6264153  70.1101074  20.5692749
  23.3271084  46.0189133   4.7531605  23.3189926  46.5622559   3.9651613
  23.2542629  45.1221313   4.4264984   9.5239325  53.8071022  62.7629890
  10.3876677  53.9867821  62.3916283   9.7034531  53.5157852  63.6569366
  59.8634911  69.8501511  75.3576508  59.0421944  70.1921234  75.7108688
  59.6457634  69.5774765  74.4663162  67.0105286  45.5623131  60.9779549
  67.8101349  45.2965775  60.5238113  66.4663010  44.7749176  60.9852943
   7.9791760  66.4463882  75.9680252   7.6671066  65.8177414  76.6189041
   7.2325912  67.0263214  75.8179626  61.2455635  15.1547852  38.4112244
  60.5346642  14.8907175  38.9952812  62.0346527  15.0878620  38.9488983
  81.2117233   6.5266652  68.8757019  81.8681412   6.7782598  69.5253601
  81.1230850   5.5792241  68.9792862  79.5799942  55.7335815  11.0820618
  79.5460510  54.7888947  10.9315701  79.1987381  56.1158791  10.2916641
  22.3019543  39.8833046   2.7501929  21.9885693  40.1799889   1.8957930
  21.5050964  39.7361031   3.2596865  42.1751900  56.6299095  33.0364685
  43.0121803  56.2204742  32.8172874  42.2499847  56.8450584  33.9661751
  33.1208839  33.2497635  12.2843637  32.9147377  33.7179680  13.0933886
  33.0132904  33.9046326  11.5945787  26.4392509   0.0649508  85.4629669
  26.3903847   1.0147517  85.3546982  26.2418060  -0.0811265  86.3881149
   8.7759018  55.3076973  13.2908449   9.0011454  56.2237549  13.4531345
   8.8900385  54.8790894  14.1390781  85.1323471  14.4321966  76.0357971
  85.4998093  15.3023911  76.1905975  84.2698441  14.4592667  76.4500351
  34.9502525  68.8048172  75.5498047  34.2329826  69.3483429  75.8758926
  34.8781776  67.9898376  76.0466385  15.4335842  70.6334457  50.9763184
  15.1800451  69.7871170  50.6079788  16.2382660  70.4519424  51.4618835
  69.6132889  42.5400085  54.3859825  70.4456635  42.8349762  54.7552795
  69.3571014  41.7987251  54.9347076  75.2684708  12.6804924  14.0997314
  74.8408813  12.4620018  14.9277811  76.1770782  12.4040709  14.2191076
   7.1166654  44.3261185  64.7188339   8.0337219  44.5327568  64.5384445
   6.8555570  43.7489853  64.0012207  31.8721218  68.9458160  58.7468224
  31.2267551  68.7832336  59.4347878  31.7922688  69.8811493  58.5597115
  24.2037354  50.8761673  18.3541431  23.4768677  50.3856163  18.7378788
  24.9696064  50.3198509  18.4962311  84.5548553  23.0579319  76.4629517
  85.3259048  23.0167160  75.8972473  84.9101028  23.0672646  77.3517380
  28.9871120  48.6507797  57.4667549  28.9503479  48.2396507  58.3303833
  29.4179516  48.0016785  56.9106293  57.4357224  42.1220245  83.4255295
  57.4087753  41.4299240  82.7648468  57.9505920  42.8199196  83.0204544
  46.6506538  25.8218746  14.1409187  45.9372482  26.1993027  14.6555386
  46.9143715  25.0435982  14.6318073  82.5102310  55.6229782  80.4152222
  82.2971344  55.2644119  81.2767639  82.3385544  54.9037933  79.8073349
  68.1518631   5.9170785  55.9701385  69.1064072   5.8547320  56.0047531
  67.8972549   5.3102317  55.2750549  83.3431396  68.4378052  38.3185425
  83.6436615  68.1417542  37.4593163  84.0291443  68.1544037  38.9229507
  45.9436760  10.1611013  59.8493042  46.4848251   9.3897219  59.6808929
  45.1449890   9.8117027  60.2445984  75.0543976  57.6905823  23.0358467
  75.1981888  56.9018860  22.5128613  75.5283813  58.3780060  22.5678520
  42.1711044  40.1785278  16.4844818  42.5700035  40.0319405  15.6267977
  41.6795311  40.9936714  16.3838406  67.6603699  40.8862038  27.7089310
  68.4776535  40.9308662  28.2052040  67.4208069  39.9596062  27.7248840
  80.0269470  53.5726929  42.5807648  80.4842148  54.3773499  42.3365059
  80.0405579  53.0388908  41.7863426  13.6747408  45.9669380  82.2818298
  13.3987474  45.2896004  82.8992996  14.3724508  46.4371834  82.7382278
  45.1837883  24.0935593  77.4487610  45.5900078  23.3491764  77.0047836
  44.7419624  24.5768509  76.7505798  82.9640121   3.7029269  83.6963272
  83.4176331   2.9959044  84.1552124  83.4768372   3.8391509  82.8996582
  22.2072582  29.9363937   4.0337882  21.6983891  30.5656414   3.5225832
  22.2920151  30.3417034   4.8967896  62.1768341  37.5350113  82.5520706
  61.6050835  36.9330063  83.0284348  61.5770454  38.1386261  82.1137314
  61.7880630   8.2156019  82.4543533  61.3440590   8.4528580  81.6402283
  61.4824333   8.8617878  83.0909576  57.0818481  17.8359547  51.2684250
  56.1678505  17.7176800  51.5269775  57.1683044  18.7772923  51.1179543
  45.9447250  41.7829361  16.3768787  45.2258339  42.2751808  16.7732601
  46.1252365  41.0790787  16.9999619  54.2534065  15.1743355   2.4172094
  54.2706947  15.7518578   1.6540569  55.0831299  14.6987953   2.3765500
  81.2333755  69.5109863  24.9774284  80.6618195  70.2568359  24.7950230
  81.8681793  69.8450623  25.6111908  26.8519783  49.7436333  66.3188019
  26.8719978  49.0115356  66.9351349  26.0745792  50.2441254  66.5665741
  66.2918396   3.0999393  10.9869089  66.1574707   2.3390076  10.4219666
  66.0452347   2.7961919  11.8604975  58.0782089  71.3698883  25.1073017
  57.9892082  72.3208237  25.0437584  57.4619713  71.0278397  24.4596214
  82.7427139   0.7834904   2.0076592  82.8792267   0.1232153   2.6870944
  83.6108475   0.9196702   1.6281410  78.8100281  21.6510048  35.1828041
  77.9928589  21.8166046  35.6529503  78.6424637  20.8501759  34.6859894
  58.2563019  51.8296051  66.7145233  57.8107986  50.9852219  66.6454010
  57.5603333  52.4507484  66.9290924  75.4919968  64.6346664   9.6393890
  75.6613159  64.8742676  10.5505180  76.1539078  65.1120911   9.1392136
  73.6468582  33.6994362  46.2111588  74.2497253  32.9568253  46.2474518
  73.2125320  33.6140823  45.3624535  34.3296127  63.2214165  16.1757984
  33.8129005  62.5647011  15.7089357  34.5366631  62.8108025  17.0152988
  20.7794704  33.9805603  24.9752293  21.5023270  34.4123192  25.4305248
  20.8923588  34.2282677  24.0575542  36.1886139  59.6650238  88.3270798
  36.9117584  59.7061653  87.7013016  35.5602798  59.0633659  87.9277878
  70.6567383  51.4450951  12.7841768  70.6630173  50.5973434  13.2286015
  70.2033768  52.0302925  13.3910007  40.8205872   2.2717478  21.4733162
  41.3980446   2.4792032  20.7386513  40.6156540   1.3433760  21.3621426
  58.3250961  22.4295521  32.1501579  58.8196220  21.9936142  31.4561577
  58.7653046  22.1675797  32.9587479  31.8159523  60.5363998  73.8661270
  31.7093372  61.3846474  74.2966461  32.7351112  60.3098106  74.0076752
  53.8257294  41.9474182  49.9918365  53.9342842  42.5661087  50.7141037
  54.7165070  41.7796059  49.6842880  63.7908516  19.0187435  78.9090881
  63.6448441  19.8486195  79.3632050  63.0954132  18.4445744  79.2299118
   4.1548662  47.7107239  24.2970161   3.4632585  48.2002182  24.7423325
   4.1144218  46.8351898  24.6817684  71.3522491  47.9164162  59.9767609
  72.0334167  48.3608017  60.4815102  70.5339890  48.1691170  60.4043350
  47.9254990   2.5467095  43.9128113  48.2430878   1.8213632  43.3750000
  47.8806152   3.2895169  43.3107681  73.1016846  26.3503685  33.1039886
  72.5041885  27.0937901  33.0230064  72.5329056  25.5812092  33.0705528
  55.9042244  51.6194725  17.2809010  55.3783340  50.9019394  16.9276104
  55.8333626  52.3135757  16.6255875  69.8569565  34.4018822  68.0022125
  69.6387024  33.9264641  67.2006073  69.0110474  34.5777740  68.4142075
  60.5315628   6.4835248  55.0845985  60.6922302   7.0491781  54.3293152
  59.8427849   6.9306178  55.5764618  19.2948933   8.3606510  69.8186188
  19.2618065   9.2259855  70.2264633  18.4097958   8.0119305  69.9245834
  54.3139381  69.1866455  31.0689201  54.0545349  69.7283859  31.8142147
  53.8392334  69.5587082  30.3256435  55.5081635   8.5283413  21.5190258
  55.3689041   8.1734638  22.3970337  56.1547890   9.2234173  21.6414108
   9.1426983   2.4655859   7.1233678   8.6622639   3.2895617   7.2038560
   9.7460184   2.4665351   7.8664932   4.7678690  10.4443760  24.8007736
   5.4417653   9.7734118  24.9098721   5.0925198  11.1933994  25.3005714
  40.5600700   2.4230688  52.1410904  39.6906776   2.8191521  52.2003250
  40.8886375   2.6936669  51.2837372  79.9352036  68.0837173  15.7189054
  80.3608551  68.2584915  16.5582561  79.3813629  67.3209915  15.8854446
  15.0528946  49.9233055  63.2316360  14.8642397  49.0869293  62.8060570
  14.7044582  50.5818176  62.6306496  84.0792694  54.0726814  46.1354027
  84.5948410  54.1488342  45.3325195  83.8605576  54.9755402  46.3661385
  69.2848129   4.0138636  38.2098732  68.7072983   3.6118004  38.8587570
  68.9810944   4.9194446  38.1473579  76.8231125  50.3059959  62.1242256
  76.4267654  50.8412209  62.8117409  76.5940170  49.4067001  62.3587837
  66.0539322  23.8481178   8.8742723  65.2530441  24.2498970   9.2109900
  66.3518677  23.2776127   9.5827856  33.6378784  46.2740135  74.7407303
  32.9903984  46.8430824  74.3246002  33.2479248  46.0441971  75.5841446
  42.3132286  43.8516693  10.5635071  42.5764961  43.1107864  10.0176001
  41.4158821  43.6479836  10.8271561   7.1689725  10.7656345  70.2723846
   7.8876085  11.2958593  70.6168518   6.6328726  10.5619621  71.0387726
  82.5339508   9.2599897   9.4562359  82.6206894   8.4155684   9.0139008
  82.7283478   9.9067793   8.7779255  40.7058525  46.0995178   3.0073276
  40.3019905  45.9532127   3.8627334  41.4749718  45.5297127   3.0049818
  73.7849274  11.4553881  37.1221161  73.7359695  11.0701370  37.9969978
  73.9721909  12.3810320  37.2781525   3.0498514  56.9920692  25.0249729
   3.4349949  56.6142845  24.2342930   2.5888186  56.2624779  25.4389515
  73.7411270  50.8496971  66.2072296  73.9319153  51.3354340  65.4048080
  73.0775528  51.3757019  66.6535797  84.5494232  14.9140310   6.0159049
  85.2183838  15.3236971   5.4673638  84.9715347  14.1273394   6.3611088
  12.0275278  54.0268211  61.8470497  12.7480059  53.4711037  62.1442337
  12.2396898  54.2268829  60.9353523  43.1576691  64.7441864  26.5910263
  43.4471169  65.0053940  25.7168293  42.8595543  63.8408318  26.4846516
  86.1963348  27.5097065  29.1507378  85.6184158  27.2944145  29.8827801
  86.0934753  28.4541912  29.0341244   6.1058445  12.4271793  76.4611893
   6.4796667  12.0904245  75.6468887   6.4403410  11.8400145  77.1391144
  62.9980316   1.9745098  50.9829521  62.1751633   2.3482492  51.2982903
  63.1168404   2.3564153  50.1133194  54.5689163  20.2069740  64.1289368
  54.3958931  20.9738159  64.6750565  55.2464333  20.4961586  63.5177269
  48.1303711  45.6900711  31.6469460  47.9597054  45.1948853  30.8457603
  49.0288200  46.0048180  31.5471802   0.8986887  67.3428802  35.5517883
   0.4934060  66.4782028  35.4861679   1.6617608  67.2940598  34.9759674
  29.2827320   7.9611936  86.6734848  28.6043606   8.2432947  86.0599136
  29.5567093   7.1030979  86.3496933  66.6658478  65.8857117  57.2939873
  66.5354004  66.4116440  56.5049286  67.5876083  65.6297073  57.2615166
  78.8364410  27.0400524  79.5293884  79.7096024  26.8960094  79.1645889
  78.4334106  26.1718597  79.5359879  38.1193542   1.6073234  17.4156055
  37.6433487   1.0933470  18.0678902  37.4366684   2.0746768  16.9341965
  33.1950874  11.8959112  24.4360085  32.4022560  11.3922939  24.6204491
  33.8536835  11.5307150  25.0268669  26.3401489  43.2311478  78.1061630
  26.8632832  42.4419975  78.2468948  26.4915791  43.7615585  78.8884430
  35.9194908  24.3558064  13.9017935  35.5823326  25.2332039  14.0827103
  35.1544113  23.7853184  13.9754877  72.0665741  45.9723396  64.7105865
  72.3488846  46.3296051  65.5525436  71.3781433  45.3462181  64.9347992
  44.0860901   1.5063399  23.5682278  43.8481560   1.2105906  22.6895065
  45.0344238   1.6307259  23.5304813  29.7220783  36.1005173   1.3706541
  29.2623329  35.3454132   1.7376493  29.0245018  36.6797714   1.0639189
  56.9373131  26.7733555  66.8530807  56.9861374  27.5802860  67.3656387
  57.1015663  26.0760574  67.4879303  20.3223667  53.7907944  45.7900658
  19.8106022  53.0392609  46.0892754  21.2173958  53.5973854  46.0689011
  55.4995918   6.0996428  23.3665428  54.6821556   5.6038556  23.3193817
  56.1459961   5.5368323  22.9403515   4.6381407  44.2020187   6.0225663
   5.5895224  44.2329636   6.1233025   4.4988074  43.7088623   5.2141032
  60.5865593   2.5233126  20.6223202  61.0267143   1.8129793  21.0891418
  60.3688850   2.1499066  19.7682610   4.8131599  46.8199310  73.8739548
   4.4578247  47.2566681  74.6480560   5.7559953  46.7785912  74.0339050
  40.0598640  57.0478630  55.4285927  40.8391151  57.2753410  55.9357986
  39.8353500  57.8522072  54.9607735  84.2590561  11.5815153  44.4077415
  83.6296082  11.0709934  44.9170494  84.7502060  10.9281254  43.9096680
  28.8468246  42.3646507  72.9232025  28.1710300  42.0098801  72.3455582
  29.4658375  42.7936440  72.3324280  35.8022690  34.5163574  76.9030380
  35.8412590  34.2598877  75.9816589  36.5425262  35.1123390  77.0172882
  78.4112778  42.1089325  63.8143539  77.5834198  42.2533836  63.3560791
  78.7996445  42.9807167  63.8878441  78.7676239  52.9331322  11.6525345
  78.3694305  52.0846634  11.4581738  78.2221298  53.2999611  12.3483114
  15.4881630  65.4541168  61.4089088  15.5026398  65.3423843  60.4583626
  14.7000055  64.9908752  61.6925430  19.5067692  41.0532494  86.4401016
  19.1903992  41.8522110  86.8617630  19.3474979  40.3633118  87.0841904
  77.9346008  56.0998650  20.1836758  77.1637192  55.8196068  20.6770592
  78.3285446  56.7849960  20.7237053  68.1726151  55.4371338  86.6870804
  68.2079315  55.8152771  85.8084488  67.4694595  54.7893105  86.6409378
  17.4053154  58.0184097  27.0919495  16.8136673  58.0672264  26.3410835
  17.3606682  58.8882256  27.4890079   3.1513157  26.0916996  22.3815708
   2.6511273  25.3483715  22.0446625   3.2337813  25.9195042  23.3195381
  52.3898315  16.0721416  88.3836594  53.2355766  16.4417744  88.6372681
  52.1020508  16.6143017  87.6491699  25.2652664  45.7986794  85.8709564
  25.7815533  45.6804008  86.6682587  24.3632870  45.8832016  86.1800232
  74.4216919  22.9476757  55.3236580  73.8291473  22.4961243  54.7226448
  74.2380295  22.5584354  56.1786385  81.5614166  68.0757828  45.9467354
  81.4929733  67.5178986  46.7215347  82.4704819  68.3755035  45.9469528
  56.2077675  12.3110828  25.1847992  56.2290230  12.9202232  25.9228573
  55.4910622  12.6266546  24.6343651  20.5816498  29.6923962   8.1960793
  19.7166176  29.8608913   7.8225026  21.1876526  30.1488075   7.6123991
   6.8797078  55.8732719  20.5207996   7.1403041  55.0403137  20.9138680
   7.3666549  56.5335464  21.0139027  67.8088760  51.8779259  15.5890665
  67.9112930  52.5365181  14.9020462  67.1450958  52.2432442  16.1740208
  67.1615677  32.5838623  61.2586708  68.0034943  33.0387726  61.2374344
  67.0620499  32.2229538  60.3777237  83.4717941  27.4462452  76.8733444
  83.1669769  26.6204796  76.4972687  84.4250488  27.3621521  76.8949738
  64.2012787  35.5332565  69.2377777  64.7299423  35.2333374  69.9772339
  63.7734985  34.7412224  68.9123230  80.2953949  46.3932419  74.6565323
  79.6018143  46.0782280  75.2361374  80.7217026  45.5973778  74.3385773
  16.0446892  51.7917442  35.3819351  16.1814327  50.9199600  35.0110855
  15.8070564  52.3366013  34.6316719  57.1473427  60.5153503  47.4120560
  57.5409698  60.0339241  46.6843758  57.6773987  61.3086662  47.4889832
  63.1655960  61.7225304  52.2747116  63.7208176  61.8360329  53.0461235
  63.6562004  62.1348915  51.5637283  79.1800766  35.0885658  25.3659077
  78.5900345  34.8232155  24.6604462  79.4031219  35.9969521  25.1626530
  76.1551971  66.3751602  73.3009415  75.2102051  66.3858643  73.1489105
  76.4870300  67.1193695  72.7986755  63.9497833   1.1160482   1.7453985
  63.5484581   1.9623027   1.9429442  63.3182907   0.4712309   2.0642455
  80.1068420  34.3926010   6.7664328  81.0531235  34.2494278   6.7830987
  79.7626648  33.6596680   6.2559595  27.0687294  53.7339478  84.4171066
  26.3032093  54.3070679  84.4588623  27.8138905  54.3194122  84.5520020
  76.5918503  28.3435497  35.3042526  76.4587173  27.4088535  35.1466103
  77.4986801  28.5037212  35.0430145  67.6049805  62.7673187  10.8438387
  66.7382660  62.4440155  10.5978441  67.5131989  63.0244255  11.7612820
  57.9981689  38.9427872  45.4531708  58.0202560  38.1380959  44.9352760
  57.2661934  39.4413338  45.0900002  74.7261887  21.7375031  43.5652428
  74.5077209  21.0377789  42.9497032  75.5237808  21.4344597  43.9991035
  21.3636322  59.3086548  53.5558472  21.4682922  59.0960808  54.4832573
  22.1325760  58.9252586  53.1339874  15.3173189   9.8798075  73.1660538
  14.6637878  10.5684862  73.2879181  15.7093248  10.0697308  72.3137131
  82.3681793  42.0287323  19.9867764  82.5367279  42.0432434  19.0446434
  82.1440659  42.9336243  20.2039623  85.2164230  36.7980118  51.8245087
  85.4127502  37.3670921  52.5687065  84.4790573  36.2637100  52.1195450
  78.8705978  24.5554161  34.2705040  78.3794785  25.0562077  33.6191635
  78.6587143  23.6416702  34.0797043  64.8572540   2.3999598  65.6607132
  64.7002792   1.4949331  65.9300079  65.0544891   2.8615756  66.4757233
  74.5073853  48.0920181   2.2038519  74.0741501  48.9379463   2.0900519
  74.5289917  47.7138100   1.3248051  59.8199463  66.9772339  20.1360893
  60.1604614  66.2332687  20.6328754  59.8672714  66.6967545  19.2221298
  68.6435394  16.5573597  -0.0337133  67.7661285  16.5848293   0.3479004
  69.2049332  16.9628506   0.6270824  43.3817101  48.8187332   6.1412091
  43.1371574  47.9162941   6.3462114  44.3284340  48.7850685   6.0040526
  65.6363525  47.9494896  66.1467285  65.5885544  48.7540855  65.6304245
  66.5264740  47.9432793  66.4986877  24.7966423  31.0102062   2.0606341
  24.8513355  31.1785564   3.0013249  25.7065678  30.9047241   1.7828921
  66.0827103  50.4112320  70.4092102  65.9840012  50.7655334  69.5254974
  67.0288467  50.3824768  70.5514297  18.9631596  55.0040016  69.1733475
  19.2533588  55.4348335  69.9773407  19.6085205  54.3126640  69.0257187
  25.7947254  59.8177757  21.4981670  26.1162434  60.0641975  22.3654251
  25.2635460  59.0366211  21.6526966  20.1163654  41.2903214  34.5800629
  19.3680248  40.7019348  34.4799728  20.2318153  41.3720932  35.5267525
  44.4728050   8.5966377   9.6717463  44.6539803   7.6597066   9.5971346
  44.6561127   8.8038044  10.5881042  46.8053131  64.2852097   1.7952051
  45.8517723  64.2811508   1.8787123  47.0636406  65.1730423   2.0426922
  11.6265993  28.7629318  55.6031113  12.5721169  28.9115162  55.5908394
  11.3133078  29.1459198  54.7837219  74.3433685   9.1898136  23.4516792
  73.5636368   8.6346846  23.4605980  74.0096283  10.0740099  23.6034851
  67.2066574  40.0218887  54.0393677  67.2789383  40.3325920  54.9418488
  66.7506409  39.1833115  54.1105614  13.6564121  23.5314560  78.5969238
  13.4162264  24.3914833  78.9417343  12.8921051  22.9819107  78.7703171
  13.3430538  41.3044968  86.9626846  13.0275488  40.5661163  86.4416428
  13.3859749  40.9656601  87.8568726  11.0071106   4.0291009  75.2690125
  10.7172518   4.3857827  76.1086502  10.3107481   3.4245801  75.0123749
  44.7796402   3.9822128  66.7155380  45.2663994   4.7098484  67.1026306
  43.8609161   4.1933351  66.8816833  13.2540665   9.1737576   5.5770950
  13.3595715   8.2515402   5.3433943  14.1103153   9.4343081   5.9164829
  60.1240807  69.7166443  50.9854126  60.0786095  70.3898010  51.6643944
  60.0907784  70.2040710  50.1622849  83.0016479  47.6170502  88.2528305
  83.3156891  46.8428268  88.7199326  83.5600815  48.3286133  88.5659866
  59.4429588  18.7098827  49.3266487  59.9346848  17.9201813  49.5520439
  58.5584869  18.5423298  49.6520271  35.7980766  41.1053925   2.7671053
  35.4998550  41.6228676   3.5151129  35.2505379  41.3992348   2.0390322
  38.3937721  30.0397453  23.4973412  37.7236900  30.7023983  23.3296795
  38.0353966  29.5119209  24.2109222  73.3487167  35.4345932   6.2420907
  74.0277176  35.7955208   5.6720695  72.5305481  35.7894707   5.8944011
   1.4854931  69.0199966  10.8865328   1.0077444  68.2109909  11.0695648
   2.2318723  68.9981079  11.4854250   2.5071924  17.6503563  25.4742279
   2.2500281  17.6966763  24.5533829   1.7859715  17.1881561  25.9013615
  55.5005569   2.4442043  72.4622269  55.5285492   3.2664373  72.9514923
  54.9583015   2.6387107  71.6977921  48.6057167  42.5789566  24.8402157
  49.5448341  42.5271034  24.6624413  48.4242630  43.5170441  24.8976574
  18.8944035  67.2297592  63.6187973  18.2056961  66.5779037  63.4884071
  19.4550972  67.1432800  62.8478394  83.0702896  13.0276651  28.2302647
  82.6105194  13.0095501  27.3909092  83.5889969  12.2232189  28.2366352
  65.0986404  17.7425194  16.9947453  64.9215851  17.8960495  17.9228134
  64.7529678  16.8658581  16.8267956  54.4510956  14.9412737  13.4715557
  54.1064949  14.1310930  13.8471746  54.9715538  15.3290606  14.1751041
  57.3982811  70.7588425  85.3702927  57.3364639  70.1199493  84.6602097
  58.0439224  71.3956680  85.0639725  59.7035942   0.9924341  30.3614998
  59.3860855   0.0986224  30.2329655  58.9099083   1.5267265  30.3903236
  16.9925804  19.9995880  18.9797306  17.2164688  20.9221554  19.1021004
  17.0276089  19.8682613  18.0322285  56.1641922   3.2593620  81.0533447
  56.8589172   3.9148924  80.9911575  56.5904388   2.4945960  81.4402237
  29.9623852  52.9011192  61.2207909  30.2324085  52.7203712  62.1211510
  30.0322380  53.8520012  61.1360970  43.2862625  10.3357010  24.6669502
  43.0250473   9.5527706  24.1821651  43.5976143  10.0033350  25.5088692
   8.9602022  68.8701630  21.1426125   8.2904720  69.1589279  21.7625389
   9.6689949  69.5056686  21.2425098  11.0102310  21.9518108  79.4143906
  10.6449995  22.4241524  78.6662369  10.2914276  21.9096050  80.0450821
  14.7491655  61.8642235  51.7029495  14.9781647  61.1124916  51.1564217
  15.5541544  62.0683823  52.1789169  34.2354431  36.9116516  86.3827362
  34.9215851  37.0930138  85.7404404  33.4366417  37.2565384  85.9837341
  47.7075500  68.3514862  74.9517441  47.3365974  67.6062622  74.4792404
  47.2629128  69.1145325  74.5825653  46.4042130  46.7004280  44.0954170
  47.2555885  47.0693626  43.8602982  45.7780685  47.3960571  43.8947334
   7.7066803  58.1102791  23.9709816   8.3091660  57.3664894  23.9758701
   7.0402470  57.8744431  23.3256283  15.1506271  50.4982224  37.5897598
  15.5234432  51.1289558  36.9737892  15.8900566  49.9462280  37.8442688
   5.2153583  42.7491531  31.0115452   4.4655218  43.1921577  31.4086876
   5.3107862  41.9411392  31.5157681   2.3820913  11.2422342  12.4332867
   1.5334978  10.8049021  12.5030107   2.9300482  10.8073769  13.0866432
  71.5721893  53.9457893  76.3413544  70.8704453  53.4994736  75.8674393
  71.9199142  54.5792694  75.7136383  56.1928215  14.9165640  66.6636505
  55.5999451  15.5964794  66.9837189  56.7851372  14.7506227  67.3970413
   9.5655317   6.5362248  79.3375626  10.3559427   7.0692477  79.2517166
   9.0194197   7.0162044  79.9601517  45.2966995  29.6760254  61.1098824
  44.9475555  30.1720467  61.8503532  46.0054092  29.1530991  61.4847336
  80.3725281  23.8877373  76.1561356  79.6116943  24.4222088  75.9287338
  80.0434494  23.2669067  76.8061371  46.5502205  43.0071259  81.7534256
  46.8186607  42.0883446  81.7496262  46.8445930  43.3391495  82.6015625
  27.5222454  68.8868790  75.7461929  27.7668171  69.6656647  75.2462845
  26.7282543  68.5669174  75.3178940  44.4258423   6.2609611  38.7249374
  44.4455414   5.3286190  38.5091095  43.9469299   6.3051577  39.5525360
  68.8121719  12.4271431  30.1786613  68.9907837  13.1260672  29.5495110
  67.9372787  12.6240225  30.5133896  67.8381195  15.9339209  84.0570908
  68.5033951  15.9601307  84.7448120  67.1693497  16.5543404  84.3470230
  44.9947243  51.6729774  34.3568420  45.4008102  52.1560326  35.0765533
  44.7076874  50.8500404  34.7525902  26.4642982  52.5859718  16.3892021
  26.2271080  51.6782036  16.5787601  27.3952732  52.5494347  16.1697025
  18.8246326  52.1970139  58.1635132  18.3220654  52.9072495  58.5625420
  18.4327450  52.0833855  57.2976379  85.1562424  57.8470154  67.2427139
  85.4227219  57.1909332  66.5986786  85.9299622  57.9710846  67.7924347
  69.0437851  66.5440521  43.0162086  68.4943924  67.3035812  42.8225403
  68.8824005  66.3615036  43.9418793  81.1203537  22.5311604  39.7342377
  80.3701859  22.9924870  40.1092796  81.3927155  23.0768490  38.9964867
  46.5456085   0.3142467  53.9368134  46.1476440   0.4054165  54.8025742
  46.2713699   1.0995861  53.4632454   9.3956051   1.9835057  86.7225723
   9.1902323   1.1295574  86.3420105   8.6024542   2.2308991  87.1978989
  34.8325081  10.7140837  53.9484749  35.3607407  10.8214245  53.1574783
  35.3829117  11.0572023  54.6524353  45.6121216  17.8452835  66.4241714
  44.7539597  17.7973709  66.0028687  46.1634521  17.2531433  65.9126740
  70.0271072  43.2120552  63.2718658  70.5713120  42.5972900  62.7797928
  70.1722336  44.0559158  62.8440018  73.9774857  46.0455704  54.9138145
  73.5661240  46.3695221  54.1125221  74.8694305  45.8190575  54.6504555
  14.5238943   3.4997845  53.4566536  13.9415941   2.8354959  53.0880356
  15.3520050   3.3764553  52.9926987  78.2900696  27.2970161  55.3120003
  78.7129593  27.4115009  56.1630554  78.2083054  28.1848831  54.9638062
  27.7823887   8.1923018   7.6963367  28.0551338   8.0714779   6.7868075
  27.3042145   7.3914700   7.9113936  65.2058029  51.5117531  46.4924812
  65.3744278  51.9641190  45.6659431  64.2674942  51.3232803  46.4752731
  13.5457563  65.0641861  64.2177200  12.9976406  65.6064682  63.6505089
  13.9624062  65.6862869  64.8140564  84.3977432  39.2643547  56.9454346
  85.3540039  39.2247009  56.9603958  84.1382065  38.5621109  56.3490067
  60.3754387   3.2238028  87.2857361  60.2346992   4.1674356  87.2083969
  60.8781776   2.9918375  86.5049210   1.0021919  46.8205147  26.3917542
   1.3440764  46.1759453  25.7721748   0.5726898  46.2976189  27.0687637
  82.8423462  34.5743523  47.9564476  82.2277756  35.2519951  48.2381058
  83.4308929  34.4596825  48.7025681  30.1247826  65.5467834  17.4415722
  30.7256317  64.8085098  17.5424099  29.8161621  65.4826965  16.5377598
   4.2099609  59.3810806  29.8161430   4.2088404  59.0304985  28.9254570
   3.4753067  59.9944572  29.8330326  32.8262596   8.8355455  42.2998009
  32.6736183   9.4603853  43.0086784  32.1108818   8.9929399  41.6836090
  47.5369225  68.9773407  15.0835457  47.5559731  68.6161652  14.1973047
  46.6259193  68.8821106  15.3614626  80.7008743  62.6773415  74.9184036
  80.8050537  61.7980156  74.5548553  80.9269562  63.2634430  74.1961823
  79.0495911   2.1045704  10.4551449  79.8787079   2.5828669  10.4594603
  78.7894211   2.0845551   9.5341988  76.1462021  64.8129425  56.4572868
  76.3184891  65.7490234  56.3558350  75.7456207  64.5518875  55.6280594
  12.5652523  13.4469147  41.6786652  12.9003935  12.9972401  40.9029694
  12.5394812  14.3702965  41.4277992  21.6488895   3.6969442  46.3908997
  22.4000340   3.1871932  46.0873070  21.7518196   3.7319763  47.3419037
  34.7998009  14.0468473  77.2237320  34.2371635  14.1773911  77.9870377
  35.2703896  14.8749380  77.1286316  44.7813606  27.3365307  56.7889442
  45.5451889  27.7517090  57.1894722  44.4507027  27.9886398  56.1711617
  62.5104179  53.3173599  54.1846619  61.8201141  53.6504669  54.7580299
  62.4938316  52.3693085  54.3156281  41.8323631  53.0774345  62.5372810
  41.5342865  53.9665947  62.7290535  41.0448875  52.6187592  62.2444801
  78.6613846  47.2927475  69.6356964  78.3068008  48.0459480  69.1632690
  79.5440750  47.5627937  69.8890076   4.5035963  35.4671326  15.8196917
   3.7715814  35.9281158  16.2294235   5.2638965  36.0217781  15.9944592
  21.2340946  62.8410568  21.2508469  21.4376984  62.2705116  20.5097275
  21.4318237  63.7229576  20.9355907  52.7493553  65.9981537  65.0718918
  53.6264076  65.8054581  64.7404099  52.8636780  66.7807693  65.6110458
   3.4133573  58.8694191  42.0183716   3.7223873  59.5022202  41.3700638
   2.9227939  58.2245636  41.5087280  67.6996765  63.7308693  72.1804123
  67.7563858  64.6842728  72.2439423  67.6479263  63.5560989  71.2407227
  30.7450104  38.3972588  17.9086208  31.5347195  38.8713913  17.6482563
  30.1641674  39.0730743  18.2580910  20.2048950  31.5430679  59.5341949
  20.2286453  32.1290665  58.7777061  20.3604450  32.1154137  60.2854958
  74.6382904  34.9599228  11.3407154  75.4233856  34.6042900  11.7571068
  74.8633881  35.8688011  11.1419630  69.5232010   4.5235853  78.3445053
  68.5963440   4.7438655  78.4374771  69.9757233   5.1470690  78.9125977
  16.3057919   7.3751998  20.7057076  16.3247967   7.7732701  19.8354149
  17.1062965   6.8520432  20.7473278  46.4873047  46.1519241  48.9201317
  46.7728920  47.0651321  48.9469414  46.0547943  46.0114098  49.7624054
  73.2238617  37.8280220  53.1236916  73.1022263  38.7566071  53.3215828
  72.5113831  37.6163445  52.5205307  34.8338509  65.2384644  23.0319710
  34.5907135  65.9107437  22.3954468  35.6375237  64.8553162  22.6804905
   3.1915753  65.6132736  17.7295589   2.5624332  66.3086777  17.5376587
   2.6692488  64.8111496  17.7299576  64.2715759  40.8698425  81.9357605
  63.4062386  40.7717247  82.3329849  64.8122711  41.2471581  82.6296768
  85.0396957  16.0675774  58.7196617  84.3420410  15.8022451  58.1204071
  84.6352768  16.0368061  59.5866890  76.4947815   4.9244146  42.8647079
  77.3063202   4.9427857  43.3719559  76.6681595   4.3026786  42.1578712
  16.3912182   0.2997007  68.4967575  17.2278824   0.1721761  68.0495911
  16.3821011  -0.3678022  69.1827545  64.5484238  18.1529484  30.1662197
  63.6466751  18.1365185  30.4868584  64.8911438  17.2828560  30.3704662
  48.7033348  51.4042625  18.2071705  49.1646118  50.6297073  17.8854256
  48.2424011  51.7443123  17.4402714  24.5667191   9.3683252  38.2842789
  24.3026352   8.4708729  38.4869423  23.7584209   9.7986994  38.0055962
  40.4375725   8.2463446   8.4863977  40.1602516   9.0457850   8.0389395
  40.0889359   7.5366688   7.9469132  25.3772697  41.0053520  26.8657417
  25.3408909  41.3348465  25.9677773  25.8086319  41.7027588  27.3594837
  39.8205490  46.9225273  88.0158920  39.2454567  47.0337944  88.7729416
  40.1438904  46.0246964  88.0906448  86.0160828  20.4063988  86.7873154
  85.4185944  21.1524906  86.8382187  85.7372513  19.8274212  87.4967270
  57.6324310  12.7724886   5.2217679  56.9671631  13.0691652   5.8427606
  57.4210243  11.8520393   5.0658450  26.6349735  66.5375137  27.9816360
  27.5135040  66.8431244  28.2075081  26.4750061  66.8932495  27.1075115
  48.5422554  12.6443233   4.9777622  49.1830482  12.1233101   5.4616647
  48.0493431  12.0028820   4.4660778  34.0700836  12.4918442  14.7215815
  34.9614983  12.3924465  14.3873205  34.1762581  12.9535828  15.5532999
  19.0908527   3.9690130  45.5572968  18.6939983   4.5638251  46.1936417
  19.9046631   3.6828153  45.9720650  84.5522766  39.1748199  35.1893044
  85.3327713  38.6335373  35.0706558  83.9021759  38.5792656  35.5620270
  61.8804245  34.6905861  65.4916382  61.8589630  34.4462051  64.5664139
  61.9363098  35.6461372  65.4857407  37.0653419  57.4453011  72.0382080
  36.7264709  56.5685768  71.8572388  37.5962067  57.3386841  72.8275375
  61.3168678  65.8204575  23.2932606  61.4938431  65.4401932  22.4328461
  61.2492561  66.7612076  23.1300430  68.6420746  44.1131096  68.9982529
  68.9629135  44.3986778  68.1428299  68.5950699  44.9163246  69.5167770
  60.4973640  10.5069294  54.1115799  61.2689362  10.3644466  53.5633087
  60.0008202  11.1857471  53.6545448  50.3808784  42.8450279  21.1351223
  50.2788506  42.2398529  21.8696880  49.9404984  43.6453209  21.4211750
  25.5802269  54.6928864  26.2287273  25.0910320  55.3769569  26.6858616
  25.0747204  53.8944550  26.3810463  11.3995686  24.8306999  19.0637913
  11.4542580  23.9608536  19.4595280  10.7495241  25.2937946  19.5922012
   4.6609979  12.8359642  72.1131363   3.9066415  12.4562826  72.5637131
   4.2854757  13.2923145  71.3601685  41.5631905   8.2526102  14.6669025
  40.8591347   8.2452869  14.0184555  42.2356262   7.6806898  14.2968121
  50.3363914  54.4158325  49.0925064  50.7456284  53.5695038  49.2727318
  51.0098495  54.9136620  48.6289825  21.9677677  60.1213989  65.6655884
  21.7285099  59.7553406  64.8141251  21.3402023  59.7358551  66.2769394
  41.0979614  69.5113220  59.9945374  40.5511589  68.9007874  60.4889908
  41.7977753  68.9673767  59.6331291  53.4714165  55.8679352  20.7629223
  53.2686539  55.1808891  20.1280289  54.3782387  55.6982193  21.0180702
  13.8032856  24.8641205  21.1758709  13.9882498  24.4955864  22.0397015
  13.0955973  25.4901676  21.3290920  25.8844833  63.5271721  23.2682533
  26.8107147  63.3836632  23.0740032  25.5677280  62.6749878  23.5677090
  11.8821907  18.8710365  40.0677986  12.5814095  19.0942841  39.4533997
  11.1438084  18.6242008  39.5109367  43.3770714  36.6588287   2.8037157
  43.0049553  36.8589668   3.6626141  44.2342606  37.0847816   2.8089132
  81.1412201  67.7186813  66.7300873  80.7740479  68.1945572  67.4750443
  82.0767212  67.6566696  66.9230347  82.0721054  65.1136398  55.9092522
  81.4401169  64.6167297  55.3897247  81.6167450  65.2944031  56.7315712
  33.1243248   9.4976473  63.5704727  32.9940453   9.4945955  64.5187607
  32.2388382   9.4900980  63.2070351  47.6354065  11.2627287  57.1708603
  47.7839432  10.3754377  56.8439293  48.0038338  11.2572746  58.0542984
  22.5081425  70.1176682  26.8146324  21.5696964  70.0027008  26.9640656
  22.9191685  69.8035202  27.6199913  39.8185539  67.3359299  79.5921021
  40.3425751  68.1320953  79.6801758  39.7180634  67.0149765  80.4882736
  19.9374294  55.6504822  71.8710709  20.3414993  54.8463936  72.1972580
  20.5392399  56.3458023  72.1367569  27.6727734  47.4300652  23.9236374
  28.5548344  47.5381355  23.5679436  27.8078098  47.2923355  24.8612022
  62.8941727  47.2086983  71.8986969  63.8307266  47.3682442  71.7818985
  62.8476486  46.5567932  72.5980377  65.5714798  17.0383244  85.5643311
  65.2877045  16.1312885  85.6783066  65.0093536  17.5410233  86.1538544
  10.5160913  13.4209175   0.2037389   9.7285194  13.9630671   0.1586225
  10.3721132  12.8518057   0.9597908  43.1409798  64.0390778  43.3518066
  44.0535774  64.2959137  43.4838371  42.9194260  64.3792801  42.4849663
   9.3490610   2.6525822  32.5914116   9.3915205   1.7023559  32.4841766
   9.8129253   3.0005229  31.8298321  52.9148331  19.2254925  60.6373138
  52.6513939  19.7592278  61.3869514  53.6721497  19.6828957  60.2719574
  52.4957008  62.9221191  64.5756912  52.1568031  63.8160706  64.6229019
  51.7472916  62.3969002  64.2923737  70.0132675  45.4935150  40.6512375
  70.1657562  45.6124802  39.7137794  70.2236252  44.5738869  40.8133087
  75.3456726  57.8216248  15.1413918  75.1644974  57.4747009  14.2678623
  75.7316971  57.0855217  15.6161242  26.0553989  70.2792435   1.7367369
  26.0400581  70.2753601   2.6938062  25.4920521  69.5473938   1.4851960
  85.4450912  42.8768311  85.3310394  85.8664246  43.6575737  85.6904144
  85.7345886  42.8466949  84.4191666  41.9899216  36.2506104  20.8988152
  42.3910370  35.6202087  20.3005428  42.6366158  36.9520264  20.9765167
   9.3657055  34.4331779  38.4509277   9.6918068  33.9939804  39.2364159
   8.4207134  34.4991760  38.5882797  13.0738745  65.5243759  16.4715004
  13.4723225  65.1945572  17.2769146  13.6406450  65.1977386  15.7727060
  29.3872089  32.5860443  77.6462784  29.7203770  32.4031105  76.7677765
  28.8975220  31.7991123  77.8853989  84.6526947  54.6453438  19.6167412
  84.0770035  53.9700394  19.2578983  84.0681610  55.3760529  19.8182812
  48.0808220  55.8275757  89.3262711  48.0016251  56.3066673  88.5013885
  49.0180817  55.8381500  89.5203552  75.2745132  20.7537117  60.1051331
  75.0461273  19.8357639  60.2515793  74.7285004  21.2381058  60.7243729
  15.5250883  50.9225121  79.1515579  16.4220562  50.9103088  79.4855194
  15.2694445  51.8443222  79.1853790  12.7323465  66.8190155  32.1908531
  12.5235424  67.5593719  32.7605057  13.6028986  66.5380402  32.4726715
  24.0347977  67.9755020  65.0557480  23.3297386  67.4132614  64.7348022
  24.6121788  67.3838120  65.5382080  60.5013237  44.5165977  49.9544373
  60.9147987  44.3848267  50.8076096  59.5907097  44.7283974  50.1597481
  56.0029526  15.9627724   7.2498550  56.1745644  16.3888302   6.4100604
  56.7851677  15.4366112   7.4157577  34.0442009  71.8460159  44.9953804
  34.5283928  71.1847610  44.5008888  33.5238800  71.3431549  45.6219788
  68.9207840  11.7888603  71.0871048  69.3640213  11.7004919  71.9308853
  69.4895325  12.3655500  70.5770264  51.7249832  68.5851517   7.9196658
  51.4364471  69.4061356   8.3183746  52.4199715  68.8440475   7.3145237
  31.3479881  43.5813980  16.6678467  31.1023388  44.4960823  16.5291119
  30.6016960  43.0804138  16.3387623  77.1602707   3.6790094  32.0137634
  77.3641815   4.3509102  31.3632221  77.2278976   4.1313839  32.8546028
  17.9964180  49.8187408  72.7343521  17.7306938  49.4360008  71.8982086
  18.4333305  49.1036911  73.1969986  68.3478622  39.9096565  64.0155563
  69.1961136  39.4698982  64.0731201  68.3856735  40.5916862  64.6861115
   3.2640986   5.5353332  48.0307770   2.6189220   5.0955434  47.4770927
   3.6851118   4.8265700  48.5172272  69.2804718  21.2387981  20.7086201
  69.2202530  20.9819279  21.6287403  69.0099640  22.1569195  20.6980629
  34.6485214  64.6589127  54.5050545  34.7129936  63.7045174  54.5398216
  33.7511406  64.8280563  54.2181206  34.9070473  50.0859451  52.6265564
  34.5311012  49.7964516  51.7952347  34.5616074  50.9699631  52.7507095
  74.0501785  56.8774261  49.8397026  73.8776550  57.7373276  49.4562416
  73.3267288  56.7381935  50.4508209  18.1804085  39.0754852  66.8408890
  18.9630947  38.9686012  67.3814545  18.2329960  39.9752426  66.5185394
   0.2753785  23.3530617  33.1293869  -0.6424611  23.5931644  33.2564850
   0.7665234  24.1206512  33.4223251   9.3009329  44.2839127   3.4062796
   9.3895073  44.7312660   2.5646975   9.4107237  43.3563080   3.1971695
  82.8252106  40.7528992  55.1415787  82.1923904  40.7872696  55.8589287
  83.5957642  40.3312225  55.5219383  83.4689789  20.2836742  81.0821075
  82.5507355  20.5241470  80.9586563  83.7387161  20.7625904  81.8657608
  18.3296642   3.0535455  40.5022583  19.1287003   2.9114289  39.9947395
  18.4134369   2.4633217  41.2511559  77.0558701  64.5121231  81.0027924
  76.3557587  64.6868515  80.3738632  77.8500290  64.8263626  80.5705795
   7.2879272  14.6831217  28.9304409   7.1676350  14.8165455  27.9902496
   7.2499156  13.7334890  29.0443859  46.9335213  31.1279945   6.4063315
  46.6368370  31.9815178   6.7220969  46.1356392  30.6019497   6.3525295
  74.0058365  69.4666367  15.4245329  74.6856384  69.0659943  14.8826971
  73.2162933  68.9614029  15.2306547  55.1359024  45.1659470  82.3308105
  54.9653320  44.2453041  82.1319199  54.4764290  45.6454659  81.8294220
  74.8175659  36.7263336  45.1596222  74.2241211  36.0030746  45.3619728
  75.0737534  37.0723038  46.0145531  27.5839520   3.9603930  26.0839825
  28.2219601   3.3782971  26.4967098  26.7496986   3.4984007  26.1665440
  55.8159714  35.5111961  53.9947891  55.2170219  35.4174309  53.2540474
  56.0556374  34.6133194  54.2241592   8.8544903  20.8316040  65.9698105
   9.4853621  20.2209187  65.5886307   8.0369940  20.6524944  65.5052109
   0.4129263  13.6909037  60.6293907   0.5039128  12.7384338  60.6019211
   0.4788675  13.9642925  59.7144356  85.2483673  11.4632473  18.8321953
  84.3921585  11.4072638  18.4079304  85.8735580  11.4868059  18.1077557
  71.0873260   3.4360297  88.2065048  70.4078903   2.7619035  88.2189484
  71.4899445   3.3543608  87.3419418  60.4078293  60.1825600  86.7282410
  60.1962624  60.3184433  85.8046570  61.3223190  60.4541321  86.8069382
  85.0201035  46.6303215  15.8476219  85.5430832  47.2498512  15.3387918
  85.3926468  45.7738152  15.6382484  34.7513809  62.0288239  40.5519562
  35.1939621  61.4566727  39.9250641  34.3088417  62.6815910  40.0094719
  84.9765854  71.3343430  69.4332352  85.4542236  72.0266190  69.8902435
  84.4774551  70.8936005  70.1208801  75.8239059  18.1997566  81.1953583
  76.7216263  18.0351410  80.9068680  75.8510742  18.0775490  82.1443329
  43.5035172  58.3289261   6.5732350  43.3360062  58.6403961   5.6837649
  42.7773819  58.6780815   7.0900035  77.9794922  69.8979187   2.7216427
  78.7004242  70.3702927   3.1379995  77.7786179  69.1848602   3.3278093
  67.9858093   6.0346456  13.3787889  68.0093384   5.4145432  12.6499882
  67.1173401   5.9184895  13.7641554  18.6459293   2.0039175  35.4362793
  19.2828712   1.7063745  34.7866592  18.3356380   2.8446281  35.0998917
  49.2836189  60.5893822  43.9299049  50.2053909  60.6851425  43.6903267
  48.9302177  59.9787025  43.2830620  12.6056690   2.3070774  58.1420059
  12.6519365   2.7278728  57.2835083  13.3191690   1.6690352  58.1347694
   1.4060007  63.6802521  17.9082680   0.5088247  63.9482613  18.1069603
   1.5365187  62.8821297  18.4203167   1.0317332   5.6340051  10.7390079
   0.8138505   5.6141376   9.8071470   0.2103624   5.4203196  11.1816368
   4.6080189  41.9992294   4.2837501   4.7703505  42.2928696   3.3872819
   3.6569273  41.9049644   4.3363886  14.5367641  39.8668251  66.6836777
  14.3371067  39.4828339  67.5374451  13.7632523  40.3880692  66.4686966
  53.6436424  24.9056568  79.1313095  54.3781052  24.2993183  79.0356522
  53.0890579  24.7319889  78.3707199  30.5483437  33.5270119  19.5834255
  30.9978256  33.7642784  18.7723122  30.5490780  34.3316612  20.1018581
   6.3972850  22.9927635  35.6442451   6.3156199  22.5477867  34.8007088
   6.3789282  22.2866840  36.2902718  79.2333679  45.3933296  60.2761307
  78.9199524  46.2711143  60.4940720  78.6615448  45.1045685  59.5648880
  25.1142921  48.6248550  16.1565762  25.2132702  47.6984596  15.9369707
  25.9203281  48.8480988  16.6220856  69.9364395  41.1309090  13.3310556
  69.6619568  41.1537285  12.4143372  70.8573685  40.8719101  13.2989578
  39.2953568  54.6644287  66.5864944  39.4519920  55.5975533  66.4416733
  39.5827713  54.5101509  67.4863968  69.8797150  22.3419075   9.0084276
  70.4150467  21.6546402   9.4050674  69.0348282  21.9228859   8.8446770
  62.2227211  62.3258438  18.9658775  62.0210037  63.2594490  19.0285015
  61.6348305  61.9989357  18.2848911  33.6741943  10.0206003  31.3049259
  33.3682442  10.0308990  32.2118568  32.9484406  10.3916578  30.8030968
   1.7067984   3.4544642  45.5577965   2.1836042   3.5311215  44.7313538
   0.8589849   3.0844584  45.3117485  57.6683846  67.6239548  54.3568382
  57.4747047  68.3835754  54.9061165  58.1339302  67.0214233  54.9368782
  28.4154892  40.7428169  76.8762054  28.3195362  40.1796761  76.1081543
  29.1216240  41.3459740  76.6442413  68.9426880  17.0764198  28.9609909
  68.1843872  16.7866268  28.4538116  69.0009460  16.4510059  29.6832752
  81.1212692  21.5285454  59.0092773  81.8816528  21.6431580  58.4392662
  81.0661469  22.3470249  59.5025139  49.3433571  36.9349861  18.0606194
  49.8007011  36.8368454  17.2254944  49.3401527  36.0548172  18.4368210
  14.7492828  54.4617462  85.6634064  14.5496159  53.8161850  86.3413620
  14.1493130  55.1866570  85.8388214  51.1508179  54.5431557   3.8087597
  51.1656075  54.8054161   4.7292128  51.3361015  55.3492813   3.3270261
  81.6458130  64.4166260  68.0496979  82.0806274  65.0806122  68.5847626
  82.3009338  63.7266159  67.9451141  34.1515884  41.1677399  19.8513775
  34.4271774  41.1232185  18.9357891  34.7739372  40.6084824  20.3162918
  82.7589874   2.8077960  61.2373924  82.0176239   2.5806205  61.7986450
  82.4304810   3.5138354  60.6807709  55.5721207  39.9031563  86.8873672
  55.1758308  40.5814476  87.4342728  56.2598839  40.3585472  86.4017410
  14.8041964   9.2637520  13.9675522  15.3233061   8.4923439  14.1948986
  13.9079428   9.0285969  14.2076845  44.8369064  27.9949818  19.8294907
  44.9982491  27.4142666  20.5731106  43.9796944  27.7273235  19.4981556
  81.5761566  13.4162111  50.1454010  80.7978363  13.7540083  50.5885124
  81.4739075  13.6954355  49.2355576  50.3254051  35.1223106  71.3823090
  50.3416939  35.0932465  72.3389282  49.5061226  35.5695381  71.1701889
   1.7691578  40.0292168  33.5764427   1.9883296  39.4645882  32.8352318
   0.8977295  40.3674469  33.3704185  29.1750164  29.4267292  75.9603577
  29.2936268  29.7345772  76.8589096  29.6016922  30.0923843  75.4208298
  51.7260704  52.4353180   8.5297260  50.7710991  52.4746552   8.5818281
  51.9020615  51.9358177   7.7323794  30.4819679  51.9628334  58.5892906
  29.6033878  52.3237953  58.4708099  30.8042793  52.3752556  59.3907013
  83.4321899  18.3479233  57.6298256  84.3528671  18.5957966  57.7143936
  83.0822678  18.4197655  58.5178719   8.2308702  10.7636766  49.7980156
   8.6745615  11.6085968  49.8720436   7.3120666  10.9586678  49.9824333
  37.8631706  54.3264923  78.6594772  37.9783249  53.9357986  79.5256958
  36.9312363  54.2180748  78.4697952  60.3836174  58.7468147  28.5493889
  60.0751305  59.1626358  27.7443027  59.6991119  58.9323235  29.1922512
  38.1085281  14.7742910  15.1443033  37.9451942  15.6508942  15.4923286
  38.3861847  14.2627869  15.9042387  15.2303820  29.7461777  14.5702515
  14.5997543  30.3497524  14.1775217  14.7045345  29.1924763  15.1474276
  79.3718796  53.1686478  79.1139908  78.9402084  52.8058395  78.3405151
  79.1362762  54.0963745  79.1067200  86.0559998   9.7898045  36.8320236
  85.3494339  10.3101330  37.2144585  86.1623383   9.0521297  37.4326553
  17.1141529  15.1804552  21.5850105  16.9230690  15.5238657  20.7122059
  16.3275185  15.3724976  22.0954590  60.4830933  33.1409035  42.3215027
  61.3825378  33.4672661  42.3482742  59.9628067  33.8950577  42.0443954
  36.7274590  54.7424431  46.4184723  36.3691216  53.8856506  46.6502724
  37.1242142  55.0632019  47.2283707  42.1171494  64.4341354  21.8371468
  41.5595284  64.2789688  21.0747757  42.0080948  65.3657532  22.0280190
   8.4654970  43.8452682  61.1013412   7.6026268  43.6758919  60.7231903
   8.8803015  42.9838219  61.1469536  60.4157219  36.8442116  57.3898964
  59.8518257  36.8095398  58.1625862  61.2908783  37.0120850  57.7393990
  79.9672394  46.0116730  30.7321873  79.4557724  45.4867897  30.1164455
  79.5242310  46.8600121  30.7493458  14.1362553  32.4686012  11.9961357
  13.6243315  31.6628895  12.0667992  14.9653568  32.1921272  11.6057739
  22.2526894  43.9611473  86.7525940  22.7949276  43.5459137  86.0819321
  21.3628426  43.9163055  86.4027481  70.1215134  12.5686884  84.5112457
  69.8678131  11.6733198  84.2872391  70.1552887  13.0254574  83.6707382
  12.9765739   7.1294575  77.3942490  12.6348495   7.8717537  77.8927002
  13.3795328   7.5250926  76.6213837  47.3025551  50.2758865  86.3117599
  47.6788750  50.9827271  86.8361588  47.2844543  50.6228790  85.4198532
  53.8336182   5.6315212  44.5882835  54.7432594   5.9196091  44.5121765
  53.6968613   5.0666113  43.8277550  84.1532288  52.2953873  34.5470734
  83.9772644  52.1894798  33.6121635  83.6423950  51.6032372  34.9668465
  10.8259706  42.4806023   5.2172956  11.7446308  42.6170540   4.9856148
  10.4086390  43.3255768   5.0497108   5.5518579  22.0048294  61.4423180
   6.2171254  21.9407558  60.7570839   4.7567048  21.6585445  61.0372887
  62.8862648  16.5565243  52.8713875  63.5192223  16.8898449  52.2353897
  62.8321838  17.2420006  53.5372925  28.1218338   0.5994416  10.2656622
  28.9733810   0.2596701  10.5407152  27.5391464  -0.1592418  10.2989159
  79.1721954  28.7922249  63.6684456  79.0243835  29.6774368  63.3356056
  79.5809631  28.3270473  62.9385452  24.8179665  14.2459660  18.0910358
  25.5884686  13.8531456  17.6808548  25.0795269  14.3936052  18.9998932
  85.0173187  49.3210640   0.5265060  84.2532959  49.2809830   1.1017423
  85.6679688  49.8139305   1.0264796  65.7319489  18.5391235  34.4790573
  64.9081497  18.0532169  34.5175285  66.4098282  17.8639030  34.5071678
  61.3339119  13.4174414  61.8366165  60.9526596  12.5596275  62.0237885
  61.9156494  13.5877914  62.5774231  18.6373672   8.7302446   4.9431925
  18.7205009   8.2273560   4.1329927  18.5165939   8.0687103   5.6243811
  19.5866718  64.7205124  14.3958397  19.5963745  64.3198242  13.5265961
  20.5077248  64.8948135  14.5895233  34.3448181  60.9800453  50.1211205
  34.3288231  61.4003334  49.2612762  35.2569618  61.0470047  50.4035110
  57.6515312  22.0128860  73.7651978  57.1543427  22.1066895  74.5777512
  58.5005531  22.4113483  73.9565582  63.5643234  11.4920597  27.9222393
  62.6649780  11.2725372  27.6788883  63.6361961  11.2258520  28.8388634
  32.8050499  71.4186401   4.2408419  33.3025322  70.6216736   4.4241042
  33.4027405  71.9610748   3.7262878  30.8136387  67.6521225   5.1138825
  30.8349018  67.4900284   6.0570192  31.0553551  68.5739059   5.0237679
  79.5821381  17.3301773  36.6603394  80.4729614  17.2848816  36.3130569
  79.4451828  16.4808350  37.0799751   8.1536312  30.1539478  12.0405140
   7.4609051  30.8108711  11.9711304   8.8666096  30.5001049  11.5037928
  75.8644409  64.2321548  89.0341568  76.2010880  64.8026123  88.3431549
  75.6698761  64.8246841  89.7603073  30.6333027  63.3065453  77.6427765
  29.7047558  63.2914581  77.8747330  30.6410580  63.3089828  76.6856079
  59.5294876  65.4877396  73.6053314  60.2961845  64.9154358  73.5757294
  59.3091888  65.6407318  72.6864777  44.8333473  52.3169594  54.8580666
  45.7730675  52.3571320  55.0356636  44.5900307  53.2191620  54.6505585
  28.6498642   3.1397369  62.7874031  27.7752037   2.9931762  63.1475716
  28.7416153   2.4761729  62.1036682  28.4410419  42.5873222  84.4756699
  28.2796478  41.6468964  84.5517197  28.6634712  42.8647957  85.3643570
  -0.0697144  31.3039379  72.2854309   0.4899313  30.6073399  71.9422379
   0.3126024  31.5213509  73.1356049  57.2282600  28.6474380  34.7142487
  57.3715858  27.8310699  34.2354660  57.9517746  29.2132854  34.4448509
  22.4809875  22.5479412  83.1689072  23.3125706  22.7998886  83.5704269
  22.3369617  23.2024956  82.4854965  52.9472694  47.7351418  73.6418381
  53.7429428  47.4567337  73.1883774  52.9267464  48.6853294  73.5280228
  55.9619560  28.6226044  61.5358353  55.4480324  29.4196415  61.6656418
  56.7195511  28.7297821  62.1109810  79.1857605  13.0526390  69.6519012
  78.8029251  12.1852484  69.7834396  80.1286545  12.9144316  69.7418365
  86.6279984  26.2256680  45.7607384  86.6991043  27.0338554  45.2527924
  86.4226074  26.5181599  46.6487083  56.6282692  59.4893036   4.6168861
  56.3728828  60.3473167   4.2780366  56.0342903  59.3354454   5.3515625
  38.1988220   8.9619370  21.5978279  38.8441811   9.6375589  21.3897896
  38.4801598   8.1985731  21.0934906   8.3255720  17.0444775  86.3192978
   7.9051538  16.4177151  85.7305298   8.4019413  16.5774403  87.1513290
   3.1191027  57.7470589  79.2049637   3.4395225  58.3390541  79.8854752
   2.3326828  57.3523254  79.5817413  55.3450890  33.2389565  64.0636749
  55.9108047  33.7051201  63.4481277  54.6914482  33.8870697  64.3262253
  59.0348969  61.9568520  40.1664619  58.5599136  62.5292854  39.5640144
  59.9559975  62.0781136  39.9360161  58.6295280   0.6409605  46.7527885
  57.9660530   1.3181716  46.8847656  58.5529022   0.4076503  45.8276253
  59.4978065   0.7204971  84.7716293  59.6793404   0.0806206  85.4599838
  60.2706795   1.2850780  84.7595673  76.6980896  28.8104858  31.5481853
  77.4122314  29.0620518  30.9625721  76.2910767  29.6395912  31.7994957
  82.2999573   3.7134342  46.0410919  81.9781799   4.4157281  45.4758720
  81.5488892   3.4829559  46.5879097  80.4835510   4.9188404  63.1734772
  80.3543167   4.0889964  63.6327057  79.8041458   4.9278154  62.4992676
  74.9719162  21.1786289  78.2802887  74.2937698  20.7748413  78.8218613
  74.4896851  21.7307320  77.6647644  12.4745865  53.6421623  76.3863144
  11.8585854  53.2752075  77.0204468  13.2587223  53.1000519  76.4727936
  47.6678314  17.5121689  24.8554668  48.0242119  18.3038960  25.2584457
  47.5358887  17.7492161  23.9375172  66.8849030  61.3482666  40.5456734
  67.4050446  60.6105728  40.2270889  67.4900436  61.8497658  41.0920525
  12.4295235  59.3792686  87.8589020  11.6486044  59.4524689  88.4075699
  12.8869543  58.6085129  88.1949463  41.7673264  14.5193977  23.4278774
  41.6976891  14.4845467  22.4738503  41.0263977  15.0595980  23.7025356
  62.1073608  64.6795807  40.6770706  62.1307869  65.0032272  39.7765541
  63.0034599  64.3918381  40.8515587  82.4502335  15.7161598  82.1452789
  82.2899933  15.7541800  83.0882034  81.5766678  15.7027035  81.7542267
  34.7555580  68.7743225  18.3530674  35.3553352  68.1056213  18.6837406
  34.3128433  68.3551712  17.6151314   2.4687302   2.3422642  61.2981606
   2.7635357   2.2208221  62.2006989   1.5891008   2.7105289  61.3810196
  29.2888851  26.4369431  83.7282562  29.5794697  27.0570450  83.0594788
  29.1559906  25.6168232  83.2528915  82.8767929  28.2880878  22.3329697
  82.1604080  28.8944664  22.5209293  82.4414749  27.4781189  22.0671139
  41.0221863  70.0982056  22.9120255  41.0225754  69.2907944  23.4261494
  41.9212875  70.1800690  22.5939827  28.6610107   7.0343161  17.0745716
  28.9334602   7.8557091  16.6655293  27.7758923   6.8835707  16.7427979
  56.8590546   6.3079162   1.6672585  56.9667816   7.1788054   1.2849256
  57.2210083   5.7119846   1.0114503  10.8124151  69.6321793  74.9015961
  10.7398453  70.0543900  74.0456161  11.3871031  70.2087631  75.4051056
  68.4253769   8.7271309  28.4759007  67.5119400   8.9915361  28.5852089
  68.5677032   8.0700569  29.1572456  71.1624146  19.1236820  70.2844849
  70.6730194  18.4942398  70.8141327  71.9839859  18.6770878  70.0800247
  26.2978477  67.7188187  57.9660721  26.4406738  66.8624191  57.5630531
  25.3536530  67.8608246  57.8985519  32.0493736  44.4491158  80.0303268
  32.2191238  43.9612732  79.2244568  31.1936245  44.1364288  80.3238449
  65.8439484  66.4733047  77.0492630  65.1410751  67.0179672  76.6949463
  65.4072266  65.6665497  77.3225021  83.2068710  42.3201561  43.0516624
  83.1853409  41.9267235  43.9240036  82.6656570  41.7415314  42.5145302
  37.3234406  54.3208733  14.9260845  37.3980293  54.4928017  15.8647575
  36.8140984  53.5123558  14.8704090  44.1052399  22.4901791  24.4879169
  44.4845772  22.4664764  23.6094112  44.7639580  22.9349308  25.0213184
  31.9940758  33.0952263  27.8240509  32.7726784  33.6317139  27.9730015
  32.1325607  32.3170242  28.3639164  55.6830215  48.5913429  36.3617935
  55.2270470  49.2218361  35.8043022  55.4271889  47.7364578  36.0154419
  85.4362259  68.8562622  34.4850349  86.2946320  68.5904388  34.8147354
  84.8114548  68.4135818  35.0594254   2.8213215   3.5623188  43.0278282
   3.5074475   4.0500250  42.5721893   2.7438505   2.7436039  42.5379944
  64.9211197  37.1349792  66.6974030  65.3042297  37.9816322  66.9268341
  64.7273941  36.7236061  67.5397034  52.6935272  55.7081413  84.3568039
  53.0251961  56.5504913  84.6677322  52.9824219  55.6585732  83.4455872
  25.2587681  47.6047287  19.7454205  25.2256699  46.7188950  19.3842621
  24.4793530  47.6675720  20.2975044  22.1039486  44.1234245  24.1210003
  22.6040726  44.2136612  24.9321518  22.7679062  44.0958405  23.4320641
  42.3665123   0.4298778  35.1527176  42.3365784   1.3840116  35.2231750
  41.8066483   0.1194807  35.8643608  36.2354279   3.4696488  16.5858746
  35.6383743   4.0020852  17.1114883  36.3082962   3.9403894  15.7556190
  60.6917610  41.3839722  19.2927876  60.1487274  41.3384132  20.0797272
  60.0782928  41.6005669  18.5906658  77.4600449  12.7485638  40.6855164
  78.1374435  12.7988777  40.0111046  77.7060242  13.4193048  41.3225670
  35.8486710   9.9744034  13.8450737  35.3039017   9.3098202  14.2667255
  35.6756821   9.8677158  12.9096994  78.4368210  36.9179535  75.2544479
  78.3309555  37.8309402  75.5218048  79.1772385  36.6011887  75.7718124
  69.4534302  19.8689957  46.3107185  70.3038940  20.2834530  46.4562035
  69.1796188  19.5729675  47.1788330  50.4051552  20.0594540  13.5286274
  50.0294800  19.2296886  13.2343721  51.2657661  20.0941944  13.1110420
  66.5127716  15.8768177  28.2362766  65.9045944  15.5249014  28.8862820
  65.9814224  16.4740372  27.7097511  63.4006653  46.8103180  14.9841566
  63.6560783  46.7806969  15.9061756  63.3558540  47.7439613  14.7779140
  11.9844894  54.2940254  87.1769562  11.4968500  53.9413223  86.4326172
  12.8055143  53.8019485  87.1802521  72.5222855  62.4136581  21.0948849
  73.0245590  63.1371040  21.4698162  72.8405075  62.3422050  20.1949654
  80.6958923  15.4958105  31.3595104  81.1664581  14.7304440  31.0293427
  80.4224243  15.2464151  32.2422600  53.0076027  42.4664307  15.6974382
  52.5176392  42.5080872  14.8761978  53.4767609  43.2997322  15.7389660
  52.8458366  36.4499664  19.9964161  52.2702599  36.5998154  19.2464218
  53.0424652  37.3267212  20.3263721  58.5118484  34.2481613  53.8147964
  59.0576706  34.2867432  53.0294151  58.5934982  35.1178665  54.2061729
  76.4331512  52.0413589   8.2020168  76.4951782  52.4267159   7.3280129
  76.4747696  52.7897987   8.7972775  60.5097275  59.0040665  42.5582314
  59.6641006  59.0022583  42.1097374  60.7607040  58.0812950  42.5999184
  78.2831421  31.6854420  16.1614208  78.2339935  32.5807152  15.8263092
  77.3986664  31.3378925  16.0467854  68.4010086  45.9261971  32.1346626
  68.0049667  45.5223083  32.9068413  68.0361786  45.4390717  31.3958530
  23.9209652  65.2909470   4.9290118  24.6018944  65.4815826   4.2838573
  23.4021797  66.0941010   4.9741402  73.2309647  21.9091930   6.6468520
  72.9979172  22.8149166   6.4429250  74.0760574  21.7767944   6.2172799
  48.5534897  35.0252762  15.5232000  49.4957619  35.1233253  15.6601095
  48.3638649  35.5730324  14.7614660  54.4935417  22.1855392  33.8340530
  53.5756950  21.9917316  33.6437149  54.7452545  22.8279648  33.1706047
  34.5208855  46.6084251   2.4516637  33.9738884  47.2008972   1.9359114
  33.9436455  46.2944069   3.1476643  57.4052467  41.8509331  55.4449921
  57.8251038  41.0211830  55.2181168  57.6422272  41.9967270  56.3608589
  62.4509201   5.9459553  79.0522232  62.0641670   5.7193074  78.2064819
  63.2863884   6.3573895  78.8309937  56.2181778  41.9584694  -0.0454980
  56.5807304  41.4898987   0.7063186  56.0562401  42.8440857   0.2796128
  76.4918365   6.8453889  81.4884338  76.8521805   7.7032137  81.7132111
  75.5951614   6.8672023  81.8226929  36.9481583  43.0723305  66.9191055
  36.6153679  43.8313675  67.3980103  37.4600945  43.4469872  66.2023163
  27.2233467  36.0749092  19.8259315  26.9547806  35.1859283  20.0579281
  26.8204021  36.2316666  18.9719448  22.9912949  27.8286381  86.3826904
  22.7270985  28.6150723  85.9052429  23.0621967  27.1521015  85.7092590
  77.0543671  49.4525414  54.8986397  77.1063919  48.5168610  55.0936508
  77.9574127  49.7087212  54.7112808  14.7090435   6.9084992  86.8829575
  15.6298771   6.6641707  86.9756927  14.6343384   7.7417927  87.3480148
  25.4303265  53.3318176  54.6746597  25.1113300  52.9412041  53.8610916
  24.6595306  53.3686218  55.2410088  60.9431000  22.8290157  12.6903601
  60.0312920  22.5854187  12.8500357  61.2701950  22.1551685  12.0943966
  58.2328453  52.9330139  13.8442574  59.1177788  53.2495575  13.6627922
  58.0709419  52.2742424  13.1689501  82.5365753  33.7894096  24.6340141
  83.1520844  33.0564270  24.6235046  83.0558014  34.5422592  24.3514328
  23.0090942  67.9545212  42.9667664  22.1595058  67.8755722  43.4005852
  22.9184990  68.7207870  42.4003296  51.3404922  44.8801575   9.8589220
  50.7013397  45.0274010   9.1617613  52.1763802  45.1498070   9.4783812
  72.5316544  49.0978584  73.5715103  73.3761826  49.1593704  73.1251602
  72.7482758  48.7948151  74.4532471   9.8225241  49.4659882  40.9090424
  10.2702827  50.1298065  41.4335327  10.4607077  48.7577209  40.8235245
  24.4362030  35.7383728  83.6178131  24.8460903  34.8752480  83.6747208
  25.0411587  36.3215065  84.0763092  27.6236267   5.0482631  85.1164093
  28.5741901   4.9593434  85.1853790  27.2951660   4.7810678  85.9748688
  53.7668152  61.5339813  10.2415915  54.6090393  61.8637009   9.9282637
  53.3646126  62.2833786  10.6807652  45.0038795   2.1224475  74.7648087
  45.8220444   2.6184156  74.7940063  44.8491058   1.9703950  73.8325195
  18.2439919  52.5886612  31.3230667  19.0814266  52.9138107  31.6535397
  18.3994942  51.6604385  31.1485481  52.6372337  65.4618683   4.3848076
  52.9256783  64.6225586   4.7434096  52.2400017  65.9160004   5.1279101
  55.9635239  71.2271423  66.9064407  55.9824295  70.2765503  66.7957611
  55.0340233  71.4535294  66.8746872  75.7703094  58.7652283  11.3331480
  76.5048523  58.3431625  11.7787180  76.1807175  59.3634987  10.7087498
   0.6664675  56.4238701  55.0029640  -0.0267038  55.7638664  55.0149269
   0.5444025  56.9141655  55.8159485  80.7144318  41.3839760  81.6885376
  80.4181442  40.4791222  81.7869720  81.5862503  41.3948441  82.0835648
  31.0628395  58.1465111  50.9756546  30.8347244  57.5751495  51.7089653
  31.9793262  57.9426651  50.7892876  79.5162354  11.0994501   5.9988494
  80.0243378  11.2445011   6.7969904  78.7283783  10.6441793   6.2958980
  21.2433987   4.6451373   8.3701134  21.9805946   4.8327312   8.9511328
  21.6107674   4.7096729   7.4885764  68.7306213  23.8402386  21.7554951
  69.5336533  24.3574409  21.6933060  68.3694534  24.0609627  22.6140232
  44.8607674  63.5501480  48.0995445  45.5431824  63.8517342  47.4998932
  45.3357697  63.2726402  48.8828659  55.5627480  53.3700066  74.6380234
  56.1941223  52.9079895  74.0865402  55.8518333  53.1927986  75.5331573
  33.9442787  70.8164062  47.6130066  33.0621643  70.4791183  47.4569778
  34.5247726  70.1203232  47.3052292  17.8082371  63.8792343  29.9094410
  18.0441017  63.3331757  30.6593876  18.4365139  63.6364212  29.2293396
  30.6968288  69.5992813  18.0160751  31.3901272  69.3344421  18.6205845
  29.8850498  69.3572998  18.4618244  15.6373711  21.0735855  50.4420242
  14.7519703  21.4373150  50.4418945  15.6164513  20.3925953  51.1143684
  32.0450439  63.0528564  75.0268402  32.8834076  62.9035912  75.4639816
  32.2094536  63.7900085  74.4387817  80.7734680  62.3753014   9.1944199
  80.8457794  61.5175056   8.7758656  81.6122513  62.8004494   9.0157681
  78.4626389   5.7352490  65.1696243  78.5840073   4.8204627  65.4239273
  78.0902023   5.6916323  64.2889328  72.2167511  53.1740494  24.8771935
  72.4819031  53.3937225  25.7703171  71.5667343  52.4796104  24.9842777
  47.4884834  24.8239899  81.2386017  46.6163445  25.1539230  81.0223846
  47.6536903  24.1403370  80.5893250  72.9376373   9.8807516  15.3005800
  71.9861298   9.9309292  15.2092352  73.1403732  10.4735374  16.0242767
  67.1545486  47.2873840  26.3248100  67.7431564  47.8151093  25.7851105
  67.2579498  47.6410942  27.2082310  85.4299240  65.5422821  13.2177773
  85.6698074  65.6583328  14.1371355  84.7653351  66.2121964  13.0572472
  26.4365349  58.0408058  79.8552322  27.1741409  58.2700844  80.4205627
  26.2072849  57.1473923  80.1111450  28.7867146  58.6589699  81.7395935
  28.8500443  58.3671875  82.6490326  29.2052498  57.9617538  81.2346649
  49.5090599  68.4277039  81.3685760  50.2350693  67.8213882  81.5152969
  49.8274422  69.2672958  81.7001572  28.1610909  17.1023445  24.0441704
  27.9170895  17.9168892  24.4837284  27.3373013  16.6236038  23.9524612
  66.4336090  39.8834839  80.0505142  65.7881622  40.1559982  80.7027130
  65.9122620  39.6316643  79.2882690  10.4332981  33.1454086  71.6388168
   9.5533447  33.3609352  71.9477921  10.9930458  33.8227119  72.0185165
  56.3306351  28.1706142  77.8202438  55.8416634  28.5412006  77.0855331
  55.9200211  28.5502987  78.5970764  36.9151344   0.3359029  39.5616302
  36.8557358   1.1448956  39.0534630  37.8139839   0.3251090  39.8905373
  44.8445129  46.1600800  20.0971031  45.6818619  45.6978188  20.1344604
  44.4008904  45.9181480  20.9100609  42.2964134   1.3304920  80.5370255
  42.5334740   0.9892547  81.3993454  42.8376122   2.1129973  80.4320374
  71.4785690  70.5771179  83.3114014  70.8638611  69.9375839  83.6710663
  72.1742020  70.6352997  83.9663467  33.0545959   0.4148750  60.0821342
  32.2214165   0.1736403  59.6773491  32.8872948   0.3639401  61.0232239
   3.0638547  59.7803001  51.9933701   2.1341121  59.6923714  52.2033195
   3.1889892  60.7181320  51.8483009  14.9150763  63.1148453  16.2559052
  15.5433187  63.4894180  16.8733501  15.4541702  62.6347160  15.6273479
  17.4030228  57.3539391  37.8029060  17.9208221  58.1106033  38.0778122
  17.7394161  57.1366158  36.9335136  77.5795975  18.2548752  46.1234207
  77.6105652  18.1427784  47.0735283  78.4749603  18.4908543  45.8807755
  24.1339931  35.4218063  14.7607279  24.4668903  36.0831070  14.1540213
  24.8964386  34.8814926  14.9680195  59.0271797  17.3686409  74.7601624
  58.3227386  17.8564682  74.3335266  58.7918587  16.4493122  74.6348953
  85.6991501  59.0267715   9.9161358  85.7066498  59.3257523  10.8254128
  86.4575424  58.4466820   9.8484907  61.4657784  27.6848259  53.9569092
  61.6646843  26.8164349  53.6068153  62.2046509  27.8866272  54.5309944
  44.6559219   8.4821949  79.0609207  44.2005348   9.3230448  79.0181808
  44.0648575   7.9145789  79.5555801  28.1575527  33.9392700   2.5213985
  28.4387131  34.1143341   3.4194703  27.2399273  34.2108536   2.5004599
  34.8042488  54.7916222  61.2373505  35.2441711  55.1206970  60.4535065
  35.5045891  54.3976440  61.7574883  33.6798439  52.9435158  52.9915619
  32.8058319  53.1394844  52.6540298  33.5225105  52.5508652  53.8502235
  68.6441345  38.3878670  57.2481804  67.8375168  38.3493690  57.7620964
  69.1249542  37.5986710  57.4976234  62.4842377   4.0873861  25.1229515
  61.5818481   3.8554196  25.3423100  62.9383011   4.1059952  25.9653969
  68.7323761  47.6455383   3.6752341  68.0964890  48.2862320   3.9936514
  68.5695801  47.5942230   2.7333763  53.2670364  60.6325340  24.8990860
  52.3235893  60.4716110  24.8836212  53.3833847  61.4253883  24.3755665
   4.7617674  44.4005051  72.2207260   4.0070457  43.8891029  72.5124359
   4.7215333  45.2040138  72.7393646  72.2402344  19.0360222  74.4052505
  71.3172913  19.2897644  74.4097595  72.5579834  19.2727642  75.2765808
  27.2388210  67.5837555  54.1391754  28.1836166  67.5331192  54.2841873
  27.0286369  66.7883759  53.6498642  56.6768723  54.9446068  31.5726109
  57.1538696  55.2152176  32.3571320  56.9598541  55.5598335  30.8961105
  12.3329248  21.4756489  84.7783432  11.9151554  21.8021011  85.5752945
  11.8784437  20.6548615  84.5886459  35.7432137  64.2735291  88.3000031
  36.6621017  64.1999512  88.5578079  35.2579765  64.2125015  89.1228333
  80.3567047  50.1428261   9.4891195  80.9833221  50.3876457  10.1700325
  80.8850861  49.6990013   8.8257475  81.5733414   2.2378080  72.1211395
  82.4544525   2.6052599  72.1908798  81.5527267   1.5391918  72.7751541
  60.4779282   4.0122581   9.4061279  59.9121590   3.4737046   9.9593887
  61.0105667   4.5130863  10.0239439   3.7958612  41.6805267  29.1015816
   4.2707186  41.9162750  28.3046074   4.3883371  41.9217834  29.8136215
  80.2778091  32.4739227  81.9628372  80.9168701  33.1621552  82.1476746
  79.8342667  32.7664871  81.1666565  55.0779343  16.3377209  89.0841904
  55.2696686  17.2747459  89.1223602  55.2167053  16.1020241  88.1669006
  14.6398277  57.0049973  77.5210800  14.5042267  56.4783516  76.7333679
  15.1869135  57.7345810  77.2301636  71.8804932  39.8516502  27.0208015
  72.0851669  40.7761154  26.8804207  72.3156052  39.6324387  27.8447266
  56.1347389  44.2311211  64.8147736  55.4155998  44.7134094  64.4067688
  56.0905075  44.4725151  65.7399826  14.4054718  10.5074425  76.9635468
  13.5217371  10.7539682  76.6906509  14.9321318  11.2910547  76.8060226
  67.0591660  14.8423147  18.1237812  67.5229340  15.6794128  18.1442127
  66.8807449  14.6448441  19.0432396  83.1106262  38.6933517  15.6215153
  83.6402359  38.4782562  14.8537369  83.6434326  39.3189850  16.1123657
   9.8429995  20.1951618  31.8743095  10.5538559  20.7159634  32.2480507
   9.6147137  19.5717278  32.5638351  67.4813614  69.7205429   9.7241335
  68.2008667  69.0892639   9.7188797  66.9424362  69.4757309   8.9718990
   9.2465086  18.8043118  46.8935814   9.1317120  19.7225513  46.6488609
   8.5132389  18.6193562  47.4803886  65.7373657  30.2960243  55.8862495
  66.4571762  29.6949596  56.0781441  65.2104187  30.3015099  56.6853294
  39.1214676   7.9754429  87.2864075  39.0793953   7.8577175  86.3374100
  38.3140488   8.4402323  87.5061264  48.8781090  56.5692863  54.8561211
  49.6791840  56.0478516  54.9072800  48.3622932  56.1490021  54.1679878
  71.5383530  55.9211388  12.4167080  70.6767426  56.0422745  12.0177240
  71.7809219  55.0222244  12.1945705  52.7328186  66.2224579  83.4561920
  52.3637619  66.1108551  82.5800781  52.0861092  65.8269958  84.0406647
  46.0796585  39.6143074  78.7271042  46.2492027  38.9686470  79.4131165
  45.1678925  39.8728333  78.8615723  31.0797329  66.6417618  25.7571259
  30.6298733  65.8033142  25.6529160  32.0030594  66.4383774  25.6076794
  33.2125053   6.2663541  72.9988327  33.0926857   7.1985455  72.8174667
  34.1127701   6.1979904  73.3167725  82.6328049  38.0557175  82.2060013
  83.2821579  38.3105049  81.5505142  82.2573547  38.8836555  82.5056381
  54.7754402  64.9938889  54.9237366  55.2891464  64.2468796  54.6166267
  53.8676529  64.6929550  54.8837509  32.8349762  42.4583282   8.9995403
  33.4055023  41.6940575   9.0808830  32.0665131  42.2407990   9.5271549
  49.1390114  35.9722710  84.9853058  48.5204849  36.1025162  84.2664871
  49.5794525  36.8170128  85.0783234  77.9830856  33.2497292   3.1500213
  77.3973465  33.4365692   3.8836637  77.5834732  32.4997520   2.7094786
  51.2677269  66.0967484  21.3808403  52.0306587  65.5965958  21.0909958
  50.7463226  65.4694977  21.8817635  67.6983337  69.4968033  12.5430737
  66.9758759  69.0975113  13.0276871  67.4838181  69.3425064  11.6230688
  57.9283676  56.3349953  60.5627708  57.4021683  56.9786263  60.0883446
  57.7004471  55.4965019  60.1612587   3.0667629  45.0329742  49.5531464
   3.3836732  45.9277153  49.6765747   2.4318919  44.9043922  50.2578735
  77.1475143  37.9691696  62.2268295  76.4785614  37.4996262  62.7250862
  77.5324707  38.5779533  62.8572426  16.5507908  65.3530426  47.8931618
  16.1645546  64.9484024  48.6698990  16.4956875  64.6765671  47.2181969
  83.2445374  43.5299377   3.0403585  83.6750107  44.3812332   2.9615550
  82.3752823  43.6652679   2.6631150  76.8168488  67.0747375  52.5857506
  77.7358246  66.9886017  52.8393059  76.4068298  67.5288467  53.3218880
  70.9384766  38.3024979   2.2295704  71.6221771  38.4178925   1.5696719
  70.5619965  39.1756439   2.3396125  52.3505821  37.5124054  17.3656292
  52.2254524  37.9123001  16.5050125  51.9282188  38.1179886  17.9748192
  43.3519020   2.6734145  47.2593880  43.0321159   3.3621318  46.6766052
  42.5661354   2.3462090  47.6972656  43.5368996  63.8955040  87.7651978
  43.6911697  64.8136444  87.9875870  43.5227814  63.8799667  86.8082275
  44.3226814  29.7940159   6.4719234  44.1744118  29.5888767   7.3950515
  43.4630661  30.0584774   6.1442728   1.9975864  49.7978172   9.3937273
   1.7609152  49.7513237   8.4674139   2.4877753  48.9919167   9.5564327
  70.0385666  10.1794739  31.6667595  69.5762405  10.8181858  31.1240482
  70.8945084  10.5766602  31.8274784  12.9807177  39.4901085  75.5646973
  13.4904270  40.1816940  75.1426239  12.9664021  38.7785339  74.9246292
  28.6298904  66.7685242  45.5003395  28.6695690  67.5767212  46.0116806
  28.8242664  67.0424194  44.6039963  67.3768997   2.2402780  39.5297661
  66.5298004   2.5698378  39.2296867  67.1575470   1.5712973  40.1782875
  20.9460583  24.8960876  19.7486954  21.5124531  25.3425694  19.1193447
  20.1669846  24.6606979  19.2448406  33.2982483  18.6837234  25.7012768
  33.1229286  19.2964382  24.9870796  32.6860504  18.9388714  26.3914547
  59.8064499  70.3841171  27.1613922  59.2799301  70.5078964  26.3716564
  60.4047699  71.1312256  27.1698933  80.6436081  10.0395317  41.1108398
  81.2119675  10.7724771  40.8742218  80.4936676   9.5768518  40.2864151
  43.4056168  52.3157959  80.1294708  44.1533966  52.6634636  80.6154556
  43.0399170  53.0757599  79.6767578  51.0775604  66.8187790  37.9047775
  50.9843063  67.6331940  37.4105530  50.2549973  66.3525543  37.7555923
  13.1087360  55.5311317  52.5546150  12.8632879  55.2294083  53.4292297
  13.0564432  56.4854622  52.6070328  23.8701153  25.7023678  19.8814201
  24.3475018  26.3757095  19.3967094  23.6775703  26.1072044  20.7271538
  79.8541870  45.1951485  83.8567657  80.3935928  45.8910713  83.4813156
  79.5509720  44.6927528  83.1005249  13.0554609   3.3033478  60.5864830
  13.9489670   3.5566268  60.3546906  12.7420959   2.8099418  59.8284683
  24.6791153  65.9688797  66.7408600  25.4437408  65.3934708  66.7628708
  23.9309731  65.3757935  66.8098831  66.5882187  32.7804909  76.5226212
  66.4510880  32.4422340  75.6377411  66.1772079  33.6449242  76.5149612
  46.7914734  66.4230347  61.2211037  47.1238251  66.2693863  62.1055031
  47.5700073  66.6350021  60.7061348  30.7817078  61.3431854  22.5391846
  30.1935005  60.6711311  22.8835487  31.2063141  60.9280167  21.7884674
  55.3842964  62.3084564  39.7143097  54.8483086  62.4697113  38.9378128
  55.2870789  61.3710861  39.8820000  73.5526733  25.9184780  40.0173492
  72.6070862  25.8929768  40.1638298  73.9234772  25.4481506  40.7640266
  60.4406967  34.1224632  17.9806957  60.4658394  35.0579033  18.1820660
  59.9526443  33.7341843  18.7068329   2.4569228  33.7312126  71.5319748
   2.4691026  32.8418732  71.1781998   3.1456733  34.1898384  71.0508118
  36.8572083  36.0304794  72.0987473  36.5762291  35.3597603  71.4763184
  37.2567787  36.7094421  71.5550690   2.8616109  48.3902931  55.3287125
   2.4670877  47.9587173  54.5708694   3.6919372  47.9324379  55.4597130
  68.7786102  26.5371914  43.8009949  68.7523499  27.4929962  43.7565269
  69.5281296  26.3441238  44.3641777  16.8901901  33.1354370  76.6226120
  17.7711754  33.4689255  76.4526596  17.0031185  32.5178642  77.3451614
  51.6048660   8.2799778   2.2695620  50.7670021   8.5981197   2.6057148
  51.5123100   7.3273277   2.2584586  76.6627274  21.6103554  12.1109734
  75.7582397  21.6549950  11.8009205  77.1785583  21.9916515  11.4005041
  26.7006531  50.2995834  57.6416740  26.0836258  49.7286682  58.0994568
  27.5030804  49.7817841  57.5766640  51.3282814  51.7265511  44.1274948
  51.6573486  51.0298920  43.5595055  52.0459213  52.3584175  44.1718864
  80.3942413  35.5755539  20.7251568  80.6861496  34.8455315  21.2711334
  80.7179260  36.3557701  21.1754074  12.7031136  63.7789612  77.1428452
  13.4757366  64.3360901  77.2371368  11.9692335  64.3921280  77.1018906
  19.2010899  12.5135279  10.9032249  18.5119877  12.5976181  10.2442112
  18.7330132  12.3239803  11.7163715   2.8810008  66.2426834  11.7705975
   3.3303170  66.9333649  11.2834625   2.2341089  65.8975677  11.1552429
  19.0296822  22.2520466  15.3825006  19.5297775  21.8176155  16.0734463
  18.4298840  22.8331852  15.8502083  18.3212070  70.3971558  48.6917229
  18.0054264  69.5063553  48.8433037  19.1274490  70.4559402  49.2043152
  59.8555565   5.1074758  17.6869469  60.7763405   4.8516636  17.7412357
  59.5261726   4.6534686  16.9113083  61.9584045  53.3212204  65.9971771
  61.6022835  52.4340897  66.0462494  61.1972313  53.8757324  65.8258133
   9.0058918  46.2582130  34.6769142   9.5686798  46.2868118  35.4506607
   8.5032263  45.4496841  34.7761154  62.7528152   9.4367085  24.9914856
  62.9231682   8.6170511  25.4555702  62.3493271  10.0043526  25.6481495
  85.1567459  10.4881802  72.8670807  84.4952393  10.3802013  73.5504456
  85.8986053   9.9627190  73.1666870  58.3501472  66.2389603  30.8227119
  58.5234756  65.3779907  31.2033939  57.5846825  66.1041260  30.2640438
  47.2234192  19.4790630  75.9179382  47.5851021  18.8752480  76.5666504
  47.3215408  19.0208282  75.0832977  44.5726089  45.6453667  22.7086296
  45.3130875  46.2124977  22.4934864  44.6387062  45.5136070  23.6544113
  59.0741348  65.7112656  52.6293602  59.8694000  65.2371750  52.8722916
  58.5073204  65.6374741  53.3971596  65.2148438  35.6566734  73.5664139
  65.9460907  35.0973015  73.8283463  65.3755188  35.8434448  72.6414642
  56.5426064  28.4064598  27.2242508  57.0439262  27.5923710  27.2708340
  57.1291237  29.0700378  27.5874271  71.7831726  15.2346573  60.5989342
  72.7301254  15.0995264  60.6344757  71.4161072  14.3511372  60.5691910
  45.9095306  44.1953621  44.5552063  46.2266808  45.0934181  44.4595985
  45.7256470  44.1045570  45.4901810  82.7350616  53.1221237  70.0045471
  82.5318985  54.0360146  69.8051529  82.3322906  52.6262016  69.2917633
  60.8027725  51.9700966  61.6692238  60.5896149  52.0022163  62.6018333
  61.7466698  52.1251068  61.6337929  56.0615807  54.8939171  20.3913403
  56.3861961  55.6494255  19.9013805  56.6572762  54.8179092  21.1367264
  41.5613441  34.3091812   8.9581451  41.0651703  33.8227577   8.2997847
  41.4747543  35.2253418   8.6947365  15.7184563  56.3247185  49.0995522
  16.4383030  56.8848267  49.3899536  16.1472206  55.6019630  48.6412773
  21.7547207   8.4744835  31.1635246  21.0922928   8.5684376  30.4789848
  22.3741283   9.1848917  30.9965401  39.1965332  34.9203377  82.9225006
  40.1380043  35.0295334  82.7885742  39.0282745  34.0036888  82.7041626
  57.8632164  68.6522141  41.2881355  57.3578110  69.0773926  40.5952950
  57.2320900  68.5135193  41.9943047  45.6152382  71.6715012  21.1110516
  46.3031693  71.4152298  20.4967937  45.9850349  71.4885330  21.9747677
  76.3822327  33.4677925  72.0616455  76.1093216  33.7036057  71.1750031
  77.3257828  33.3229218  71.9912643  58.2745132  24.3663445   4.5161657
  58.2941208  25.2091446   4.9695258  59.0255394  24.3956909   3.9234371
   4.9109483  31.9434624  56.0108643   5.6824760  32.2839470  55.5580406
   5.2623000  31.3220921  56.6485786  47.0368614  49.0409508  57.6086426
  46.1665840  48.6600838  57.4911995  47.1355476  49.1249542  58.5570259
  44.3317413  19.1875267  80.1985016  43.9295692  18.3189163  80.2005692
  43.6226387  19.7791901  79.9468307  24.7542267  64.8823395  35.1651764
  24.3254471  64.6481018  34.3420677  25.1695538  64.0712280  35.4581680
  34.8480682  66.2298203  60.9867859  34.5834045  66.8290710  61.6847038
  34.9272728  65.3792572  61.4186440  81.1581345  30.7135334  40.5671005
  80.8257523  31.4019451  41.1431541  80.4023132  30.4581585  40.0381851
  55.5692177   6.5718064   8.8571911  55.3978539   5.7924185   8.3285885
  54.8079185   6.6427846   9.4330511  17.6570015  28.1160564  19.6598892
  17.1957684  27.3677635  19.2810059  16.9777584  28.7793808  19.7817974
  53.7363434  30.4708042   8.8866301  53.6134109  29.5473213   9.1063995
  52.8521576  30.8374672   8.8895979  52.3315849  13.4272366  55.6535225
  52.6382103  12.8750420  56.3727570  51.9720459  14.2030687  56.0836945
  48.7066917   7.0919971  83.4460373  48.5301552   7.2463303  84.3740768
  48.9153519   7.9576082  83.0947418  27.8459225  50.4874306  36.6007538
  27.1969566  50.7589798  35.9516525  28.3235016  49.7737465  36.1779060
  56.3747215  46.0104828  62.1050682  55.6292686  46.4002800  62.5617867
  56.1343269  45.0904007  61.9959946  86.1380997   0.2987618  12.0160856
  85.2110519   0.5332592  11.9732676  86.2768326  -0.2688648  11.2579403
  71.9346695  71.0520401  62.1578445  71.3022461  70.8676376  61.4633865
  71.9838715  72.0074539  62.1894722  79.2130737  43.7253914  40.2904205
  80.0317764  44.0356255  40.6773415  79.4353409  42.8763695  39.9083328
  85.4855347   3.9168749  79.4332123  85.7648697   3.0657609  79.7705688
  84.6703644   3.7335763  78.9661560  14.3185501  66.0492859   8.9749870
  13.4595900  65.7284164   9.2496891  14.3915625  65.7835541   8.0583153
  67.1689606  32.9468422  28.8746948  66.4897995  33.4679604  28.4464302
  67.9915009  33.3461342  28.5914555  56.9007034  45.4826927  70.1998367
  57.1559258  45.8990974  71.0230560  57.6152878  44.8757820  70.0067902
  79.7409897  51.6511765  25.9741344  80.3911285  52.2695198  25.6406746
  80.2479553  51.0281258  26.4947357  14.1074705  60.4085159  68.9586105
  14.4648771  61.2511139  68.6783981  14.6363316  60.1647415  69.7182922
  52.3551407  43.2704735  87.3280029  52.5674744  43.8837891  86.6244507
  52.2171440  42.4342041  86.8832092   9.2654428  58.8351402  32.7823410
   9.3367500  59.6444550  32.2762184   9.2276745  58.1426239  32.1226273
  76.8853607  45.5358391  15.5638247  77.8385468  45.5061684  15.6462879
  76.6287994  44.6247292  15.4213991  86.5303802  45.6047859  28.4910851
  87.1832581  45.1795120  29.0470772  86.1836777  46.3159676  29.0298347
  60.5784607  51.7263031  41.9260559  60.2231102  52.6147842  41.9497986
  61.2389717  51.7509422  41.2337036  42.8725433  52.4808235  22.8479996
  42.0172386  52.3750343  22.4314690  42.6919556  52.4157372  23.7857533
  28.0468044  71.2017899  35.6361160  28.6840458  70.8798676  36.2737083
  27.6753998  71.9845810  36.0429726   0.7155780  32.9513245  46.8539391
   0.0576731  33.6316681  46.7106819   1.5126225  33.3012772  46.4558372
  77.9645386  70.7197418  56.6919594  78.1660843  70.6238327  57.6227722
  78.4557877  70.0167542  56.2668571  58.4871025  15.4353876  44.5836830
  59.1025238  16.1662636  44.6411972  58.2325592  15.2646818  45.4904900
  66.8686981  20.8517723  50.7394218  66.1974716  21.4158878  50.3554077
  66.5625305  20.6883335  51.6314888  73.0355911  60.2483025  11.3875799
  73.9638596  60.0564423  11.5207825  72.9247437  61.1385803  11.7212715
  44.3965950  11.1732121  79.4888840  44.2463989  10.8897562  80.3907242
  44.3236580  12.1270437  79.5223160   4.4296732   4.8749547  32.7114525
   3.5858252   4.5862346  32.3638992   4.5983601   5.7073703  32.2700233
  45.3192177  64.0887451  45.0994530  45.1419640  63.1989212  44.7944565
  46.0812988  63.9984856  45.6715698  44.2115326   3.0604091  49.8587227
  45.1621552   3.0694613  49.7470703  43.8678856   2.9268951  48.9753685
  16.3847008   6.0721698  50.6574402  15.8831453   6.5379934  49.9883499
  16.7020893   6.7608218  51.2416115  37.5594444  51.1595192  18.4363194
  38.0709381  51.4595757  17.6849384  38.1752701  51.1799812  19.1688271
  68.0717621  62.9856720  80.0711823  68.4367447  63.4809685  79.3378983
  68.8072128  62.8721504  80.6732178  52.6667824  10.9941854   1.2194960
  53.6218948  10.9332495   1.2029569  52.3847008  10.2082014   1.6873558
  58.0356598  61.7921906  77.8572845  57.7792358  61.9878731  76.9560699
  58.8465118  62.2838516  77.9877167  50.4372406  11.3442888  49.0887299
  51.2107391  11.0313673  49.5577850  50.4704094  12.2965012  49.1805153
  25.3164558  56.4687767  13.4515772  24.8998852  56.0249557  12.7128458
  25.6263027  57.2985535  13.0886774  64.9300842  14.1282396  66.4996109
  64.6437759  15.0219059  66.3108902  64.1293793  13.6684742  66.7520370
  18.8606415   1.0695324  42.5707474  18.4986992   1.2252132  43.4430962
  18.9383297   0.1174206  42.5100861  36.8775749  67.3683243  36.9054070
  36.7975349  68.2133865  37.3477821  36.6690712  66.7234421  37.5813408
  19.4249458  58.3802490  24.4210243  18.7426624  58.4388504  25.0898190
  20.0221577  57.7067223  24.7465000  67.7389679  28.6570320  56.2375069
  67.2120972  27.8933334  56.0021210  68.0095291  28.4921741  57.1407509
  84.1630020  26.8265362  33.8728905  84.6313095  27.5543671  34.2817650
  83.2701950  27.1514454  33.7564087  53.6046181  55.6199684  66.6479034
  54.5157776  55.8669930  66.4897842  53.6146927  54.6629105  66.6606979
   2.5045738  14.6088696  54.7914047   1.9861444  13.8546047  55.0716667
   3.0175493  14.8471670  55.5636101  56.3269615   9.2148781  39.2007484
  55.4688110   9.2852926  39.6189003  56.7261734  10.0756741  39.3268051
  40.2610474   5.9686432  71.3705063  41.1472511   6.3299408  71.3887634
  39.6966362   6.7262778  71.2166748  82.3869553  30.8415871  16.0632000
  82.2753677  31.5436592  15.4222031  82.2979431  30.0359764  15.5539856
  16.8725357  67.8384476  72.9009247  16.1341991  68.3712616  72.6056290
  16.4794636  67.0025101  73.1517868  73.2986603  50.8701820  78.5686722
  73.9456024  51.2123566  77.9517288  72.5839005  50.5545845  78.0157318
  17.0576801  56.7399712  57.7440414  17.1116104  57.2074699  56.9105110
  16.8899918  57.4242439  58.3920250  71.2801056  24.0961056  20.0101624
  71.9479752  23.4539700  20.2506714  70.6118317  23.5864754  19.5519924
  21.2943230   5.7863741  24.6506386  22.1331654   6.1786094  24.4083004
  20.7186546   5.9751482  23.9095573  69.7627182  60.2383194  20.3283730
  69.6878662  60.9593773  19.7033100  70.4607239  59.6866875  19.9752102
  78.3487396  50.7966156  51.0714149  78.4703903  51.7266655  51.2623062
  78.7643127  50.6708412  50.2183571   4.0571856  54.8803291  78.8462296
   3.6062155  54.5013466  79.6007004   3.7992456  55.8021049  78.8511963
   9.7915907  39.7282677  82.4368439  10.3499937  40.4284554  82.0989761
   9.7793045  39.0736847  81.7385635   2.7231562  42.7579651  88.7804871
   2.9675882  41.9833260  89.2868652   2.6756625  42.4477921  87.8761826
  83.3174515  43.7021408  86.7390289  82.5929871  43.5621300  86.1292877
  84.1040497  43.5479965  86.2158279  18.7860184  38.1855621  16.6711597
  18.9014397  39.1335793  16.6065712  18.7712173  38.0096245  17.6119366
  77.5892410   9.2146063   6.5376544  77.2067184   8.6342897   7.1957917
  77.0773010   9.0492344   5.7459445  67.4863892  24.2932758  28.0706406
  67.9557190  24.2912731  27.2364006  67.9119644  23.6084557  28.5865231
  40.6423302  64.7341003  86.0303040  40.1248131  65.5007401  86.2766418
  40.8475494  64.8707733  85.1054077  27.1331959  36.0890083  85.2497025
  26.7293682  35.8677406  86.0888672  28.0739040  36.0115776  85.4087753
  83.9388733   9.3627872  58.5534973  84.1868744   8.6152010  58.0095825
  82.9832764   9.3238497  58.5928040  81.8336334  14.6151505  75.4986649
  82.5440063  15.1567116  75.1546936  81.1106262  14.7512636  74.8863297
  38.7990532  40.7429733  10.3750830  39.3035278  41.0260162   9.6124392
  39.0628586  41.3428116  11.0728178  47.0100365  56.2990761   3.0185666
  47.4118195  56.4492073   2.1628447  47.6379776  56.6596680   3.6445818
  67.5850830  70.9010391  47.6321564  66.8851700  70.6001282  48.2116470
  68.3920517  70.6914291  48.1023598  77.3170700  25.7886772   3.5133274
  77.6067581  26.0843010   4.3764157  77.1487885  26.5961380   3.0276105
  35.5311165  29.5824947  21.1956978  36.1730995  29.7933655  20.5177460
  34.9106369  30.3110008  21.1728992  68.3843689  57.8756256  71.9921951
  67.8162766  57.1450615  71.7476959  67.8786850  58.3656769  72.6405487
  64.4852371   4.4009519   9.2312355  64.7044830   3.9732668  10.0590324
  64.7421875   3.7690411   8.5597477  48.9534264  14.5585756   6.8962517
  48.8550529  13.8065367   6.3123055  49.8916473  14.5963860   7.0821066
  73.2824860  49.9693909  26.4278984  73.6434021  49.1467628  26.7584362
  73.3779373  49.9080620  25.4774456  37.9624062  65.5268555  25.0221443
  37.5147171  66.2997589  25.3662872  38.7307014  65.8762894  24.5706463
  62.6164284  15.3043127  11.9149828  61.7458420  14.9073172  11.9415646
  62.6324654  15.8969517  12.6664839  58.1881905  71.0243073  44.4437828
  57.8249435  71.7724380  43.9698792  57.4223442  70.5204391  44.7191467
  77.9804916  61.9986000  45.4093552  77.7565231  62.1951065  46.3190002
  78.2215958  62.8453751  45.0337601   9.4788828  66.3221741  58.6634293
   8.8938513  65.6307755  58.3536987   9.0618563  67.1348343  58.3772430
  58.1581688  16.1973915  53.3454208  57.9651604  16.6979370  52.5526848
  58.1701736  16.8511448  54.0444870  29.4677048   6.2440095  36.5433922
  29.8555260   6.1594782  37.4144173  28.5770035   6.5541091  36.7068634
  61.6949883  54.1613388  41.7150459  61.3777924  54.9771538  42.1024284
  62.0231972  54.4172363  40.8530540   4.3480654  54.5943794  54.9689636
   4.0544515  55.2926674  54.3838005   4.6781945  55.0525398  55.7418404
  10.5246105  21.0828781   5.7510285  11.1390276  21.8136559   5.6825566
  10.9555798  20.3635578   5.2894258  30.2391205  14.9208708  41.5247574
  29.7954273  15.3446331  42.2594643  30.8196201  15.5961933  41.1737709
  81.6114426   4.9823384  59.8000221  82.1251602   5.0805869  58.9983559
  80.7826843   4.6024203  59.5083656  51.0514145   9.9362707  13.1629610
  50.8917618   9.8127756  14.0986376  50.6278687   9.1856194  12.7465954
  11.7499561   8.3158789  82.0048752  12.4551144   7.6824493  81.8716431
  11.6358118   8.3509798  82.9545975  25.8652382   1.1122751  30.8451443
  26.0715408   0.6271554  31.6441002  26.1470947   0.5354517  30.1351719
  69.7432556  29.6761017   1.8508141  70.2772522  29.4660835   2.6169517
  69.7416763  28.8716106   1.3321379  77.4326477  30.7982960  42.5285225
  77.9906921  30.9433994  41.7644806  76.5507050  30.7087746  42.1674232
  14.7326117  56.1231422  31.2474117  15.4557724  55.7222748  31.7296734
  15.1383533  56.4724159  30.4539299   9.7017612   0.9829187  70.5731583
   8.8856707   0.4836395  70.6039352   9.9955654   0.9059098  69.6654205
  48.6714821  69.3785553   8.8364687  49.2816658  70.0412674   9.1600780
  47.8066597  69.7718201   8.9533310  56.9192352   4.1306820  27.8420925
  57.4092522   3.3394866  27.6181984  56.7192230   4.5354209  26.9980469
  72.8700180  15.1350641  36.7628136  72.1634827  15.2228851  36.1230316
  72.5628052  14.4598408  37.3677330   5.3667021  41.6031876  69.2474747
   6.0281572  42.2691917  69.0599976   4.5314894  42.0470810  69.1004715
  53.3574028   3.5711432  33.3735428  54.2641258   3.4361124  33.6489563
  53.2151337   2.9174070  32.6889839  37.2443199  62.5907097  46.0289307
  36.3453827  62.8966179  46.1496010  37.7873650  63.3089447  46.3536987
  84.2847519  47.1146851  30.0499249  84.3364792  47.2579575  29.1049213
  83.7463455  46.3288612  30.1439171  38.6813049  70.0734024  42.7749557
  39.2643585  70.1941223  43.5244293  38.4019203  70.9592361  42.5437202
  26.5189381  41.4125099  87.8634186  25.9328785  42.0725479  88.2337036
  26.0841103  41.1305618  87.0586395  69.0908813  28.4615993   6.2246852
  68.3818207  27.8236732   6.1440210  68.9048538  29.1132393   5.5486760
   5.1877961   8.5150824   9.7912178   4.9361744   8.1194944  10.6257410
   5.9908566   8.9976263   9.9873724  22.3970184  13.5825329  86.1436691
  22.8106556  13.8738670  85.3311081  22.0095139  12.7351055  85.9247208
  12.3478060  24.1359615  10.5329924  12.6194849  23.2243042  10.6393127
  13.0487709  24.5363407  10.0186234  42.9170303   6.8092923  34.2175674
  43.5055275   6.1722631  33.8124733  42.3990517   6.2962437  34.8378181
  61.2648926  34.6901436  75.0111465  61.1759529  33.7521515  75.1799469
  61.3344536  34.7565727  74.0587921  83.1495132   6.4748197   2.0724869
  82.5753403   7.2404895   2.0549366  83.9669418   6.7793493   1.6784053
  44.8755417  10.0449495  64.8096008  44.9482117  10.5387287  65.6263885
  43.9494057  10.1046524  64.5752182  54.3214493   6.9855933  13.5006866
  53.6830406   7.5339479  13.0446424  53.9804840   6.9118633  14.3920565
  20.7273216  41.3625755  23.9981728  20.4105606  42.2106590  24.3090553
  20.0554008  40.7397041  24.2752762   0.9941341   6.5656219  42.2695160
   1.8578745   6.3988290  41.8922005   0.8318716   7.4928360  42.0957985
  26.0159569  13.3765640  11.3609896  25.6581211  13.3978300  10.4734459
  25.2745190  13.1262951  11.9122314  49.3128395  16.9284229  75.4534912
  49.7716255  16.8287773  74.6193390  50.0040283  17.1292439  76.0844955
   3.5299635  26.9849892  13.3357162   4.3833561  27.4184608  13.3430729
   3.4572420  26.5845604  14.2020884  82.7711411  46.9934311  75.6755219
  82.4354477  46.7820396  76.5466461  82.0964127  46.6760597  75.0753174
  53.3584747  62.8789253  86.4311447  52.5572357  63.3924217  86.3283157
  53.8951874  63.3910561  87.0360336  67.7588425  31.2187920  67.6190033
  68.4651260  30.9181461  67.0471497  67.7844849  32.1731453  67.5498352
  68.8657990  34.8712807  52.4064331  69.4219131  35.6168327  52.1803169
  68.1773071  35.2442932  52.9569473  33.1224785  60.6496010  87.6390381
  33.9568558  60.5778198  88.1026077  33.2371521  61.3985100  87.0540466
  84.5441208  47.7442017  73.7138748  84.7224426  48.6534615  73.9540482
  83.9527435  47.4276657  74.3967361  44.9183998  69.2146530  30.6603832
  44.1532898  69.2410049  31.2349625  45.5655022  68.7035904  31.1465015
   7.9112859  21.4755344  13.9780855   8.7422199  21.0076141  13.8954382
   7.3045583  20.9861927  13.4225159  49.1052666  51.8705635   5.2820497
  48.5810585  52.2443733   5.9903598  49.9746513  52.2533798   5.3997641
  68.8335342   6.7500339  16.1381283  67.9425735   7.0086398  16.3738117
  68.8354797   6.7425518  15.1809597  57.7177429  12.2480516  35.7528687
  58.5040283  12.0905237  35.2302094  57.9175148  13.0389433  36.2536774
  11.2154598  10.6969709   4.2908821  11.0846462  11.2015038   5.0937314
  11.7760305   9.9674644   4.5551028  40.1611481  32.4893456  15.0460835
  40.9571152  32.7712059  15.4968853  40.4046173  31.6663895  14.6221790
  51.5699806  53.9348679  41.6914749  51.0754013  54.5162544  41.1138840
  51.0628128  53.9153557  42.5030365  58.6817780  65.4517593  41.7542419
  57.9686394  66.0315247  42.0217209  59.3850174  66.0441132  41.4881516
  38.4932251  43.0973473  84.8045273  38.9873543  43.5652733  84.1313858
  37.8470154  42.5872841  84.3161850   6.0004520  64.2384720  23.2513695
   5.2597446  64.0182571  23.8162479   6.0593114  65.1928787  23.2947655
   2.6371233  41.6028252  72.2568359   3.5539033  41.3860283  72.4263763
   2.1722746  40.7719460  72.3557587  68.7723618  15.1430454  10.8196383
  68.5041428  15.4791412   9.9644604  68.2893600  15.6780586  11.4494801
  77.4796600  21.4790936  78.8418427  76.6494064  21.1538982  78.4937668
  77.3327255  21.5496254  79.7850647  60.1028099   2.6685150  67.3522568
  60.8788757   2.7381124  66.7962875  59.3678780   2.8178635  66.7574463
  71.2298279   0.7805297  52.7947388  70.9347305   0.0696536  53.3637772
  71.6161346   0.3378011  52.0391006   6.5107040  17.7714024   1.9262792
   6.5690594  18.0131741   1.0019563   7.3360581  18.0734978   2.3054359
  13.5565062   5.1882715  29.0428333  13.8342695   6.0890512  29.2091923
  14.0189724   4.9389200  28.2427197  33.6500282   3.7726769  75.3368149
  33.1072731   4.5305905  75.5541000  33.4594116   3.5979054  74.4152069
  52.4987679  21.0702419   4.4332485  52.2371864  20.1990490   4.7312903
  51.7032089  21.5974178   4.5067449  73.0650330  64.2341461  43.0664444
  72.4300003  63.5179977  43.0764389  73.4725037  64.1808929  42.2019463
  80.4346008  36.1884079   3.0763960  80.7134933  35.2831001   3.2137675
  80.9584961  36.4904518   2.3344138  63.8710480  62.4704971  59.6018982
  64.7385788  62.2980156  59.9677887  64.0354614  63.0521164  58.8596611
   0.1103051  28.7772846  84.0192566   0.5746552  29.0210323  84.8200073
   0.1441209  29.5633240  83.4740677  40.7164345  60.6213570   2.3339455
  40.3511543  61.3890305   1.8940839  40.7664146  59.9542351   1.6493442
  64.5445404  11.0226307  81.0324783  63.8739052  11.6850042  81.1990433
  64.7143555  11.0848122  80.0925140  76.6573486  29.2983952   5.2860928
  75.8306122  29.7219200   5.0550656  77.1167755  29.9456978   5.8210278
  58.4408112  60.1140862  71.3397369  58.7428627  59.3292885  71.7969971
  57.9495850  59.7798767  70.5892487  66.8439026  13.1842413  76.6944580
  66.6987076  12.5124722  76.0282211  66.1362991  13.8141651  76.5576324
  54.3567238  19.0866508  86.7003708  54.1722565  18.8819008  85.7837067
  53.4947243  19.2236404  87.0933380  76.8889084  24.2575302  54.6025314
  76.8442383  24.9576283  55.2537613  76.1384201  23.6975288  54.8010368
  75.9952316  65.4077072  75.8345184  75.5641022  64.5590973  75.9355698
  76.0253830  65.5499039  74.8884201  46.4322014  68.1759415  43.7273521
  46.3129883  68.5535812  42.8559113  46.6147690  68.9275970  44.2911911
  30.1690388  10.4877977  43.5648499  29.4032269  10.8661242  43.9968567
  29.8685970   9.6362467  43.2473145  37.8574791  13.3653660  35.5383682
  38.0646324  12.4711313  35.2669563  36.9178352  13.3489122  35.7201042
  58.7746315  24.2971191  82.5752945  59.6926079  24.3023090  82.3041458
  58.7719002  24.7470436  83.4201584  21.5662518  63.3628006  86.2272644
  21.9471149  63.4718475  87.0986404  21.7679195  62.4578590  85.9892654
  61.7185364  50.0291557   7.1177440  60.9392128  49.8929634   6.5789137
  61.3762207  50.2960701   7.9708600  44.5207748  69.8716278  87.7681503
  44.5610695  70.7727432  88.0884628  44.1336975  69.3776093  88.4908905
   6.5638957  50.5471764  49.8218498   6.7061973  51.4720383  50.0233765
   5.6813488  50.3647842  50.1444588  47.2790756   5.7761641  53.6139641
  46.5330544   5.5023322  54.1475410  47.7616882   4.9672155  53.4439087
  55.9417152  22.5567703  14.3966732  55.7125511  21.7873707  14.9179592
  56.6212807  22.9977703  14.9065218  67.1052704  68.3681641  81.8790512
  67.7371445  67.8456650  82.3729782  67.1533432  68.0225067  80.9877396
  75.4936295  11.5690012  49.8115349  75.5831451  12.5181694  49.8969650
  75.4135284  11.2539806  50.7118530  65.6672745  25.5396347  74.4296799
  66.3962173  24.9195290  74.4111710  65.5749130  25.7731991  75.3533401
  62.7868195  65.8656082  75.1084366  62.0418587  65.5147400  74.6204300
  62.3913574  66.3857727  75.8079147  72.3081284   7.9791770  53.1740723
  72.1025009   8.5548019  52.4374542  72.9372635   8.4755411  53.6975632
  77.1106796  62.0697250  34.2395325  76.6905289  62.9112129  34.4173164
  78.0384445  62.2820435  34.1375847  51.2109756  51.7754822  13.3856840
  51.7106781  51.6346855  12.5815029  50.5518188  52.4272575  13.1470709
  77.5203857   5.9968619  56.9005127  76.9398727   5.4091697  57.3840981
  78.2087555   6.2219896  57.5263672  79.5810852  56.4018021  72.3435593
  80.1854858  55.7023697  72.5920105  78.8070297  55.9441566  72.0154800
  17.7360840  65.5352783  85.4754639  17.4403820  65.3139420  84.5923996
  18.6343861  65.8438873  85.3569260  62.5980568  32.6533356  87.7708206
  62.6601677  33.1133766  88.6079254  62.7062378  33.3392334  87.1119766
   5.2922564  12.8537846  26.2462063   4.4879951  12.9350681  26.7588348
   5.3307896  13.6599684  25.7316055  76.6983337   9.4686184  15.7499247
  77.0488892  10.3382730  15.5574522  76.5186844   9.4854622  16.6899643
  52.5032997   8.2465954  44.5252228  52.7510948   7.3375874  44.6941452
  53.2397423   8.6078863  44.0319099  74.6947021  53.2550659  55.6387863
  75.1649323  54.0503540  55.3885155  74.5335007  52.8017082  54.8113136
  70.2631760  37.7096901  20.6957703  70.4303055  37.5225105  21.6194935
  70.5773697  38.6053734  20.5722275  24.1816063  68.5679016   0.6564052
  24.6885719  68.0388107   0.0405497  23.3976059  68.8186722   0.1678453
   3.9343863  -0.1744231   8.7609825   3.7271266  -0.3327875   7.8400068
   3.6340315   0.7197382   8.9237547  31.8620777  32.6852417  25.0773277
  31.9164143  32.8572235  26.0173817  32.0878258  33.5203476  24.6676159
  80.6697006  27.0060024  25.4105701  81.0718918  27.8083458  25.7433147
  79.7302933  27.1383171  25.5379944  45.0154953   9.5833178   3.5030117
  45.7895241   9.2541895   3.9599431  44.4143028   9.8378525   4.2030187
  81.5770493  11.9317780  75.4818420  81.6384430  12.8205566  75.1317902
  81.8220673  12.0196934  76.4029694  49.8806877  45.4462471   1.0441326
  50.5406113  45.2841492   0.3700017  49.0934868  45.6870384   0.5557013
  82.7914886  30.8163376  88.1188660  83.3420410  30.4701557  88.8211975
  83.1688385  31.6729832  87.9188690  31.2002811  67.3440704  83.1919250
  30.5451069  67.3325119  82.4941864  31.2092037  68.2512817  83.4970932
  11.4029169  57.1070175  24.7041702  11.9869213  57.8409729  24.8951664
  11.0951385  56.8161621  25.5626030  85.8111115  65.4063339  66.0837021
  85.6943207  64.5927277  66.5742493  86.7564316  65.4704285  65.9477081
  75.7599640   3.5226631  49.0615349  75.1287079   3.3286676  49.7544403
  75.2913055   3.3293927  48.2495995  22.3189125  65.9334717  56.5521469
  21.5578995  65.3554840  56.6071053  22.7485218  65.6865997  55.7331696
  55.0137787  44.9538956   6.6425352  54.6920738  45.7626877   6.2442932
  55.2920113  44.4160805   5.9012041   4.8260808  41.4972076  11.3870020
   5.3615122  41.9179077  10.7142782   4.6005321  42.2048569  11.9908180
   2.8898242  27.0993233  56.2948303   3.4591842  27.8461285  56.1095123
   2.0993090  27.4879589  56.6693687  35.3100510  67.6680832  51.0204620
  35.1052170  68.3776398  51.6293945  36.1904030  67.3860245  51.2687645
  55.1158333  33.5430183  18.2461872  55.8710899  33.0763245  17.8883915
  55.3837471  34.4619293  18.2538815  12.3844309  17.2592506  53.8236351
  13.1704750  16.8592587  54.1956215  12.3355627  18.1210709  54.2372894
  75.9653549  34.2515793  69.6308975  76.6497650  34.2459030  68.9617310
  75.2180939  33.8237190  69.2128525  38.3174973  13.0234108  17.2658901
  37.7786331  12.7400141  18.0044994  39.0749855  13.4462891  17.6703892
  59.7373810  11.9624414  66.8627472  58.8667259  11.5768766  66.7650909
  59.6179352  12.8844519  66.6350174  72.8641281  69.2811966  71.5399399
  72.5613327  69.1940689  70.6360855  73.5946274  69.8976822  71.4894333
  50.8820114  18.6566467  30.5540142  50.5079002  19.5347595  30.6260586
  50.5060730  18.1749477  31.2908096  34.9149933  27.7684460  77.5722046
  33.9657784  27.7230873  77.6869354  35.2713242  27.3551598  78.3586197
  52.1469421  44.4543648  75.3399658  52.9238014  44.1981049  74.8429260
  51.5828590  44.8849297  74.6975861   9.3976212  44.9962502   8.5102520
   9.7261143  44.1316185   8.7566986   9.1117859  45.3880310   9.3355026
  43.3538322  -0.0811831  50.3134995  42.6396255   0.4885994  50.0280418
  44.1182518   0.2325579  49.8303146  26.2573586  53.3229065   1.7460285
  25.3127060  53.2702942   1.6007823  26.6399574  52.8484154   1.0079858
  56.1043930  60.3096848  25.1631489  56.5038452  61.1696358  25.0321770
  55.1776695  60.4432564  24.9642220  17.3023624   3.0324860   5.8804126
  17.5601540   3.1962247   4.9732385  18.1049957   2.7325413   6.3070788
  54.9421577  38.6659737   0.7744552  54.4594917  37.9622688   1.2081199
  55.0113831  38.3824806  -0.1371764  23.0635986  29.1063957  19.3707657
  23.3823185  28.2265053  19.5718708  23.5036888  29.6714954  20.0057564
  52.2481575  24.2262516  27.5313187  51.7815323  25.0587673  27.4577541
  52.6004410  24.0708847  26.6549683   2.1328990  65.6283722  74.8974991
   2.4294724  66.5220718  74.7255325   1.3953887  65.7322769  75.4987564
  30.9495792  23.2369728  85.5084839  31.6749229  23.7697945  85.1825790
  31.0401917  22.4022312  85.0488892  58.0978394  50.6397858  35.2830238
  58.6088257  50.6870041  36.0910416  57.2014503  50.8371391  35.5546265
  32.9359245  34.2921906  81.5596161  33.3737831  35.1316261  81.4186783
  32.6667175  34.0125885  80.6846466  75.8215408  37.3058167  69.0468063
  75.7737427  36.4347763  69.4407959  76.5715485  37.2596550  68.4538498
  30.7878418  71.3586349  10.3424110  31.2019424  70.5456924  10.6320276
  31.3870201  72.0479279  10.6289206  59.6686783  51.5721779  64.2886200
  59.6768150  50.6157074  64.2521133  59.1363258  51.7780151  65.0570374
  81.2894363   6.2061892  33.8032990  82.1220093   5.9363461  34.1909065
  80.7611847   6.4949083  34.5474892  49.7059746  22.9475288  79.7828751
  49.4312286  23.5519886  79.0933990  50.4898605  23.3504467  80.1562576
  77.3383179  10.4386711  48.3233566  76.6938553  10.8313904  48.9121437
  77.6903839   9.6963253  48.8144798  57.3447189  71.4378357   5.6304154
  57.2758102  72.3058319   5.2328410  57.6882782  70.8809814   4.9317684
  80.7858734  10.3836155  56.7783356  81.3590164  10.1590786  56.0453148
  80.8983994   9.6640749  57.3994904  76.9066391  40.2516975  70.1050797
  76.0218277  40.5649681  69.9174881  77.4807587  40.9387894  69.7666626
  30.6126900   5.0072913  30.0405712  31.2821083   4.8199053  29.3825455
  30.8904419   4.5135593  30.8121376  13.2863903   8.8881311   9.7249031
  13.0697136   9.6677685  10.2362242  14.2179012   8.7438154   9.8913155
  40.9675865  38.5768089  24.7480469  41.9082985  38.7413368  24.6830673
  40.5915031  39.4256554  24.9809799  35.5482254  45.9491386  81.1038971
  34.7419510  46.1486168  81.5796738  35.7181892  45.0270805  81.2966537
   9.4634457  18.6014347  56.9609528   8.6741991  18.1569042  57.2703285
   9.4153032  18.5387478  56.0070229  30.7885933  25.2632294  26.4398403
  31.1651154  24.8000622  27.1881313  30.1571655  25.8697987  26.8266258
  78.4361725   1.1735584   7.7999024  78.3932953   1.6027339   6.9453840
  77.7277679   0.5301173   7.7805781  35.3040581  23.2247543   8.0975628
  36.0094719  23.5587521   8.6517029  34.6425056  22.9118862   8.7145643
  60.4292145  68.4269562  54.3111496  59.8975449  67.7136536  53.9579353
  61.1653824  68.5004120  53.7037849  62.3878059  14.7948446  28.4907322
  61.4683647  14.6674976  28.2569790  62.8661957  14.1986160  27.9146385
  33.1700363  51.0196266  76.3767776  33.0668678  51.6260834  75.6434326
  32.6236916  50.2685699  76.1451645  57.2163620  20.5017204  52.8773994
  57.6068420  19.8590107  53.4695854  56.3252449  20.6200314  53.2062569
  19.0698643  47.7094612  31.2105103  19.7299423  47.9583397  30.5635281
  19.4306469  48.0046883  32.0465164  73.6871109  32.9511414  32.5007820
  73.0966873  33.5787773  32.9175682  74.2228928  33.4815331  31.9109917
   4.8564882  59.1506500  48.0026054   4.7653928  59.0128365  47.0597687
   5.7527657  58.8779945  48.1990242  44.7375641  20.6403446  66.7287445
  45.0345421  20.8015251  65.8331680  45.0553474  19.7605591  66.9317780
  13.6194105  13.6197453   4.7645369  13.6352224  12.9735241   5.4704967
  12.8149033  14.1167650   4.9127669  82.5729599  25.7272797  58.7281876
  82.9014664  26.3159809  59.4077110  83.3457642  25.2439785  58.4359131
  22.4186134  62.7118568  48.4507942  21.9977303  62.0969925  47.8499374
  21.7079010  63.2790985  48.7497215  37.2180595  23.9057865   0.7436448
  36.3827553  23.7853661   1.1953042  37.5048218  23.0179691   0.5296812
  42.3685570  35.5888519  30.1658726  42.3334923  36.5387192  30.2788124
  43.3029251  35.3811646  30.1727829  63.8578186  13.8769884  53.9112053
  63.1417618  13.7143879  54.5252533  63.7462006  14.7909870  53.6497116
  26.4523945  40.6329956  83.9057159  25.8267345  40.7928429  84.6122818
  26.1931877  41.2417374  83.2139969  79.5542755   1.2492490  75.4035034
  80.2024078   1.9121467  75.6416626  80.0587463   0.5721437  74.9526520
  14.5467281  32.8430138  17.7863941  15.2847118  32.3245277  17.4657974
  13.7748146  32.3193817  17.5714741  45.1410942  41.9841118  67.8278809
  45.3849487  41.1144943  67.5108109  45.8222847  42.2074966  68.4621582
  24.5517120  61.3874092  88.9239349  23.7575264  61.9104958  89.0329361
  25.2574787  62.0318222  88.8704224  72.7285614  19.6227665  25.1369858
  72.2670593  19.0802116  25.7764225  73.6556931  19.4515495  25.3023167
  43.0837402  64.2108688  51.5048065  42.8244019  63.6094971  50.8067207
  43.7336540  63.7237968  52.0113678  73.9063568   0.3526773  37.0816383
  73.3756561  -0.4425336  37.1288719  74.1058197   0.4525751  36.1507988
  56.2644882   3.0676019   7.5600619  57.1556473   2.8619113   7.2776442
  55.9282227   3.6548347   6.8830724  57.6339264  71.3156128  52.1097336
  58.4694366  70.8528137  52.1727867  56.9874649  70.6878967  52.4326782
   1.2496243  61.1886864  79.3967056   1.7131367  61.0514488  78.5705414
   1.2977388  60.3426018  79.8417435  84.6093979  18.0174980   6.9371934
  85.3145828  17.4060135   6.7249837  83.8700638  17.4575844   7.1740694
  58.4730415  42.0440178  87.2013931  57.6443253  42.1021729  87.6768799
  58.7329292  42.9544754  87.0608368  20.8600273  43.0110397   3.6987002
  20.1082382  42.5723991   4.0969958  21.6106930  42.7142525   4.2131414
  78.0475769   3.1416786  72.2414703  78.0931854   4.0699043  72.0122375
  77.1352844   3.0022457  72.4954834  82.0080948  36.4373093  45.6190033
  82.5748901  37.1695595  45.8614388  81.8543777  35.9711304  46.4407578
  72.0616837  27.9739819  85.9454651  72.2099838  28.7423019  85.3941727
  71.1099472  27.9226494  86.0337601  37.8583107  66.4689331  76.3002167
  37.8062286  66.1905441  75.3858719  38.6519814  66.0501175  76.6332550
   9.2606850  44.0435753  38.6711502   8.5739594  44.6010971  39.0369492
  10.0769968  44.4290428  38.9893951  74.3718948  56.0208549  44.1419296
  74.3534241  55.3920250  43.4205017  73.9203720  55.5758934  44.8591270
  44.5214195  60.0505829  86.0536728  45.1727028  59.4058189  85.7773743
  43.6835213  59.6765785  85.7811356  75.3481369  59.4856071  28.2338619
  74.6806793  59.7308121  27.5930767  75.4813004  58.5480652  28.0941658
  59.8104134  33.0163155  37.6572990  59.1065636  32.9082298  37.0176506
  60.5030060  32.4300117  37.3526802  49.4795799  43.6886292  81.4098053
  49.6910934  43.8501434  80.4903488  48.5259285  43.6078224  81.4255829
  32.6274490  65.1815109  78.6054306  31.9776955  64.7154846  79.1316147
  32.1315193  65.8767471  78.1730804  44.7013817  27.2035770   5.2434983
  44.3914604  27.4832401   4.3821220  44.9592171  28.0152740   5.6804190
  86.8441162  21.2130318  37.1305580  86.5982513  20.2883415  37.1035576
  86.0307388  21.6710472  37.3423805  67.5770950   3.8065953  54.3992729
  66.7017593   3.4193113  54.3936462  67.9672089   3.5288608  53.5704765
  53.5352440  11.2405081  57.1253853  54.1356621  11.9058237  56.7891045
  53.6522293  11.2702904  58.0749397  69.0958099  27.4876289  34.5492706
  68.4884491  26.7528191  34.6352692  69.6429672  27.4391155  35.3331718
  62.3094444  11.9356384  37.9515419  61.5888672  11.4480858  38.3506546
  61.9690781  12.2125034  37.1008186  66.7863312   9.0407715  66.3255005
  66.0472031   9.2768126  65.7649612  66.4473343   9.1244402  67.2167435
  13.2917452  36.5499153  70.6441040  14.0563097  36.4491806  71.2111359
  13.4161530  35.8963394  69.9559250  10.9109688  27.6704712  62.4799309
  11.0363159  28.6017609  62.6621933  10.0896587  27.4489498  62.9188080
  51.7677956  71.3113937  72.0584793  52.0022240  71.7794266  72.8598709
  50.8833313  71.6148758  71.8538895  50.3512115  13.5643950  65.2302551
  51.0042992  13.3155632  64.5761948  49.8694801  14.2856617  64.8253632
  52.3372803  11.6034393  16.5664577  51.4987335  11.8401928  16.1702023
  52.9910202  11.8658991  15.9184074   6.4201708  25.4754257  74.5104599
   7.2256570  25.8926506  74.8159866   6.0994697  26.0525703  73.8174286
   8.7672844  26.3686790  72.7478104   9.4409418  25.8827152  72.2721481
   8.3334217  26.8957539  72.0768509  45.2194443  44.9268341  29.6516914
  44.3178902  45.2370262  29.5667725  45.7547684  45.6616096  29.3520794
  54.7395515  67.0794220  49.8450089  54.9165802  66.8995285  50.7683334
  55.5458717  67.4801331  49.5201874  43.6288185  64.2839813  67.8715210
  43.9412804  63.4823990  68.2911148  44.0352859  64.2748260  67.0049591
  61.2887802  56.8230591  37.1275864  61.8005791  57.3861084  37.7083397
  61.8766174  56.0971069  36.9186058  11.6705170  66.2718124  40.7495918
  10.8548527  66.2131805  40.2521095  12.1549511  65.4820099  40.5092430
  32.1441154   2.8953788   0.1594382  31.5145931   3.5985730  -0.0001018
  31.7810211   2.4127862   0.9020684  76.8489227   4.2108026  38.4548378
  77.4372940   4.8184667  38.9029427  76.1385803   4.7626486  38.1275635
  15.1026211  56.3111305   7.3440518  14.3767176  56.3000259   7.9678888
  15.5919476  55.5101395   7.5316772  37.7953949  25.6783943  88.0898132
  37.5539589  25.1581631  88.8561630  36.9687996  25.8254929  87.6300964
  54.0057564  58.4174347  18.0237255  53.3355789  57.7390327  18.1065998
  54.6033440  58.2541771  18.7534313  30.8543682   7.6148863  25.5867882
  30.2151165   6.9052339  25.6498833  30.5742226   8.2489862  26.2468395
  22.7711735  53.5132103  42.5395470  23.4447994  54.1930466  42.5564194
  22.0214825  53.9077721  42.9851036   3.4469388  63.7729797  73.3724060
   3.2649200  64.5351944  73.9220657   3.8145192  64.1398315  72.5683289
  55.6790085  12.9475718  85.0945206  55.1598701  13.6641979  85.4594498
  56.5874329  13.2222452  85.2192078  76.0536880  31.5013561  49.0703125
  76.0144196  30.8080540  49.7291183  75.9005661  32.3081055  49.5621872
  68.0661469  16.7094669  55.3703651  67.2749710  17.2068386  55.5774574
  68.3091965  17.0010185  54.4916382  37.7851677  47.6129112  10.4606524
  37.1745529  48.1625633  10.9518404  37.2797127  46.8301544  10.2414808
  12.6883059  49.9435921  74.3862991  12.4711876  50.4311867  75.1808701
  13.3112888  50.5042572  73.9239426  15.3402863  11.9108763  48.1694794
  15.1050196  11.0450726  47.8359146  16.2455845  12.0388422  47.8861198
   3.4296620  47.1133080  88.9325027   2.8513782  47.8393745  89.1662674
   4.2832747  47.3636246  89.2859421  50.5332947  54.4284325  55.5737572
  51.4082336  54.0467911  55.5025597  50.2214813  54.1534538  56.4359589
  42.7286911  49.8689880  73.0268173  42.6309586  50.6507912  72.4832535
  42.3209572  49.1696396  72.5160370  47.2423515  11.0173006  64.4730377
  46.3631210  10.6390686  64.4842682  47.4604454  11.0888872  63.5437698
  13.1932430  71.1719284  76.1784134  13.2330532  72.0040894  76.6497574
  14.0590448  71.0803146  75.7806396  62.9343605  35.7293587  36.8971100
  63.5709381  36.3840637  37.1841049  62.7210274  35.9805565  35.9984322
  60.5999794  38.9649010  80.4936981  61.4420357  39.2330475  80.1259079
  60.2295723  38.3739243  79.8381271   8.4176579  17.3999176   6.1733541
   7.7801151  18.0327950   6.5038633   8.4829006  16.7419395   6.8654809
  45.5693855  39.7628975  18.2791634  44.6535378  39.4913597  18.3401661
  45.8343201  39.9173279  19.1859112  74.7162704  48.6467094  80.0658875
  74.1866150  49.2484970  79.5428696  74.3376465  47.7842789  79.8953400
  56.1443748  69.4282074  39.3093262  56.5980110  70.0319061  38.7211151
  55.4176178  69.0868378  38.7882462   3.5324712  35.5987358   9.4668617
   4.2512136  35.7487259  10.0809813   3.5493338  36.3606644   8.8877172
  67.7194061   9.4312716   5.0329781  68.3268738   9.8471365   4.4211993
  67.8449097   9.9056749   5.8548188  48.1614647   8.9629555  17.5791016
  48.7989883   8.4040766  18.0234547  47.7839088   9.4977322  18.2774544
  79.5379639  64.0296478  82.2701340  79.6737289  63.4473839  83.0176392
  78.7128830  63.7355309  81.8841858  58.6398277  63.3506432  50.1445732
  57.9838982  64.0443268  50.2138214  59.4078522  63.7835770  49.7718353
  74.0026016  33.0449562   2.0541315  74.7993393  32.9899139   2.5817869
  74.3022461  32.9179726   1.1539525  83.5938950  16.3451824  40.2191734
  83.2151108  16.7453213  41.0018883  84.5158997  16.6014004  40.2414780
  31.4644966   1.8419006   2.5568523  31.8143139   2.4629478   3.1957264
  32.0119362   1.0629183   2.6554961  58.9290848  58.4092865  12.2793550
  59.0613327  57.9648361  11.4419737  58.2446747  57.9011192  12.7147655
   3.4592371   8.0865974  40.0846977   3.7702465   8.9906874  40.1307983
   3.4607987   7.7861381  40.9935188  85.1486359  12.0249290  78.5592499
  84.7061615  12.8630180  78.4249039  85.6598053  12.1494446  79.3588943
  25.9502182  54.5231743  51.1987152  25.2888756  53.8466835  51.3443794
  26.1773949  54.4405556  50.2725410  14.2656641  24.3788090  23.9005566
  14.2320004  24.8156719  24.7515831  14.3176155  23.4466400  24.1117344
  51.0605774  62.5521164  30.9142742  50.7068176  62.9237366  31.7223492
  51.6889801  61.8928909  31.2088299  74.7642746  67.5868988  68.4086914
  74.8620453  67.3908386  67.4769058  73.9220581  68.0373993  68.4715652
  84.6493912   4.3128996  73.6338425  85.3288498   3.8825855  74.1528778
  84.0492859   4.6806316  74.2825928   1.2064545  58.9238319  61.7541695
   1.6609502  58.1325951  62.0433273   1.3011711  58.9198952  60.8016739
  43.6505203   8.1213303  18.0487556  43.6445045   7.5785480  18.8371620
  42.7374878   8.1369801  17.7617760   5.8664207  51.0824585  56.0727310
   5.6270304  51.6555939  56.8010406   5.1386161  51.1620064  55.4561234
  24.1297874  67.6250076  26.6897659  23.8940907  67.3019485  27.5594292
  23.9962559  66.8743134  26.1110954  18.3857784  62.2358589   6.0726485
  17.5273857  61.8668556   6.2805643  18.2659054  62.6561813   5.2210665
   2.3831990  35.0606041  86.3104935   1.8280996  35.4062157  85.6114578
   2.9700441  35.7841873  86.5301971  54.0563431  61.0459976  62.8776436
  54.6865692  61.7467957  63.0447617  53.9066353  60.6488876  63.7356186
  16.6534023  69.7954025   9.2360649  15.7485733  69.6656265   8.9520311
  16.8291016  70.7199249   9.0610991  27.7935143  60.2031097  50.8920517
  28.3895473  59.4783134  50.7032471  28.3331776  60.9879494  50.7970772
  48.9872093   7.4537010  29.2694893  48.5984535   8.2736540  28.9648952
  48.6001167   6.7820072  28.7080479  84.5892487  39.9023170  75.2130508
  85.2196579  40.6093445  75.3506241  84.8689499  39.4874496  74.3970337
  69.8709335  49.2133522  85.0988235  69.9566040  49.9569016  84.5021439
  70.6762085  48.7113876  84.9731522  83.9714584  14.5193729  78.6965103
  84.6560211  15.1592674  78.8918228  83.1569519  14.9567547  78.9445114
   6.4252291  50.2017021  76.5822525   6.1252785  49.5840836  77.2491913
   5.8938766  49.9994125  75.8122025  30.7506790  60.6049805   4.4846330
  30.7830715  59.6809387   4.7322741  31.0223179  60.6166496   3.5668597
  64.5221329  33.6147079  31.0264072  64.4340668  33.9344025  30.1284809
  64.4543152  34.4008484  31.5682735  15.9660997  60.2209740  62.2607155
  15.6609316  59.3203621  62.3702736  15.7144384  60.4520340  61.3665619
  33.8845406  36.7056847  19.8539009  34.4593239  37.4609261  19.7295227
  34.0612259  36.4150047  20.7486172  18.9977436  39.6643600  88.9261246
  18.3134842  40.3099060  89.1030121  18.6055470  38.8263245  89.1712952
  66.7988434  41.5150375  40.4615288  67.1408997  42.3016319  40.8863754
  65.8522644  41.6532707  40.4280739  66.7783279  11.7714653  57.2930183
  67.2108917  12.5952845  57.0684242  66.6751938  11.3190794  56.4557953
  74.7798996  49.1802979  72.0675354  75.6502151  49.1909866  72.4658737
  74.7406082  49.9884949  71.5561600  72.0548401  25.1150188  83.5764160
  71.6296616  25.6145382  84.2735062  71.4523163  24.3931351  83.3973160
  79.4525909  30.5343227  11.8194151  79.7439270  30.2718430  10.9462252
  79.0407410  31.3883133  11.6878510  77.7420654  10.2624712  61.7349892
  77.8981018  10.9148512  62.4178429  78.0997925   9.4502316  62.0935020
  77.2408524  23.9977589  73.4059219  76.7743301  24.7481327  73.0377731
  76.6572418  23.2545490  73.2533722  63.3697701  35.9498024  55.5688705
  63.0895081  35.1127586  55.9390602  63.0732956  36.6031723  56.2024651
  28.9341106  16.7959423  78.4968033  29.4835873  17.4317226  78.9551620
  28.2456589  17.3228588  78.0910568  61.6400414  38.1380844  86.2026901
  61.4671364  38.3048744  87.1292496  61.9626617  37.2372398  86.1776199
  73.0852127  31.1541805  20.5521126  72.3301544  31.1789055  21.1399136
  72.9069901  31.8360996  19.9044590  64.4423981  62.3608551  36.8763084
  65.0171509  63.1197739  36.9759865  64.2725067  62.0697632  37.7722054
  81.9167938  63.2188950  42.7462997  81.7071838  63.9636269  42.1826782
  82.2625198  62.5559959  42.1485786  83.2888718  28.7224178  27.4886532
  84.2372131  28.7285480  27.6184731  82.9338455  28.4346981  28.3297272
  85.5677261  19.0616531  65.2967529  86.2295761  19.5518875  65.7844620
  84.9791641  19.7326431  64.9509201  78.5942078  12.9272528  51.6748962
  77.8034286  13.3979406  51.9382439  79.1369858  12.9110518  52.4631615
  76.1170120   6.7295794  78.6368179  76.4050903   6.2438102  79.4096527
  76.7976456   7.3887129  78.5007553  71.3959503   4.1179790  76.4465714
  71.8421173   3.3164418  76.7198944  70.8189240   4.3327308  77.1794815
  18.7466431  37.0049515   0.1923090  18.0025082  36.4506416   0.4273318
  19.2851868  36.4545250  -0.3762274   5.3659310  69.4109573  42.4298668
   5.8432393  69.6971512  41.6510811   5.7083392  69.9594421  43.1356659
  64.1451874  51.7796936   3.0111027  64.1642303  52.0695724   3.9231558
  65.0633011  51.7803078   2.7403708  28.8432350  33.8818893  23.2560501
  28.9764519  34.7668076  22.9163456  29.6374836  33.6954269  23.7566814
  42.1999664   9.7478266  63.8415565  41.7478104   8.9689093  64.1657104
  41.5119247  10.2697620  63.4287415  78.0765305  35.1088905  58.6025047
  77.2381210  35.3803291  58.2288475  78.5812759  34.7921371  57.8534164
  74.6619034  66.2335129  32.3625183  74.1658707  66.8131409  32.9406357
  75.5747681  66.4913559  32.4906921  68.3227386  48.2911453  67.2109528
  68.5907059  48.7491684  68.0075912  68.8736343  48.6647377  66.5230713
  13.3041105  67.0437164  20.6466064  13.7188139  66.2845535  20.2368202
  12.3961859  66.7744980  20.7859936  25.5942459  45.0382805  18.9053364
  25.3999805  44.4968719  19.6704311  26.4729023  45.3801193  19.0706825
  73.5983276  10.1747980  27.6480999  73.0455704   9.4347925  27.3969460
  72.9824600  10.8889360  27.8122368  10.3118353  44.3449593  71.4280548
   9.3952990  44.1011505  71.5574722  10.4878578  44.1365433  70.5105515
  19.9831047  44.1039696  66.6930618  20.7664280  43.5731239  66.5487137
  20.1562595  44.5687294  67.5117493  61.1122093  18.5973930  63.1590233
  60.6488953  18.0084705  62.5634193  61.0847321  18.1519146  64.0057983
  74.9381027   6.6908131  55.0862846  74.8565750   7.5866275  55.4135475
  75.8818817   6.5401759  55.0331993  65.5563126  29.9419537  61.3110847
  64.9317627  30.5032501  61.7705650  65.8725433  30.4796810  60.5850830
  33.0727348   8.5484037  53.9295959  32.4693565   8.7901478  54.6322517
  33.5776482   9.3443651  53.7630463  13.1240740   3.5349548  44.7683907
  13.4614840   2.6768744  44.5113220  12.3617096   3.3391747  45.3130951
  59.9970398  70.2688828  19.3666515  60.1576920  70.3438263  18.4260101
  60.4421883  69.4608917  19.6220341  74.4129868  66.6626358  45.9671021
  74.8282623  66.8721466  46.8036919  74.2941818  67.5108032  45.5396309
  16.3680229  56.0798416  23.5293808  16.2847481  55.6022148  24.3547096
  17.1346760  55.6939507  23.1056347  57.9278030  46.4726524  78.1027374
  58.4854622  46.4389839  77.3254929  57.1870651  47.0202141  77.8425217
  65.5554047  42.3395844  53.2818184  64.8734894  41.6698418  53.2301636
  66.3540955  41.8529663  53.4855881  76.8414917  67.8713379  81.3914795
  76.0093536  67.8825836  80.9185638  77.2422028  68.7172623  81.1912918
   9.4603672  13.3869514  50.3252945   9.7713270  14.1292562  50.8434830
  10.0298681  13.3765507  49.5560112   7.3035612  14.2764025  44.1301384
   6.5446091  14.1531258  44.7002487   7.6321621  15.1471806  44.3537407
   5.8899822   5.2046623   0.5726933   5.3405399   5.2072129   1.3564909
   5.5256882   5.8981194   0.0225667  76.0083389  43.3488770  46.0895004
  75.1988525  43.8541374  46.0141296  76.0438385  42.8319473  45.2846680
  84.7454987  34.1321945  42.9587440  85.6906128  34.2219200  42.8365173
  84.6037674  33.1896324  43.0466080  27.2942810  71.4139481  15.6688690
  28.1301498  71.2300415  16.0975113  27.5246620  71.5750351  14.7538776
  52.5281830   6.9032693  35.0875359  52.9277534   7.7728658  35.0680847
  53.2358780   6.3206139  35.3630562  66.1511230  31.2725563  74.2043686
  65.6386948  30.6243877  74.6876144  65.6020508  31.5011845  73.4543839
   0.8694015  40.5016479  63.6382980  -0.0057660  40.1400642  63.4984055
   0.7131774  41.3918037  63.9536552  70.1567154  14.9708309  31.2724762
  70.7827911  14.4685612  30.7509575  69.6265106  14.3075953  31.7143307
  79.8454361  18.4590950  74.5904388  79.7496872  19.4114380  74.5801697
  79.6537857  18.2088375  75.4942474  37.3663254  31.2677212  19.5712452
  37.3982124  31.4308834  20.5138969  38.2810631  31.1421375  19.3188305
  19.8275776   4.1201196  61.4384766  19.3830128   3.3216298  61.7230949
  20.0132084   4.5930514  62.2497139  50.4957008  21.9983540   1.9094057
  50.9946175  22.7372952   1.5611541  49.7325630  22.3993912   2.3253720
  22.5242462   9.4788380  70.9293289  23.0648327  10.1067896  71.4085693
  22.5296993   9.7978096  70.0268555  55.7359772  12.9601355   9.8244982
  55.5918312  12.9378967   8.8784752  56.3217583  12.2225399   9.9949236
  61.4466705  61.8863907  39.0964165  61.7717743  62.7604256  38.8805351
  62.2358055  61.3509789  39.1790581  53.2273788  38.3118095  56.2603836
  52.9720917  37.4889832  56.6775436  52.4715614  38.8864746  56.3817673
  14.3419180  60.8480148  75.7922211  13.4187040  60.5953941  75.7827606
  14.3347359  61.7724991  76.0402374   0.8039919  62.6273499   3.7702668
   0.5706578  63.1525803   4.5357189   1.6238128  62.1982040   4.0151329
  60.3655739  58.8874931  49.0008850  60.6082497  59.1221237  49.8965912
  60.2835732  59.7264481  48.5473824  65.8225479   5.9876575  69.1831207
  65.8476944   6.3488603  68.2970428  66.6030045   6.3426213  69.6087036
  29.1559639  20.1260529   1.3185973  29.5083408  20.8208256   0.7624019
  28.9795380  19.4033546   0.7162577  48.0224457  40.2884445  84.4882660
  48.0122566  41.2353401  84.3485641  47.9371223  39.9159317  83.6106644
  62.5747490   8.9211283  17.5399036  63.5226898   8.9088011  17.4076500
  62.2685280   8.0999403  17.1550541  85.8159256  25.9010124  26.7028389
  85.9922485  26.6141033  27.3165512  84.8965378  25.6795025  26.8507977
  73.4586334  55.3887253  17.7889938  73.3227463  55.3442917  18.7354584
  73.3040314  56.3070679  17.5676823  41.1676216  30.6119194   8.3331976
  41.3685722  30.8446445   7.4267268  41.5523987  29.7430592   8.4483442
   6.0577669  36.7227325  41.7376328   6.4583988  36.9420052  42.5788498
   5.4466014  36.0145988  41.9407501  59.2555656  28.6964741  75.7891312
  59.7338982  29.0938015  76.5168381  58.5049324  29.2743664  75.6519547
  80.7977448  47.9269867  83.6179504  81.4011688  48.4954453  83.1394424
  80.9147339  48.1721230  84.5358047  52.8786278  68.4223175  79.7720337
  52.4358215  68.7743454  78.9998703  53.0038681  67.4942398  79.5740051
  85.7808914  70.5964050  78.3097458  85.3217010  70.5887985  77.4699097
  85.3832016  69.8814468  78.8066406  40.1433907   7.6498957  32.8283310
  39.2826309   7.6706557  33.2465363  40.4467812   6.7501383  32.9492455
  82.7463379  66.2334213   1.5846025  82.2770844  66.3783035   0.7629937
  82.5318146  65.3326950   1.8273259  43.5890541  50.2047501  38.5988884
  43.9916306  49.6789894  39.2900734  42.9561081  50.7579689  39.0566673
  24.3980160  63.5642586  62.6756592  23.6204395  63.1809731  62.2698288
  24.1506557  63.6949730  63.5910606  84.1713638  15.8978443  36.2914810
  83.5477829  16.3996487  35.7665329  83.7240295  15.7582159  37.1261215
  53.9229507  60.5726433  49.4870491  53.3335381  61.2889328  49.7231789
  54.7947807  60.9677391  49.4938393   7.5429893  18.5599918  29.2094154
   6.7509427  19.0440998  29.4429417   7.5208616  17.7816601  29.7661381
  82.5903473  50.6261330   1.1647974  81.6723404  50.4797020   1.3929563
  82.9421768  51.1297913   1.8988121  35.1206970  58.1844482  78.6841965
  34.3230820  58.3887100  79.1723785  34.8195152  57.6611519  77.9414444
  84.7872238  40.4510880  17.0301838  84.6603165  41.3875313  17.1824913
  85.4903564  40.4069443  16.3821983  50.8485298  38.4237289  84.9394684
  51.1184082  39.2639198  85.3102493  51.2951889  38.3805046  84.0939789
  33.5777092  53.8769302  38.8232613  34.1587791  53.7414856  39.5717583
  33.6596947  53.0743637  38.3080902  51.3396645   5.4672499   1.2599235
  52.2627335   5.2413383   1.3745635  50.9191132   4.6416898   1.0194722
   9.7787628  58.9015427  62.8169937  10.1855240  59.7054176  63.1403503
   9.1610641  59.1978073  62.1484833  32.5388489  50.8656006  87.7108765
  32.1188240  50.1850471  87.1848907  31.8119049  51.3808670  88.0605621
  47.6081810  54.0054893  42.9060898  47.6225014  53.4632225  43.6947403
  48.0196762  54.8274498  43.1730843  48.3568344   2.3908174   5.8497086
  48.8882446   2.3063805   5.0580626  47.4621925   2.4995203   5.5271645
  79.9997635  46.3283653  80.1775208  79.1724625  46.6308174  79.8029022
  79.7461472  45.8662224  80.9764786   3.0766032  49.7462006  28.3701897
   2.8060713  50.1343155  29.2023010   3.7146244  49.0758667  28.6147594
  81.2534866  61.4871101  19.5648708  81.7848740  61.3837204  20.3542824
  81.5162659  62.3358421  19.2087269  11.2439461  51.7779160  44.2340508
  11.0914888  51.9920692  45.1544456  11.5074768  50.8577461  44.2427139
   3.0034416  54.9088287  58.8936195   3.3564775  55.3979797  59.6368065
   2.1753118  54.5512428  59.2138748  58.6889801   5.8134432  66.3759613
  59.1305275   5.1768851  65.8137665  58.7248764   6.6334467  65.8834839
  27.1437607  57.3562584  59.7089539  27.5627632  57.9214058  59.0598984
  27.0782604  57.9004211  60.4937019  27.7568359  32.9968910  74.7666779
  28.5912495  32.6698151  75.1028366  27.4144154  33.5477600  75.4706116
  57.2786026  20.1215248  81.1609192  58.0393677  19.9364395  80.6102753
  56.6201477  20.4595318  80.5539398  27.9235477  61.0888901  16.8510590
  27.5632896  60.2237511  16.6561623  27.9209709  61.1396294  17.8069096
  68.4172134  14.3755884  23.7151909  67.7447205  14.2685261  24.3878860
  68.3772583  13.5662775  23.2056293  30.2948933  67.1286621  48.5766869
  30.3895493  66.6847000  47.7339706  31.1904621  67.2167435  48.9029274
  65.7193527  15.0710630   3.8443074  65.4428024  15.8074770   4.3896956
  65.8404007  14.3487549   4.4606266   7.2147508   2.1097810   3.3845389
   6.6092134   2.5246994   3.9988670   7.8997731   2.7636132   3.2449703
  52.5993385  26.6284351  12.3522234  53.3625717  26.1707916  12.7047405
  51.8749619  26.0145416  12.4732456  26.2579937  18.4688091  13.4707003
  26.3171349  19.0438080  14.2336607  27.1681690  18.2879696  13.2359457
  39.0715179  33.5184669   3.9193270  38.8852501  32.7367554   3.3992660
  38.2849503  34.0569801   3.8324351  50.5953445  49.3584404  89.1829910
  50.8170967  49.7074318  88.3197098  49.6924858  49.6400871  89.3305054
  56.7091331  25.8361015  24.7288265  57.4001923  26.1334381  25.3206520
  56.1029625  26.5751572  24.6779537  60.7568016   4.5097466  13.7620001
  60.9255753   5.3772497  14.1296759  60.0044899   4.6368194  13.1839762
  23.1940327   4.8629260  10.1097918  22.8056355   4.2829986  10.7648211
  23.9368973   4.3689132   9.7628975  15.6555319  41.5267677  69.3406219
  15.3432026  41.0395699  68.5781784  14.9987679  42.2103004  69.4735794
  28.6027851  66.0709229  62.0725365  28.0510387  65.3060150  62.2359810
  29.4452648  65.7053070  61.8027534  40.1133957  52.8097649  22.6606731
  39.6437454  52.1931229  23.2222881  40.5630875  53.3945618  23.2706089
  35.0413513  50.7606888  18.9588051  35.9337273  51.0576897  18.7807903
  35.1169319  50.2415810  19.7594604   4.8368998  39.0499916  26.6543236
   5.4406991  38.6752930  26.0130310   5.3511524  39.1130104  27.4591885
  71.6494675   9.0833454  41.6896667  71.6093979   9.5315266  40.8448257
  71.6220398   8.1524506  41.4685020  72.0207596  34.5998306  14.8796883
  71.7405396  35.4364128  14.5084267  71.3434143  33.9794044  14.6104164
   4.7165542  52.6630173  57.9173775   3.9673655  52.8619270  58.4789696
   5.2757893  53.4372559  57.9809608   6.4294381  14.6895227  19.8635330
   5.8430595  15.0264759  20.5409203   6.4123969  13.7399216  19.9826927
  12.6089754  48.3147583  84.5402679  12.6429749  47.3588753  84.5033798
  11.6793671  48.5249596  84.4515228  -0.0392283  50.9542198  52.2191887
   0.6293355  50.9488144  51.5341873   0.4451444  51.1329231  53.0252151
  24.6024837  46.0239372  25.6242542  25.4864407  46.1161537  25.9797096
  24.6033173  45.1659966  25.1997890   9.6062250   5.1179876  43.3552094
   9.5123806   4.2679167  42.9253197   9.4023123   4.9453669  44.2743683
  12.3830652  64.1575928  69.9508286  11.8746262  63.8851624  69.1869507
  13.2938175  64.1176758  69.6589890  17.0024910   8.2624712   8.9094706
  16.9995422   8.7898149   9.7083025  17.9179726   8.0079994   8.7938423
  29.7544174   1.8409150  21.3540726  29.5762653   2.0903916  22.2608547
  30.1127720   2.6330767  20.9537067  33.9106293  25.3623848   6.1052847
  33.8933258  24.9680405   6.9773083  33.6024017  24.6684570   5.5224547
  31.9048176  18.4995861  22.2289906  31.6611214  19.2232151  22.8062305
  31.6528244  17.7125702  22.7120419  59.2623787  13.7841349  54.2262878
  58.9401436  14.5555878  53.7601776  60.1755257  13.9895258  54.4268036
  59.6797447  33.2819557   1.4497223  60.3091965  32.6796570   1.8462785
  58.8993416  32.7483406   1.2998565  44.8482056  12.0630178  76.2619629
  44.8457794  11.9237385  77.2089691  43.9220924  12.0913591  76.0216675
  11.4686689  12.9338903  44.0024605  10.9009266  13.6838245  44.1799393
  11.8849649  13.1413288  43.1658630  78.0864716  35.6809845  80.1009216
  78.8983917  35.7322273  79.5965424  77.4015579  35.5696182  79.4415894
  84.8964691  42.6548500  37.8990822  84.1728134  42.1300316  38.2413216
  84.5351486  43.0842133  37.1236267  41.8686752  47.7867317  64.4553757
  41.9072609  48.5587234  65.0199738  41.0891762  47.3146057  64.7481384
  11.6874161  60.2908096   5.8894224  12.5733995  59.9305649   5.9279995
  11.8119326  61.2386360   5.9379191  47.4595070  65.2192841  51.3666229
  47.5977020  65.6750946  52.1969070  46.6404305  65.5810165  51.0282478
  58.3516655  14.7109623   8.0713329  59.0861855  14.5956812   8.6741743
  58.0246086  13.8241978   7.9199519  10.4705534  29.9851398  25.5167789
   9.6323872  29.7728176  25.9274235  11.0386553  30.2330112  26.2461967
  19.4994259  11.9147120  23.2262688  20.3734875  12.1724815  22.9333496
  18.9342899  12.0853882  22.4727955  81.3254623  29.2638111  37.4039383
  82.2015533  28.9572601  37.1700096  80.9315186  28.5280914  37.8727226
  54.2198563  36.9605103  82.3619995  54.7816544  37.5763512  81.8915100
  54.6533966  36.8379555  83.2065430  20.9668236   6.7541761   3.6992562
  20.1340389   6.3655624   3.9669905  20.8566971   6.9372978   2.7662125
   2.2914746  10.2584515  61.9917603   1.7358406  10.5973063  62.6936722
   1.6852900  10.0741196  61.2742691  43.7731972  68.5367126  35.7305527
  43.3784103  68.7065506  34.8752556  43.0488281  68.6235886  36.3502045
  21.3433361  48.1389656  35.8840523  21.7455254  47.2860298  35.7198029
  22.0782700  48.7124634  36.1013145  16.8678684  24.2421227  16.1673565
  16.3931789  23.6002617  15.6392298  16.2103405  24.9002800  16.3925629
  25.6626110  44.5553627  75.9255753  25.8275814  43.9723358  76.6665878
  25.9471493  45.4168663  76.2306747  84.1916809  28.9197521  84.2242432
  84.1026611  28.2130680  83.5847931  85.1331329  29.0874214  84.2664108
  71.5280914   6.4956923  85.6673965  71.1938019   6.5471420  86.5628510
  72.2260971   5.8420568  85.7095108  59.8893089  39.5653877  42.1994858
  59.3803864  38.7760582  42.3843918  60.5987434  39.5489159  42.8418732
  51.4404526   6.0236063  75.6980972  52.0713768   5.6415982  76.3082047
  51.7060852   5.6923528  74.8402252   4.9801884  40.5044289  64.9066391
   4.2467699  39.8919907  64.8496552   5.5206356  40.1651802  65.6201172
  85.7006989   1.4081942   3.9379721  86.4023895   0.7870527   4.1330180
  85.7372131   1.5202564   2.9880559  57.1082268  65.6345978  74.4562683
  57.9992332  65.3319702  74.2808762  57.0942841  65.8053055  75.3980255
  83.3856506  69.8777466  11.5055571  84.0366364  70.0654602  10.8293867
  83.4456863  68.9319153  11.6398506  22.5081005  44.3726082  14.3735580
  21.9729900  43.5858307  14.2693005  23.4021530  44.0791855  14.1980438
  23.5969734  58.4089699  39.1594963  23.0656281  59.0997238  39.5554314
  24.4988403  58.7140007  39.2586021  60.4592857   6.4102030  50.6414299
  59.5398941   6.4253917  50.3754997  60.9324570   6.7628775  49.8877983
  52.4608116  23.5792561  11.3212166  51.6883965  24.1185322  11.1515398
  53.1357841  23.9400196  10.7463284   9.6457005   1.4553685  82.8559265
   8.7638655   1.2321030  83.1538391   9.5094423   1.9146014  82.0272141
  59.3391418   2.9652777  32.5562325  59.9016762   3.7382724  32.6038361
  59.8180008   2.3547258  31.9957390  33.0503998  58.4997597  80.4476624
  33.2934837  58.3237839  81.3565979  32.7548866  59.4101982  80.4507294
  19.9364491  46.2950401  72.0890350  19.7033730  45.4363556  71.7360916
  19.1785126  46.8469696  71.8963242   0.6150861   8.0001965  86.8112030
   0.0374701   8.3298111  86.1227646   0.6292551   8.6978903  87.4663773
  81.7281647  40.5557213  41.5596581  81.4344254  40.8298264  40.6908569
  81.9028397  39.6189766  41.4689445  16.6691895   1.4850883  27.8938923
  15.9235010   2.0324922  28.1399212  16.8799744   0.9959535  28.6892223
  46.0715675  23.0853348  72.6287384  46.1498108  24.0256329  72.7898254
  45.1379852  22.9464970  72.4694290  21.9640121  66.3665695  64.0326157
  21.4498444  65.7262115  63.5408859  21.5936947  66.3443527  64.9150009
  20.2069569  43.0592155  26.7675381  21.1090870  43.3045349  26.5620918
  20.2893639  42.2701759  27.3031311   4.0847168  55.6023827  17.9665241
   4.8905520  56.0837784  18.1539326   4.2007861  54.7604294  18.4068375
  14.0593996  25.3622150  60.3961411  13.2241211  25.3789997  59.9289589
  14.7184839  25.2890167  59.7058678  20.7873516  66.7103958  66.8105621
  19.8315144  66.7082520  66.7595520  20.9818916  67.1440277  67.6414337
  34.1299782  64.2503204  29.1496754  33.7635956  64.9094620  29.7391968
  35.0747528  64.4011612  29.1792965   4.9373150  45.0839272  77.5955505
   4.3509789  45.8167839  77.4075089   5.7213292  45.2653694  77.0772552
  40.8958588  12.3327875  77.3756027  40.8323059  12.6506224  78.2762527
  40.2423820  12.8413830  76.8954620  68.9380646  21.6127415  52.1831741
  69.7020874  22.1040001  51.8812523  68.4351273  21.4392052  51.3874550
  10.0396385  49.5987320  50.8114395  10.6693249  49.9005928  51.4661179
   9.6387653  48.8233757  51.2043228  54.7436180  61.0740318  13.2525578
  54.3551598  60.2311401  13.0183268  54.0081902  61.6866837  13.2463551
  82.1655960  65.1580353  10.8886080  82.1759109  64.3470917  11.3970346
  82.3881378  64.8854752   9.9984312  55.0230904  40.9784126  84.2796402
  54.6931229  41.6038742  83.6345444  55.9629021  41.1543121  84.3248596
  69.3524628  34.6986046  17.3314819  69.0855560  35.2697906  16.6112480
  70.1280594  35.1226807  17.6986885  49.5496445  53.7457657  12.3830061
  50.3378105  54.2031822  12.0900965  48.9264221  53.8588562  11.6653442
  17.8975983  15.6538944   6.4745264  18.0045490  14.7138796   6.3290477
  18.1463261  15.7844696   7.3895764  52.2165298  60.7986259  42.8460388
  52.9687576  61.1776581  43.3007050  52.2677612  61.1556587  41.9593964
  75.4116592  14.6587868  37.9973068  75.9232178  15.4299603  38.2419090
  74.8311157  14.9672747  37.3015785  85.0673294  22.3819904  79.2911682
  84.8395386  23.2719803  79.5599823  84.6933289  21.8229618  79.9722290
  22.1057606  20.2958984  77.1870728  21.6036129  20.3595467  77.9994965
  21.4450169  20.1672077  76.5065689   9.9053593  47.0045700  43.7664185
  10.1397886  46.4756775  43.0038261   9.0536165  46.6647987  44.0408630
  68.0010223   5.7588048  81.5410080  68.4689560   6.2406454  82.2229919
  68.5657501   5.0110273  81.3456955   7.7837195  59.4677544  47.0756607
   7.3854938  59.8327408  46.2854500   8.0202131  60.2328529  47.5999947
  27.3209915  10.1127329  37.5396080  26.4068737   9.8924103  37.7187080
  27.5933418  10.6360636  38.2933884   2.4865949  16.1126652  10.1480761
   1.9899002  15.3364277  10.4068832   3.0795991  16.2732944  10.8820896
  79.8397827  60.2268753  59.8545532  78.9795074  60.1839256  59.4370461
  79.6641541  60.0676193  60.7819290  12.1144857  38.4495430  18.0653019
  12.0961637  38.7997856  17.1746674  11.1995602  38.4618034  18.3463573
  20.6836319  20.4373951   5.2783165  21.6285172  20.3160191   5.1850848
  20.5764999  21.3765888   5.4288812  18.0992222   5.7168446  40.1468391
  18.0154800   4.7760744  40.3023109  19.0433044   5.8740897  40.1322403
  28.0650311  49.6290398   4.9452806  27.9129219  49.2682915   5.8187537
  27.3028641  50.1837921   4.7792010  16.2580547  56.7113762   9.8684549
  17.0556850  57.1490326   9.5710030  16.5312920  55.8118095  10.0483274
  64.9783707  12.5030460  19.7812233  65.4573059  13.3086090  19.9759655
  65.4967651  12.0749674  19.0998631  66.2587433  51.0038834  81.9712906
  66.1082611  50.6209450  82.8355484  66.4198456  50.2521858  81.4010010
  76.2281570  26.2181911  71.6477051  75.8462982  26.9854584  72.0739899
  77.1263428  26.4793262  71.4444504  14.2176142  48.5365448  71.2619629
  14.5477934  48.9251289  70.4518967  13.9290638  49.2838783  71.7858582
  78.0856934  13.2995281  45.8614044  78.8551407  13.3872213  46.4239845
  77.7226944  14.1838779  45.8125153  32.4972458  64.6059647  67.8803940
  33.4033775  64.5736542  68.1871719  32.5330658  64.2555695  66.9903564
  34.9088058  65.6401901  74.7873917  34.4527016  65.3589478  73.9942322
  35.8356285  65.5009842  74.5928345   3.0492496   0.8230400  79.8606415
   3.2890141   0.2414782  79.1391602   2.1736126   0.5355345  80.1191635
  14.7368517   8.7984324  44.1912956  13.8965464   9.2554436  44.1558151
  14.5773516   8.0479393  44.7636185   2.6127570  42.1070976  54.6646233
   1.9992262  42.5853386  55.2223854   2.8336177  41.3236542  55.1682777
  42.4699059  55.4816399  88.0053406  43.1551781  56.1474190  88.0633698
  42.0858955  55.4561462  88.8817596  51.3459930  29.8896446  15.8497219
  51.8327255  30.2818394  16.5746403  51.9888153  29.8099346  15.1449814
  76.9665451   6.5684958   8.4509687  76.3067932   5.8914847   8.3005934
  77.0424805   6.6215224   9.4036779  47.8767509   4.0090361  34.2629128
  47.5170135   3.5210471  35.0036469  48.7390099   4.2974563  34.5621758
  28.2926006  20.2054100  19.5444851  28.2514744  19.7293167  20.3738670
  27.8976364  19.6105499  18.9070072  42.4839783  67.1376648  52.5247498
  42.3308868  66.3257828  52.0413780  43.0879707  67.6346512  51.9730034
  72.6402664  26.0288963  43.0365753  73.4777527  25.5692539  43.0963020
  72.0167999  25.4484196  43.4731178   0.9123027   9.0756426  45.5979996
   0.4734433   9.1860704  44.7545280   1.2106380   8.1661253  45.5955048
  21.2337589  47.5451355  13.2722054  21.2236977  47.1444016  14.1414242
  20.3096600  47.6382027  13.0406599  50.3420067   5.8070917  68.5289536
  49.9197998   5.4225159  67.7607880  51.1999702   5.3844252  68.5674438
  71.3169556  64.6283035  52.8526840  70.8189240  65.4243317  53.0385056
  71.4940567  64.6704712  51.9129562  55.3684235  65.4197388  64.3241959
  55.4021988  65.3897018  63.3680649  55.4935074  64.5107880  64.5969543
  62.7343140  33.2468491  56.5111389  62.3887711  32.7454338  57.2496605
  62.8150902  32.6068382  55.8039703  38.5742531  36.3725357  85.3777847
  38.9754295  35.7908401  84.7320862  39.2823486  36.9586830  85.6447372
   6.2291188  39.7026596  78.2390060   6.7960448  39.8292694  78.9997940
   5.6127143  40.4340706  78.2752762  52.9098053  67.1721649  34.3259392
  52.3336372  66.4389954  34.5420952  53.5313454  67.2107315  35.0528755
  67.2563171  15.9614468  81.2680969  66.3414688  15.9694376  80.9866409
  67.2782974  15.3372955  81.9934769   2.0504799  21.2422352  35.3437119
   1.3119012  21.4429646  35.9185524   2.4365630  20.4501343  35.7175369
  46.9936447  62.4905777  25.0052757  47.3587723  62.0542831  24.2354946
  46.1974258  61.9980850  25.2045650  47.4104652  16.7331161   0.5002241
  48.2208290  16.2242279   0.5242028  47.3143272  16.9872894  -0.4175914
  54.3471489  62.4485779  32.6252022  55.1128464  62.8958588  32.9855957
  54.1174393  62.9563141  31.8469563  62.6207542  56.4133759  58.0045738
  61.8258781  56.4716721  57.4744720  63.2650719  56.9372749  57.5285339
  32.4019241  24.1250401  28.3471127  33.1503716  24.7007351  28.1901665
  32.7906723  23.2652512  28.5079517  71.5475693  40.0117722  54.7365150
  72.4338608  40.3732567  54.7295074  71.3011856  39.9995613  55.6613808
  33.3278656  37.9607506   2.8464079  32.5676880  37.4594536   3.1414669
  32.9564247  38.7533875   2.4591200  81.9067078  33.7859230  84.6732178
  81.9076614  34.2409439  85.5153503  82.4429474  33.0069771  84.8212509
  54.4918556  58.9024658  41.7971992  55.1838646  59.4446983  42.1758003
  54.1036644  59.4510155  41.1155586   1.6908959  70.4954071  82.3362350
   2.4084821  70.4022293  81.7096405   1.9806702  70.0067902  83.1066284
  78.6323776  26.3210926  52.5924606  78.4738388  26.6904621  53.4611778
  78.9739914  27.0534821  52.0794907  40.5540695   8.2376728  79.6836624
  41.0221176   8.8796968  79.1498413  39.6755676   8.2060919  79.3048859
  65.4909286  23.4890022  50.6558266  66.3528748  23.8398418  50.4318008
  65.2831345  23.8861141  51.5016174  54.3731499  27.8615570  24.1060371
  53.7698822  27.9226017  23.3653793  55.1157722  28.4113121  23.8560143
  55.8105392  25.6811390  29.3943272  55.0869637  26.3039188  29.3249607
  55.7554398  25.1597919  28.5934563  60.9214439  35.1252594  51.3790855
  61.7663841  35.0259018  51.8177643  60.7581787  36.0684166  51.3845634
  48.2283096  48.1734619   5.9049892  47.4816208  48.5978699   5.4824171
  47.8391876  47.6340752   6.5933771  13.1916733   2.0181205  80.9841309
  13.0338516   2.9581103  81.0721283  14.1351233   1.9205596  81.1130295
  24.8037338   6.6390753  27.3881435  24.9228344   5.6897793  27.4178677
  24.0618820   6.8057146  27.9696255  64.0044708  18.5806046  42.1502991
  64.5411453  19.0113659  41.4849777  64.0311813  17.6529522  41.9158249
   3.1392398  61.0040016  43.9606934   2.9180155  60.5229683  44.7581253
   3.3226810  60.3231468  43.3133774  83.8728485  35.8624191  28.2121372
  83.3249359  35.2436218  27.7293167  83.3815079  36.0426178  29.0136032
  73.3158493  18.0725346  69.4665985  74.0313416  17.9540997  70.0913162
  73.5763168  17.5567017  68.7035065  86.7633972  44.2580910  39.2581596
  86.2368317  43.6481934  38.7414436  86.2012100  44.4942436  39.9960022
  42.6255455   3.9490805  79.4996262  43.1524429   3.2556269  79.1024704
  41.7253761   3.7372308  79.2525558   9.8135328   0.1971743  55.8599625
   9.2426872  -0.0981762  55.1506424  10.3457422   0.8888738  55.4668503
  74.8424072  63.3980103  67.3816071  74.6291351  63.5638504  66.4633179
  75.2110519  64.2239838  67.6948166  59.5897522  50.0925674  13.5339956
  59.7750626  50.8297157  14.1158066  59.0495262  50.4666977  12.8379974
  66.3420181  34.4434738  35.5094986  66.4113235  34.3224525  34.5625114
  66.3530502  33.5551758  35.8659210  71.0864944  64.5609131  19.4969864
  70.9854431  64.6672745  20.4428768  71.7585983  63.8859711  19.4023094
  65.4760513  69.2156906  67.9982147  65.4085083  68.4283218  67.4581070
  65.8358765  68.9058685  68.8293381  47.8715782  59.1479111  74.4748611
  47.4972343  59.0191536  75.3463669  48.5174637  59.8445511  74.5921555
   2.2539947  10.1166420  78.1171341   2.1588919  11.0665102  78.1874084
   2.0095365   9.9176693  77.2133179  62.4737778  56.8229828  41.4016800
  62.6457977  56.3951950  40.5628510  63.3385506  56.9296188  41.7979469
  60.0446396  44.2361641  59.1132927  59.5111694  43.6024399  58.6336784
  59.6993980  45.0888214  58.8486824  38.7197151  54.8707542  69.4228287
  38.2803001  55.6913643  69.6458664  38.0154686  54.2233315  69.3895035
  69.4752502  49.5015259  48.8212204  69.8254852  50.2600327  48.3540649
  68.5451050  49.4897804  48.5955467  84.0185318   3.6286757  25.3562546
  84.5868835   2.8603966  25.4106503  84.6123352   4.3521647  25.1557674
  24.1918201  28.6769485  72.2617188  24.6354485  27.8361454  72.1500168
  24.6545906  29.0975018  72.9864349  46.7189865  58.3827553   9.4861164
  46.2415276  59.1497154   9.1698284  46.4464912  57.6739044   8.9034424
  74.5355911  67.2842026  57.3390198  75.1176300  66.9446793  58.0188599
  73.8555756  66.6163940  57.2504654  59.3318977   9.3329430  56.2545357
  59.7717285   9.7467918  55.5119019  58.4096451   9.3024797  56.0000610
  82.2951508  42.7864685  49.3193207  81.7735977  42.9048691  48.5254669
  82.8492966  42.0290298  49.1310730  77.6014328  42.8650932  15.9761896
  76.9034348  42.2549400  15.7379761  78.2310028  42.8009987  15.2580261
  80.6142273  36.6053963  76.8099594  81.3272552  36.2429276  76.2841797
  80.6158829  36.0802727  77.6102524   9.4794807  62.6447868  52.9107857
   9.6876163  63.5238838  53.2271729   8.6820946  62.4031944  53.3819962
  75.6254883  71.0044250  55.2330933  76.4984512  70.9771423  55.6247978
  75.0347214  71.1403809  55.9738655   1.7779975  37.3946915  21.3529720
   1.8528615  38.2993927  21.0494270   2.6126566  37.2178040  21.7868919
  80.9694214  16.6553726  66.4626770  81.3518066  15.8996143  66.9085922
  80.0883789  16.7293549  66.8294449  57.8362999  48.3379593  20.9876957
  58.2998123  47.6732101  20.4782867  57.2755432  48.7802315  20.3503723
  19.4170818  68.1757202   6.1283984  19.6617947  68.5956497   5.3037720
  20.1879959  67.6647186   6.3749685  17.6582260  30.4774246  54.1224289
  16.8439808  30.3709850  53.6305885  17.6642170  31.3995571  54.3790779
  17.5768623  14.1546564  37.4110146  17.2451134  14.7783861  38.0568733
  18.5203800  14.3140793  37.3867264  86.5600662  37.2182388  35.4607353
  86.2049942  36.3611374  35.6963921  87.4659500  37.1952209  35.7690735
  16.4576855  50.3475723  46.5253944  15.7677631  50.8853493  46.1367645
  15.9942274  49.7527847  47.1150246   2.9894881  37.6667137   1.9630263
   2.7287030  36.7582207   1.8118283   3.7899797  37.6025925   2.4839232
   2.4674459  64.7360077   1.8689594   3.0746982  64.0333099   1.6372398
   1.6307254  64.2928543   2.0094819  19.7726879  40.6797371  28.1178799
  19.2232742  40.7993851  28.8925171  19.2524929  40.1224365  27.5390511
  36.1495667  37.4294243  77.4734192  35.6597900  37.2631607  78.2788391
  35.4850388  37.7030449  76.8411484  32.9041672  56.4384651   2.5772052
  32.6623993  55.5139465   2.6324103  32.3292313  56.7964020   1.9007726
  12.7690248  18.4373207  84.3482819  13.2006865  18.7219925  83.5427628
  13.4842644  18.1425819  84.9120178  45.3690033  21.8098526  14.5252008
  44.9524879  21.0923843  15.0026770  44.6409340  22.2876854  14.1279335
  66.1490402   0.6129132  29.0354691  66.5059204  -0.1160999  29.5428219
  66.3888168   1.3929468  29.5357533  74.6047668   7.1584344  68.0701523
  73.9909897   7.8684607  67.8820801  75.1807022   7.1310229  67.3060989
  71.4229431  63.6749687  55.2594109  71.5309753  62.7247810  55.2180557
  71.4610138  63.9603081  54.3465233  64.1417465   8.5392599  84.9736862
  64.1335220   8.4900703  84.0177841  63.7614517   7.7086596  85.2595367
  43.2913895  70.6449585  72.7427368  43.8154221  71.4406967  72.8345261
  42.4052505  70.9608078  72.5660095  83.0939178  60.3622360   5.9800863
  83.0416336  59.4113884   6.0769734  83.4928207  60.6645546   6.7959995
  82.9702682  41.0852318  83.2639084  83.9056244  40.9471893  83.1146393
  82.8961945  42.0159531  83.4748764  48.4644165  23.2004852  11.7580805
  48.7852631  22.9125156  12.6126938  49.1902657  23.7015266  11.3861446
  64.1923523  63.5735741   6.0228744  64.4938126  64.2006378   5.3655028
  63.8018150  62.8627586   5.5144868  34.4100533  40.6076469  76.4679413
  33.7383423  39.9355240  76.5832138  34.9013100  40.3254700  75.6964035
  26.3883190   1.0426505  39.0488129  25.6722202   1.6775740  39.0313148
  26.1056957   0.3801848  39.6792870  49.4370651  63.8635979  19.5725346
  49.6944122  64.7726364  19.4187431  49.6105690  63.4216576  18.7413807
  46.8941002  49.0271797  60.4003029  47.1428795  48.1033096  60.4286308
  46.2320862  49.1180840  61.0856514  62.6268120  44.8822441  76.1411514
  63.4422646  44.3810349  76.1335449  62.3356857  44.8798332  75.2293015
  67.6919861   5.0271177  59.8930397  66.7951050   5.3540816  59.9632530
  67.8932800   5.0787554  58.9586716  17.9887390  68.3753586  11.1205645
  18.4915981  67.7804413  10.5642872  17.3197231  68.7380981  10.5399885
  64.1328964  17.2734394  27.3059273  63.7573433  18.0800190  27.6589394
  63.5553932  16.5803204  27.6257744  65.4115829  46.2244492  45.4616623
  64.7138672  46.8795052  45.4796104  66.0607452  46.5487976  46.0858650
  65.4049377   0.6247427  44.1320229  65.4013977  -0.0656779  44.7949982
  66.2003250   1.1258332  44.3123016   0.6514573  46.1002045  20.2515049
   0.8996449  46.4356842  19.3900585  -0.2342310  45.7583504  20.1293373
  71.2611465  11.9271221  51.6839180  71.9149246  12.6036310  51.5074463
  70.5843048  12.3747654  52.1915894  44.1709595  43.7627602   7.0619950
  43.7881470  43.0822525   7.6157088  44.9513474  43.3550873   6.6864557
  86.9497757   8.8224430  12.4143505  86.8547058   8.2620163  13.1844893
  86.1749878   8.6348505  11.8845053  31.1080132   3.8052678  84.0077820
  30.9200859   4.3924074  84.7400208  31.8994656   4.1662450  83.6083603
  51.9381294  40.9615784  32.1677399  52.1608200  40.1037903  31.8060169
  52.7786903  41.3357582  32.4316978  68.3411713  17.6739273  20.4952679
  67.5810394  17.8007240  21.0630264  67.9873657  17.2529602  19.7117901
  53.8270149  48.6676331  45.7982521  54.4751091  48.5557022  45.1027832
  53.2355194  47.9219437  45.6967087  17.7831879  43.0819054  30.6621208
  17.1418800  43.2023277  31.3624477  18.3562622  43.8457451  30.7281971
   4.1618118  47.5529251   6.9896746   5.0076718  47.1265831   6.8518896
   3.5254028  46.9544754   6.5984297  17.3096199   8.1189280  62.1041451
  17.2286568   8.9741154  61.6818542  17.8859558   7.6196780  61.5255127
   4.8752384  59.1165848  81.3351898   3.9969306  59.3178558  81.6581345
   5.3713942  58.8835564  82.1198883  34.3145065  67.1977158   6.6562266
  35.2696381  67.2595749   6.6676059  34.1329422  66.2687531   6.7986999
  54.5470467  67.5963821  54.9513512  54.6151772  66.6659546  55.1655998
  55.1938210  68.0200806  55.5156174  60.3679581  15.6205931  57.6003456
  59.9379501  14.9206190  58.0916328  60.7470093  16.1869946  58.2724648
  56.5370903  10.6414022  70.0137024  56.3681412  11.5621738  69.8140335
  56.1060181  10.4959469  70.8558731  12.6976070  58.0637741  68.3426361
  13.3471432  58.7562180  68.4645157  12.9042454  57.4196510  69.0198593
  50.1181297  56.6174393  85.5386887  50.8280106  56.6945839  84.9012299
  50.1427765  57.4412460  86.0254745  20.3881702  68.1441422  44.0775108
  20.2834511  68.5984650  44.9134903  19.6735744  67.5075302  44.0597267
  79.3352661  19.1693325   2.4219320  79.4780273  18.2828674   2.0902209
  78.8058395  19.5950241   1.7475992  82.2575836  18.4300213  36.2475891
  81.8477020  19.1051941  35.7068748  82.5106812  18.8866348  37.0498848
  42.6406631  71.1840897  18.7190037  43.4316559  70.7783203  18.3641605
  41.9211121  70.7288895  18.2816544   9.0808878  61.5993080  16.5295029
   8.1433249  61.7657051  16.4319305   9.4283371  62.4043503  16.9134502
   3.0943236  28.2024155  80.1719131   3.2898061  27.4423504  80.7199249
   3.0754676  27.8559818  79.2798004  12.6731710  68.8767700  71.7391205
  13.5280466  69.0001907  72.1516495  12.6848478  67.9708557  71.4302139
  57.7559891  69.6064377   3.5041058  58.5469398  69.3714447   3.0189168
  57.0373802  69.2743835   2.9659867  44.5861053   7.3004112  64.9699097
  45.2545319   6.9188991  64.4008026  44.7609825   8.2412329  64.9474564
  39.7936172   2.7467396  46.7677269  38.9642944   2.4536402  46.3901672
  40.3438339   2.9473908  46.0106049  32.1815529  53.1199150  42.4283333
  32.0165291  52.3597031  42.9860725  31.8445511  52.8645973  41.5695686
  68.2818298  33.4557152  19.6138115  68.4671783  33.8631897  18.7677383
  67.3677979  33.1785164  19.5510406   9.2143440  30.6433029  20.4596996
   8.4915028  30.8563442  21.0499077   9.4946289  29.7689285  20.7301445
   3.9721529  58.5484390  88.1688004   3.0539973  58.3160629  88.3074417
   3.9550636  59.1666641  87.4382248  35.0840492  16.4747200  78.7168198
  35.3206139  17.2371311  78.1886139  35.9178314  16.1524868  79.0591736
  13.2063694  21.4602718  10.6995811  14.1519957  21.6031647  10.7396231
  13.1084557  20.6386757  10.2183075  26.6690674  67.4918060  47.8690872
  25.8326626  67.8655396  47.5916214  27.0359917  67.1081924  47.0725746
  63.9707451   9.0913658  75.8848953  64.3044510   8.5933361  75.1386795
  64.7375259   9.5490589  76.2295609  35.9079437  42.2984161  84.1208267
  36.0326271  42.0044518  85.0231934  35.7684059  41.4925346  83.6235123
  84.0087433  54.7347031  87.7698669  84.0394287  54.8758812  86.8236313
  84.4349213  55.5071678  88.1412201  57.1894188  39.8127975   1.4957514
  56.5232201  39.2678947   1.0768391  58.0140152  39.3587036   1.3223366
  85.9863586  16.7612133  78.9843369  85.6911926  17.6271858  78.7029190
  85.9045639  16.7784748  79.9378815  11.2335014  68.1654663  79.1205444
  10.9200821  67.9525986  78.2415161  10.4965658  68.6136932  79.5355682
  66.3137665  11.7977581  68.0221481  65.6467133  12.3982420  68.3548431
  65.9672623  10.9258938  68.2119370   7.5293403  19.1172638  88.2042618
   7.7951264  18.7189217  87.3754654   8.3420410  19.1955242  88.7038879
   4.8682389  21.1386986  70.2596283   4.7267766  20.4032516  70.8557358
   4.2974997  21.8308144  70.5934906  59.8476410  20.9255600  87.9186020
  59.9689484  21.8251915  87.6149979  59.0074463  20.9387150  88.3770065
  26.0925465  27.1019020  14.4473085  26.0462456  26.2915382  13.9399643
  26.8788605  27.0037270  14.9842463  21.7468243  44.1153793  45.8273926
  21.5211792  43.6302147  46.6210747  21.0844421  44.8040924  45.7712173
  56.8212357  15.1793489  11.1205645  56.4940224  14.4651833  10.5736361
  56.1460609  15.2981215  11.7885942   4.5584764  38.8670235  45.1828156
   5.0344362  39.0063286  44.3641052   5.1140957  39.2642403  45.8534393
  28.3321285  70.2124252  68.3985062  28.1668930  69.2882996  68.5853577
  28.6221638  70.2242203  67.4863815  42.0058365   4.5303717  67.1202927
  42.1899338   4.4132919  66.1882858  41.3876343   3.8309255  67.3320312
  12.5048084  36.7825050  84.9094391  11.7604427  36.2355080  85.1603317
  13.2241678  36.1641006  84.7816544  12.0615511  70.4425659  26.3060360
  11.1045799  70.4544678  26.3232136  12.3140116  71.3623199  26.3869495
   8.4488049  42.7161713  53.0917511   8.4782991  41.8382034  53.4719276
   8.3876534  43.3019753  53.8462868  72.0883102  65.3420715  71.9646454
  71.3357468  64.9763565  72.4295502  71.9335556  65.1202087  71.0464630
  16.5508041   0.8429564  37.2444763  17.4248714   1.1137283  36.9635506
  16.0113106   1.6263033  37.1370277  12.7288256  57.8352776  81.9676666
  12.0723066  58.4690132  81.6785431  13.3563938  58.3535004  82.4714890
   4.9870176  38.8771133  12.7233381   4.4572654  39.6192894  12.4321804
   5.6580057  39.2669830  13.2837029   6.7837539  14.2711077  36.5249023
   7.0770020  14.9430809  35.9095268   7.4054484  13.5525579  36.4090805
  66.8036118  29.4684467  80.2852631  65.9867401  29.6909809  79.8386917
  66.5344238  28.9033871  81.0094681  54.8239822  18.8033562  57.2900238
  54.5434494  19.6758232  57.5663147  55.0368805  18.9028816  56.3621254
  77.3055801   7.5188322  34.8352890  77.0321732   8.1961451  34.2166405
  76.8973389   7.7718282  35.6632767  58.6241989   1.8562391  55.7562180
  59.0790024   1.0295430  55.5950966  57.8509293   1.8178511  55.1933594
  41.3998108  41.0705261  33.0275269  41.0000801  41.8238564  33.4622040
  41.3227997  40.3587379  33.6628685  30.7466240  52.9078598  71.8575287
  29.8246517  52.9024086  72.1147614  30.8339615  53.6778336  71.2956161
  47.3009109  23.4270706  15.5178432  47.9909897  22.9576302  15.0491743
  46.4981766  22.9537582  15.2991476  68.5095139  16.0626488   8.2817345
  67.8350906  16.6727180   8.5804014  69.2422562  16.6225243   8.0251131
  28.0438576  52.9002800  78.5078506  27.9084568  53.2059174  77.6109238
  28.9491558  52.5896454  78.5209427  12.4164476  35.6389580  31.1414871
  12.6210861  35.3645134  30.2475986  11.5064268  35.9327660  31.0994244
  70.4221268  56.8525734  22.5475330  69.6017303  57.2806091  22.3026600
  70.1685791  55.9556541  22.7654305  22.3421268  25.6726112  79.2608566
  23.1836700  26.0739937  79.0442276  21.7278271  26.0493507  78.6308289
  35.3459167   2.4720025  73.0562973  36.0560455   2.1646612  72.4928360
  35.4762459   2.0054808  73.8818893   4.3243876  23.8929615   1.8215486
   5.2631717  23.8668175   1.6365273   4.1196537  23.0159245   2.1457746
  55.1239243  34.8255730  26.4294262  54.7335739  34.8625641  25.5562191
  54.4535370  35.1903915  27.0071144  40.1438293  65.6104736  33.3563499
  40.1636696  65.8817596  32.4386101  39.2632790  65.8384323  33.6545067
  35.1585236  13.3341618   0.0168907  35.7275963  13.2825565   0.7848266
  35.7591896  13.4536514  -0.7187403  36.5006371   3.6190181   0.4706494
  37.2012482   4.2058001   0.1859256  36.9496994   2.9292634   0.9593357
  25.7737732  29.5038242  12.9697132  25.2883415  28.6906815  13.1089554
  26.2917252  29.6131229  13.7672167   5.2254753  34.3773918   6.3516040
   5.8668480  34.0761452   5.7080793   5.7529278  34.7135162   7.0762043
  72.3199158  21.0253315  20.7143421  71.5792542  20.9571266  20.1118488
  73.0921936  20.9794102  20.1506805  16.3382683   8.7693462  55.6100807
  17.0789661   8.7059355  56.2130547  16.4360943   9.6287374  55.2000732
  46.7995415  52.6585846  58.4747276  45.8502960  52.6792641  58.3533287
  47.1445847  53.1874619  57.7553749  42.9625092  24.6915932  83.5500107
  43.8801918  24.9179382  83.7011948  42.7234688  25.1757717  82.7596512
  79.6846848  61.1315613  67.3532104  78.8818512  60.7638397  66.9837875
  80.3339157  61.0379028  66.6561050  71.8593750  63.3036957  64.0239639
  72.6236115  62.8238335  64.3432007  71.7871017  63.0535774  63.1028519
  53.9963608  46.0615540   3.2841341  53.0519562  46.2166519   3.2674415
  54.1176147  45.3944206   3.9597526  35.6884995  57.8234825  66.9162369
  36.1405716  58.5256767  67.3839874  36.3885536  57.3340492  66.4842606
  80.6037064  49.4887581   3.5285449  81.1236725  49.8788681   4.2311683
  80.9938354  48.6252441   3.3929892   2.7992816  36.2143173  82.3854675
   2.3128712  35.4589767  82.0551682   3.4790719  36.3670845  81.7291260
  77.3215179  46.8178177  78.9381714  77.7856064  46.4922714  78.1668930
  77.0655594  47.7101402  78.7047729   1.0682150  12.2226171  85.7628784
   1.8592470  12.7188921  85.9731445   0.4962820  12.8559761  85.3293076
  20.7606297  71.6786346  34.1143684  21.5985718  71.2674713  33.9021683
  20.3637638  71.8663940  33.2637978  82.6684265  30.2367401  44.7733803
  82.1919327  30.3340511  45.5978317  82.1498795  29.6093483  44.2696686
  18.1766300  21.8585129  86.6261520  17.5167580  22.2726803  87.1822662
  18.6576958  22.5902824  86.2397308   6.8096623  31.6274948  21.5760555
   6.9911695  32.2299156  20.8546848   6.9026132  32.1626816  22.3641968
   5.6581340   5.6173458  10.7981052   6.2591853   5.8423343  11.5082817
   5.7419968   4.6683888  10.7049417   4.7005186   9.2836828  77.3474884
   3.8471882   9.4992409  77.7237854   5.3064284   9.8996563  77.7594147
  83.6455383  65.3167572  41.2859497  83.7512741  64.7691650  42.0638924
  83.1579056  66.0802689  41.5949554  60.8182373  26.1811600  86.9480209
  60.8593330  26.1423378  87.9035492  61.6513672  26.5744019  86.6882324
  31.6781235  55.4312096  70.7104034  32.4221268  55.5041771  70.1126022
  31.7432537  56.2054367  71.2694702  25.9075089  23.9445515   2.1427453
  26.2541351  24.5029449   2.8386462  26.1768036  23.0596905   2.3891821
  73.1247177  43.0341568  20.0314732  72.8996811  42.1714478  20.3797817
  74.0725174  43.0003967  19.9020023  85.9492035  23.7299118  55.5829391
  85.7957611  22.8070927  55.7856483  86.7796783  23.7357121  55.1070023
  33.6173019  47.8030167  54.0683212  32.9640579  48.5026588  54.0709190
  33.9141502  47.7558708  53.1595345  57.5504456   7.2304983  28.0046139
  57.4580765   6.6180820  28.7344398  56.8465538   6.9920912  27.4013443
  69.3995056  61.9467964  73.9250488  68.5368652  62.1696701  73.5751801
  69.7260971  62.7660866  74.2969818  80.7434006  39.8521233  87.8801727
  79.9435883  39.3604012  87.6937561  81.2795868  39.7440071  87.0946503
  75.2426147  53.6996803  68.0551910  75.4511490  53.5056648  67.1413574
  76.0355759  53.4644356  68.5369644  80.0426178  -0.0665596  53.1537476
  79.1730652   0.0297347  53.5421104  80.4043274   0.8196681  53.1535568
   4.8513446  19.9752960  29.6936817   4.2251530  19.6322708  29.0561485
   4.6770277  19.4773979  30.4923954  81.7104568  38.4147797  74.3248749
  81.6730881  37.5781250  74.7883911  82.4697113  38.8620033  74.6987152
  84.1696320  64.0651016  25.8897552  84.3063431  63.7592201  26.7864037
  83.3269653  64.5183029  25.9171543   6.5955157   7.5367198  62.8794861
   6.6569099   6.8001413  63.4876900   5.6652641   7.7620192  62.8692932
  38.4409561  55.3051109  21.0983982  39.1320953  55.8887749  21.4112835
  38.8916054  54.6873360  20.5226383  49.7239380  10.0900507  45.6538773
  50.2648735  10.0547600  46.4427872  49.2794952   9.2426205  45.6301041
  17.7016792  70.5610123  58.5155029  17.4246616  69.8961868  59.1459770
  18.5541840  70.8550262  58.8364792  22.0745029  54.4187317  37.1653633
  22.2888889  53.8165512  37.8778572  21.4546757  55.0368996  37.5525513
  70.3647232  25.6185284  38.0312347  70.1038361  26.4942608  38.3162956
  69.7223663  25.0342579  38.4340248  70.2156754  64.8058014  22.0226994
  70.3049698  63.8984795  22.3142948  69.2993393  64.8828964  21.7569656
  44.1700134  56.9728088  17.1905136  43.7217598  56.2871399  17.6856518
  43.8480148  56.8709106  16.2948761  18.9891853  24.7969456  17.7022419
  19.7508526  25.1570721  17.2479229  18.3199005  24.7182941  17.0224609
  78.0145493  16.1969795  50.8359451  77.3438416  16.0699425  51.5069504
  78.8401794  16.2007141  51.3202438  46.0853004  24.6196499  57.1996918
  45.2496376  24.1936989  57.3906479  45.8585815  25.5385437  57.0566330
  12.1960487   3.5697725  34.8532066  11.9746008   4.4713140  34.6199341
  11.5473976   3.3271139  35.5139656  74.7031708  67.8044586  19.5279942
  75.0436707  67.9067688  18.6392727  75.1926117  68.4427032  20.0469608
  63.5287819  69.7933044  29.0771637  63.6996307  70.7285767  28.9662189
  63.3792305  69.6869354  30.0166054   6.3435092  54.0431633  40.7747841
   6.9023304  54.2997856  40.0412331   6.7487283  53.2464790  41.1173096
   9.6249065  13.8192911  79.0966721   9.4382238  13.0066099  79.5667038
   9.5989799  14.4976501  79.7714996  25.2610092  51.1373749  86.6439133
  26.0746822  50.9664612  86.1696167  24.8163891  51.8064270  86.1234207
  15.7847567  54.2695999  57.1554947  16.4786491  53.6938934  56.8340797
  16.2411461  55.0654411  57.4285889   3.2332902   0.5715790  31.6138649
   3.2001956   0.0591033  30.8060875   2.6020589   1.2777280  31.4755440
  80.3507004  41.3350067  39.0255470  80.3197327  40.3920937  39.1873779
  81.0854568  41.4506073  38.4230499  48.6122665  71.8445740  42.5351944
  48.4996872  71.4614944  41.6652451  47.8849335  71.4921417  43.0480385
   3.0178199  55.8438377  53.1032410   2.5553105  56.1426086  52.3202667
   2.4230754  56.0474815  53.8250732   4.5755687  12.4967861  63.5880775
   5.2012296  11.8441963  63.2735863   3.9864411  12.6402178  62.8474121
   3.8201225   1.9358664  82.1296234   3.4276156   1.6701521  81.2980194
   3.3536906   1.4227030  82.7894287  66.2957382  27.7626781  72.7163467
  65.8221817  27.0756245  73.1853104  66.8887711  28.1336174  73.3697586
  24.5224705  68.3215866  84.6057663  24.3607674  68.8725662  85.3715973
  24.5997314  67.4357300  84.9600449  57.9785728  51.2956848  48.9552803
  57.4593353  51.3651237  49.7564087  57.5227737  51.8539047  48.3253059
  67.3053513  56.9300995   2.0926776  66.9819717  56.9653244   1.1924450
  66.5182343  56.8179932   2.6257026  40.3061028  60.4651489  84.8271561
  40.9351540  59.7539024  84.7060852  40.7305870  61.0572357  85.4480209
   3.0526333  47.9277458  11.2869644   3.9755745  48.0366669  11.5161982
   2.5818157  48.4563255  11.9312983  26.6977005  14.0466003  84.6345291
  26.8992348  13.1109476  84.6475143  25.7653351  14.0878496  84.4218674
   6.8606362  12.0282888  73.5480347   6.1033106  12.2104025  72.9916840
   7.1822948  12.8923941  73.8051147  79.6662140  32.9298820  74.7558136
  79.0718384  32.1848450  74.6671371  80.5047150  32.6080589  74.4247818
  28.3913517   1.7868870  37.4637413  28.4540348   2.5466297  36.8848686
  27.5523300   1.8955046  37.9114876  16.6749210  71.1597366  62.3754539
  16.1834412  71.6041107  61.6846504  17.1084557  70.4315491  61.9304581
  48.0045204  57.5177116   5.2474179  48.7091331  57.5136108   5.8952885
  47.7090263  58.4277649   5.2206874  12.5744190  56.0585213   8.7651634
  12.6270828  55.2271843   9.2366896  12.2561998  56.6835823   9.4165220
  75.9116287  10.7015591  33.8687859  75.2989273  10.1243067  34.3244247
  75.6856461  11.5799828  34.1746178  47.5815697  47.8060150  17.6207638
  46.6364784  47.8022156  17.7724857  47.9551010  48.1197968  18.4443226
  68.1429672  67.4774170  64.8680191  67.2961960  67.2098465  65.2252502
  68.5686035  66.6566086  64.6203690  62.7426071  19.9688129  17.5934429
  63.5519485  20.1265316  17.1073112  62.9956284  19.3625164  18.2895870
  80.0072174  27.2914429  38.8446732  80.0022583  26.5155659  38.2841187
  80.0352707  26.9429684  39.7357483  78.9147186  50.4506760  18.4926891
  78.2934799  49.8202057  18.1282692  78.5064850  50.7461929  19.3064728
   1.9755815  19.9974289  50.1747169   1.2392445  20.2586746  49.6217346
   2.0332713  19.0483894  50.0641327  18.2316761   2.9847271  67.5409622
  17.3953266   3.4456732  67.4755325  18.2768612   2.6988616  68.4533615
  44.2957764  53.7738571  84.0762100  44.4480591  53.9721527  85.0001831
  43.8710899  54.5585747  83.7296677  51.4359550   3.2652910  49.2247696
  52.2081604   2.9383104  49.6863098  51.7017746   3.2970071  48.3057671
  11.2570601  43.4794121  63.3289948  11.2205381  43.8382683  64.2156296
  10.7040119  44.0642166  62.8109474  51.1107750  21.3824406  26.2660408
  51.6880417  22.0880394  25.9742794  51.5863914  20.9654808  26.9844856
  77.4200287   2.8737264  52.1032143  76.7655029   3.5616114  52.2242393
  77.5399551   2.5008883  52.9766197  64.4241180  49.1086273  38.0133095
  65.3629761  48.9338951  38.0784531  64.1764832  49.4153481  38.8855667
  22.3503304  66.4533386  88.7286453  23.2649670  66.2186890  88.5717773
  22.3164673  67.3982086  88.5793152  56.6265335  68.3521271   5.8276992
  57.0126381  68.6612244   5.0081797  57.2963028  67.7843552   6.2088499
  79.5194931  25.2261829  36.8250313  78.8598404  24.5675030  37.0423546
  79.4676895  25.3120422  35.8730965  15.3410673  16.8062725  58.5007668
  15.5652866  16.0452042  59.0362396  14.7278271  16.4678249  57.8483696
  76.8146210  40.1501312   4.4584002  76.6356659  39.9778519   5.3828063
  77.6224213  39.6696510   4.2772274  22.9789505  64.2709732  77.3002701
  23.3159561  63.5235634  77.7942734  22.6911678  64.8908920  77.9704285
  67.2080383  56.3622818  28.9248505  66.4819107  56.9694405  29.0674496
  67.9935455  56.8965187  29.0423107   2.9501727  36.3660774  13.0881214
   2.8837085  35.4826012  13.4504528   3.7950690  36.3775711  12.6383991
   3.8216672   5.3663101   2.4065588   4.5367808   5.8689294   2.7967098
   3.3585544   4.9886513   3.1543102  44.7654190  71.7402115  26.8562832
  43.9491882  71.2699356  26.6864681  45.4283257  71.2542877  26.3657036
  75.2705917  49.0578346  75.5133820  75.9128265  49.1783714  76.2128372
  74.8182907  49.8994675  75.4558792  75.0047913  24.3838997  59.5422287
  75.4197922  24.1708164  60.3780518  74.0666122  24.2992516  59.7121773
  18.3943005  30.1184959   6.4597588  17.5737095  29.7587814   6.7966075
  18.8435326  29.3676205   6.0716753  78.9294968  48.3543015  36.3118782
  78.0013428  48.2016945  36.4892845  79.3002396  48.5902863  37.1622276
  60.8647461  45.4825058  65.6022949  61.6800995  45.7704430  66.0128098
  60.9639168  45.7199326  64.6803207  61.0628395   5.6062918  81.2820206
  61.2733345   6.3663416  81.8244705  61.5960541   5.7186284  80.4950714
   3.3053539  52.1895981  64.3864822   3.7220521  51.4350128  63.9703140
   3.9576795  52.5101242  65.0093536  31.2147312  56.7999420  42.2922821
  31.0104942  55.8811684  42.1179962  32.0564194  56.9443855  41.8599319
  43.7666740  56.0868263  44.2949066  43.5584259  55.1982765  44.0062141
  44.5982170  55.9986153  44.7607193  16.6728764  52.4896011  70.5462723
  17.0112801  53.3666153  70.7267380  16.3859138  52.1634140  71.3992004
  70.1267548  35.9310226  57.6177406  70.8113785  35.9198723  58.2866211
  69.8881454  35.0110588  57.5038757  34.9355774  32.7157860   6.4920907
  34.4281006  31.9211636   6.6572328  34.8471298  32.8651581   5.5507631
   8.3784857  35.1284981  32.8591919   8.2357149  34.2159386  32.6080246
   7.5180712  35.5385742  32.7711296   2.5857358  51.1923523  24.0268135
   3.3432298  51.4465218  24.5539112   2.2865546  50.3714104  24.4176846
  21.0493298  51.2850609  11.0210085  20.7812214  52.1708717  10.7767038
  20.2948437  50.7377892  10.8031158  36.7230225  31.0005283  13.6807728
  37.0996704  31.8378963  13.4102449  37.1397858  30.8108463  14.5213461
  43.4448853  63.8387299  58.7397194  43.0712891  64.4353409  58.0910950
  43.7039490  64.4060898  59.4658203  48.6393204  31.7199821  78.0059814
  49.4130173  31.1641464  77.9128494  48.8537178  32.3097687  78.7287674
  47.3107185  68.4786758  31.5490417  47.3637848  67.5788498  31.2269802
  47.2997856  68.3916626  32.5022163  72.3269043  48.4791641  84.5217056
  72.6730118  49.3716011  84.5204315  72.9804001  47.9681473  84.0441742
  73.9881516  60.7609634  73.4467316  73.2016983  60.2411575  73.2808380
  73.8702164  61.5494881  72.9170609  64.3141098   5.3181024  42.2318878
  63.9002304   5.5707235  41.4065895  63.6785355   5.5645657  42.9038544
  65.6269836  35.0092354  57.9318314  65.7354813  34.4879036  57.1364250
  64.7447510  34.7986870  58.2377167  22.0134602  16.0159492   4.1554427
  22.6960220  16.5632401   4.5437880  21.6208172  16.5671024   3.4784698
  18.4284153  54.2446709  75.2457275  18.7251740  53.4344635  74.8313293
  17.7363586  53.9671555  75.8459549  39.6769905  11.0959282  21.3255253
  40.5793571  11.2179737  21.6205997  39.3094864  11.9795723  21.3069534
  49.3981972  68.4947128   3.8189378  49.0723648  68.0915833   4.6236420
  49.6020927  69.3961258   4.0681734  42.6189919  26.5235729  73.8809891
  42.4322205  25.7307911  73.3781509  42.8583069  27.1747017  73.2214508
  34.8568802  12.8816042  82.7513046  34.6060333  11.9581947  82.7263107
  35.2997169  13.0321941  81.9161758  45.0159607  60.6073341   8.4452753
  44.8149261  60.2072868   7.5992384  44.1612015  60.7508812   8.8514910
  58.6689835  46.3018799  34.4699173  58.2000465  46.7310982  33.7543068
  58.0200577  45.7210884  34.8671722  34.9972687  36.0839348   6.9743791
  34.0531960  36.2276115   7.0400405  35.0974312  35.1324768   7.0048566
   0.7342002  33.6046066  42.6074829   1.4098271  33.3338280  41.9858437
   1.1502532  34.2904739  43.1297112  75.3654251  60.9301224  68.3849258
  76.2086716  60.7103424  67.9888611  75.2059555  61.8363953  68.1213531
  24.6556034  48.7686501  75.7578506  25.5091801  48.6494865  76.1743164
  24.0542870  48.2486801  76.2910309  15.7022409  60.5652924  82.4938507
  14.7523699  60.4493179  82.4709473  15.8259449  61.4762840  82.7603607
  56.6081200  58.7126732  69.9332199  56.1062965  58.4217758  70.6946564
  56.4026947  58.0722847  69.2520905  38.1630745  24.1266499  16.2428322
  38.5376282  23.7289639  17.0288296  37.7772636  23.3931675  15.7638884
  11.9262877  23.6077232  75.0045395  11.7697020  24.5065861  75.2939453
  11.3423948  23.4923191  74.2548828  75.9413223  63.6304436  43.6105309
  75.1722565  64.0398026  44.0070076  76.6599731  64.2320251  43.8051567
  78.0725021  68.8404694  49.4559250  78.6699982  69.1713867  50.1265373
  77.5550232  69.6035080  49.1985893  56.8325920  44.6337318  54.5584984
  55.8809776  44.6973038  54.6398506  57.0124588  43.6938019  54.5788689
  48.6601830  71.5906982  82.4881287  49.5946617  71.4018860  82.4024811
  48.5066833  71.6168060  83.4325790  78.8193741  71.0925369  65.6899567
  79.4989166  70.8737793  65.0523071  78.2775040  71.7460785  65.2478180
  85.2910233   6.9573183  25.8457680  84.9787979   7.8360186  26.0617142
  86.2451706   7.0288382  25.8726463   2.2980328  67.5578537  54.6567955
   2.7325416  68.1512299  54.0441437   2.3510623  68.0048523  55.5015488
  51.0067101  64.5038528  68.7809448  50.5012474  65.2101669  68.3786316
  50.6354294  63.7028732  68.4110641   7.4218740  44.4141846  47.9403267
   8.1752691  44.4135628  48.5307732   6.9893003  43.5759659  48.1031075
   3.5440776  28.8215427  77.2906952   3.8797207  29.7121639  77.1888657
   4.3205752  28.2923317  77.4729538  85.9435425  23.5348873   3.8231370
  85.9618378  23.2702618   4.7428493  86.4350052  22.8514805   3.3674517
  64.6325912  58.9179726   4.3228812  64.3815689  59.0243378   3.4053266
  65.4136505  58.3653412   4.2950001  63.5900421  35.9890213  29.4588890
  63.9864311  35.4773827  28.7536678  63.7452812  36.9002113  29.2101631
  13.8149185  49.8162613   7.3610864  13.1402588  50.2066803   7.9166412
  13.3325825  49.2421227   6.7661505  13.5687284  12.9167719  74.7842941
  14.1018248  13.7112055  74.8145447  13.4507179  12.7429314  73.8504410
  47.6986656  37.9488640  10.6591549  47.3227577  37.3626556  10.0024309
  48.6094475  38.0609589  10.3868675  47.1156235  51.1584320  76.6293411
  47.4283524  52.0526772  76.4923859  46.2156448  51.2640266  76.9377594
  85.8225403  25.6967182  69.0373154  86.3452225  25.8860645  69.8165359
  85.7634354  24.7416096  69.0148315  21.2110176  60.0939636  39.9030266
  20.6643867  59.6453667  39.2579002  21.0546684  59.6205025  40.7201080
  11.3841000  64.9162979  52.8916321  11.5938501  65.7141571  53.3770714
  10.6211805  65.1509552  52.3633156  63.9000244  64.8318787  10.9485846
  63.0282936  65.0369797  10.6105785  64.2503052  64.1881332  10.3328505
  36.7746582  15.6048727  26.2888298  36.7498360  14.7163687  26.6440430
  37.6748848  15.7154379  25.9828815  44.7784157  39.7608299   8.9768009
  45.1922302  39.4734001   9.7906647  45.2350769  40.5706215   8.7489071
  26.9658566  64.0138550   0.1249091  27.3963337  64.8113098  -0.1833038
  27.6686783  63.3658714   0.1738161  86.2123566   3.3466752  20.0084038
  85.4698715   3.4630911  19.4156170  85.8650894   3.5655828  20.8731098
  80.7561646  44.2670441   1.6780665  80.6209106  43.3698044   1.3732696
  80.0955200  44.3906288   2.3596096  86.1652832  12.7214632   6.7538977
  87.0822601  12.7713881   6.4839048  86.1860199  12.2489843   7.5861030
  40.4610825  52.0734367  78.3973846  40.7280846  51.3911743  79.0133896
  40.9507866  52.8487892  78.6716995  53.1722527  63.1831551  46.2022820
  53.4147873  62.8127747  45.3536224  53.7838326  62.7843246  46.8212662
   6.7851300  47.5845184  56.5445251   6.3145909  47.5500374  57.3773727
   6.1279058  47.3527603  55.8883400   4.0083375  33.9504662  19.6487179
   3.2441301  34.0770531  20.2110291   4.1685014  33.0070267  19.6710644
  55.5861473  48.7803764  10.2612638  55.0311470  48.8397064  11.0388803
  56.0962486  47.9809608  10.3915005  62.8242340  47.5467415  23.1216831
  62.4137383  48.3504295  23.4407558  63.6445427  47.4861107  23.6112232
  17.2863045   1.3736348  31.1685314  17.1224899   1.0744095  32.0628815
  17.0624237   2.3041797  31.1825142  64.6782455  64.0406418  30.7183800
  64.4262009  63.5035477  29.9672222  65.5831833  63.7876053  30.9008732
  24.9858418  63.7997971  82.6073837  25.3570042  64.3802643  83.2718658
  24.8902054  62.9573746  83.0516968  37.2822342  42.3263741  15.3120565
  36.5364456  42.2815247  15.9104013  38.0493507  42.2479782  15.8791714
   8.0326548  64.1553650  56.7074623   7.1960363  63.7317505  56.5154953
   8.3056469  64.5357513  55.8725891  49.4133606  65.2640152  10.4879837
  49.1555481  65.6524582   9.6519957  48.6036148  64.8947144  10.8403511
  83.7962723  30.9279823  24.1686993  84.5056763  30.9689121  24.8100243
  83.4081421  30.0622845  24.2958031  11.4183903  15.8485308  19.2734756
  10.5225468  16.1551113  19.4138451  11.9140949  16.2136154  20.0064297
  25.3221416  27.5862236  18.0534954  26.1618557  28.0433826  18.0074768
  25.5165062  26.6976948  17.7552147  54.8762436  54.7874794  51.1901894
  54.4092674  54.8338966  50.3559151  54.5874901  53.9626579  51.5807304
   7.5449147  18.3163452  33.0167198   7.5335460  19.2683983  32.9182472
   7.2432075  17.9844723  32.1711044  40.2286224   2.4557924  24.0048618
  40.4827957   2.4885211  23.0826054  39.5282402   3.1035018  24.0834103
  26.4659252  38.6021194  28.5667400  26.2270050  37.6780167  28.4947071
  25.8306026  39.0575294  28.0142956  66.3499756  68.5307312   7.6591425
  66.2378082  68.5133209   6.7086964  66.5092010  67.6176682   7.8982863
  38.2714043  65.2152634  10.1387262  37.5217590  64.9799042  10.6854162
  38.5049057  64.4027710   9.6897650  18.7196426  22.3089790  80.6590729
  18.4971657  22.2997589  79.7281342  18.1217804  22.9510593  81.0418625
   5.4907188  16.9829731   9.3205900   5.8102851  17.7897320   8.9165468
   4.7690301  16.7027473   8.7576771  81.9541245  27.2562923  13.6476669
  82.3242950  28.0411930  13.2437677  82.5708542  26.5588741  13.4252224
  53.4008522  24.1370754  62.8146095  52.5511742  24.3697395  63.1889687
  53.6967468  24.9355888  62.3775139  47.6454163  54.6646004  39.4114532
  47.3705444  55.3311005  38.7818031  48.5669518  54.8605042  39.5806427
  66.5395279  62.0732346  60.9064026  66.9197617  61.3549881  60.4006577
  67.2946014  62.5674973  61.2254601   0.9568433  55.3274689  76.1156998
   1.5031443  56.1134338  76.1221313   1.5319135  54.6387901  75.7821655
  63.1281128  50.5677567  53.9737434  63.8842964  50.5164490  54.5583649
  62.9445801  49.6580811  53.7391434  32.2188644  27.3857937  78.1299820
  31.9903183  27.6056843  77.2268448  31.4733334  26.8769855  78.4486084
  72.1354828  56.8869972  20.3308392  71.9485474  57.1149292  21.2415161
  72.1656189  57.7280312  19.8747768  65.5590591  35.6514893  20.2275047
  66.1508942  35.4026909  20.9374771  65.1166687  34.8371429  19.9879951
  58.8878822  42.9716835  71.6020813  58.5079308  42.6685295  72.4266815
  58.3078384  42.6191368  70.9271774  21.5900745  46.2672501  15.9600439
  22.0643387  45.6454048  15.4081268  20.6985798  45.9209671  15.9995251
  71.3494720  35.7699051  64.1934891  72.1170044  35.9457169  63.6492310
  71.3518829  34.8199844  64.3112793  47.1639214  57.4576035  33.3133812
  47.5104256  56.5654259  33.2995758  47.9278412  58.0086250  33.4837646
  64.4329987  69.5115662  82.4892578  64.1140289  69.6287994  81.5944138
  65.3232346  69.1758957  82.3841553  41.4072151  54.4461784  79.4594193
  41.2819862  54.2232704  80.3818359  41.0424461  55.3270378  79.3742142
  85.4554596   9.4348984  43.2957535  85.3418045   9.2470579  42.3640709
  84.9914551   8.7261047  43.7413292  33.3822708   8.4437866  17.4637547
  32.5988922   8.3209400  17.9999046  34.0407944   8.7752199  18.0742702
  21.0272446  16.3805256  20.9870625  20.3251114  16.9391479  21.3205013
  21.0169964  16.5222569  20.0404701  21.7813721  62.5195084  62.0394936
  21.4538937  62.6294632  62.9321861  21.0968571  62.0212593  61.5929337
  65.2533417  69.8317642  40.3764687  64.4389420  70.3171234  40.2444992
  65.6415787  69.7734756  39.5034790   1.8354033  46.3397560  22.6305447
   1.4698251  46.0147057  21.8077888   1.7894058  47.2927094  22.5531464
  40.9358482  68.0913315   7.7435751  40.0661163  67.9297180   8.1092014
  41.5404549  67.7772064   8.4158936  56.0498123  20.1191769  66.5083084
  55.3395233  19.7584839  65.9776230  56.0474625  19.5879211  67.3045425
  45.7724571  12.3951273  71.6307678  45.0920677  13.0221281  71.3854675
  46.0600319  12.6807919  72.4979095  60.5816727  53.4638977  48.7730980
  60.4933510  52.6964493  48.2078972  60.8170929  53.1053314  49.6288071
  77.3790665  45.9909821   5.7943091  77.2238846  45.1797829   6.2781510
  76.9424286  45.8555336   4.9533377  72.8763809  65.4673233   6.8388400
  72.8673782  65.0056458   6.0003867  73.1712646  64.8112335   7.4703674
  65.5215759  39.6076202   3.8159065  65.2332993  38.9468842   4.4456339
  66.1361084  40.1537247   4.3061614  67.7555313  27.9317799  19.6639462
  68.5199814  27.3611565  19.5849895  68.0948715  28.8111954  19.4974918
  75.9846191  46.4507217  35.6359253  76.4505692  45.7658920  35.1562042
  75.0622025  46.2034073  35.5709534  14.3245020   4.1499557  26.8682899
  14.5583038   4.6728363  26.1013718  13.4498558   3.8143771  26.6717892
  27.0943699  32.7927399  12.6691961  26.4430294  33.0437088  12.0142136
  27.8912754  32.6301956  12.1644659  41.3182335   3.3217978  32.5782471
  41.6148949   2.7428508  31.8760777  40.8844376   4.0448952  32.1252747
  75.7478943  30.1839542  15.4986763  75.1432571  30.2916870  16.2328682
  75.1808472  30.0563412  14.7381496  69.0018539  25.3464527  73.5535736
  69.3931580  25.3110332  74.4264145  69.6936111  25.0380135  72.9682770
  81.5918198  60.5107460  29.9591713  81.2867889  60.3385239  30.8499737
  82.4126129  60.9893074  30.0753918  51.8300552  61.8494568  14.5264082
  51.7460289  61.4683266  13.6523886  51.8185043  61.0970078  15.1179447
  83.5186768   8.9430704  85.3947220  84.4340820   8.7854071  85.1636276
  83.1889267   8.0861454  85.6652374  42.8751526  51.2042007  59.0488052
  43.3065033  51.2326317  59.9028282  41.9645576  51.4350014  59.2325974
   8.7755251  65.3916092  32.2727852   8.8917427  64.8229523  31.5116291
   9.3208866  64.9960709  32.9527588   8.0535975  63.2456131  39.6118889
   7.1848021  63.5904274  39.8181152   7.8961077  62.5906143  38.9318810
  70.4791489  49.5040359  57.3748016  69.5833206  49.7485428  57.6070595
  70.9875412  49.6762161  58.1673470  68.9443741  15.5803995  60.8392372
  69.8906784  15.6817398  60.7369003  68.6492004  16.4229946  61.1843987
  14.7917871   5.7057147  69.2196808  14.5090809   4.9312849  69.7060623
  14.8604307   6.3929386  69.8824310  60.0439148  31.0558720  72.8472290
  59.2391014  31.5732307  72.8181610  60.1436386  30.7178593  71.9572678
  69.0660858  68.2164688  77.2652588  68.7728729  68.0494690  76.3695068
  69.8490295  68.7577362  77.1640015  85.9857941  23.4815445  10.0523510
  86.1142426  23.4877949  11.0008726  85.2249146  22.9166737   9.9174109
   2.5963542  28.6944847  63.8995171   2.7618496  28.4649372  62.9851036
   1.8183609  29.2513199  63.8696480  83.8852234  16.5383682  61.3058434
  83.8251572  15.8014383  61.9137535  84.3820801  17.2027931  61.7832413
  47.6458054  52.1453209  80.9844818  46.8748055  52.6967316  81.1176605
  48.0343323  52.4690895  80.1717987   6.8571525  53.3260765  54.5673065
   5.9051280  53.4022331  54.5034256   6.9994669  52.6531525  55.2330017
  75.1846542  31.4766998  46.5140305  75.4719696  31.3221245  47.4139137
  75.0847244  30.6009712  46.1407433  71.8667068  22.0121899  23.9781513
  72.3269653  21.2631302  24.3567104  70.9590607  21.7193470  23.8966122
  71.1722946  23.9999409  13.8659964  71.3100967  24.5291309  13.0803747
  70.7980194  24.6090755  14.5024767  85.8711853  47.9828987  13.6268368
  86.5091476  47.6855316  12.9781418  85.8866196  48.9374847  13.5578375
  44.9873962  68.8722076  62.0770683  44.1964912  68.3710938  61.8781052
  45.7019691  68.2443771  61.9700890  27.4234428   1.5722836  45.9409294
  26.9841232   0.7449931  45.7439003  27.8318977   1.8293698  45.1143074
  12.8023434  44.1282005  84.0930099  12.4995518  43.2320595  83.9464340
  13.4497690  44.0506630  84.7937622  73.0804367   6.5179491  72.9801941
  72.5144424   5.9759622  72.4305344  72.5791550   6.6480184  73.7852020
  25.2861996  47.0439873  67.1383057  25.3763962  46.9025955  66.1959152
  24.4032459  46.7363625  67.3432312  78.5072098  14.2647734  42.7493248
  79.0002441  13.4666119  42.9393044  77.9006195  14.3523197  43.4845924
  72.0573959  58.0206871  10.2434578  72.3825836  58.8437653  10.6081781
  71.2811203  58.2708664   9.7424145  56.0307617  38.2852707  34.0094833
  55.3204041  38.6288757  34.5512924  56.8293648  38.5923462  34.4386330
  22.6707935  31.3487816  23.2423973  21.9274368  31.3759918  22.6399746
  22.9158154  32.2663193  23.3620605  58.4502640  50.2224655  71.5968781
  58.9854813  51.0092010  71.4928665  59.0832443  49.5202522  71.7467575
  78.5538712  40.9866791  58.9057312  78.6688004  40.6460876  59.7928734
  78.1591034  40.2622681  58.4203300  81.7026825  23.3240147  84.2571716
  82.2118835  24.0380249  84.6407623  81.9524155  22.5520134  84.7649918
  43.8216629  13.2572231  66.8870544  44.5531158  13.3024168  66.2712860
  43.9902229  13.9629297  67.5113907  49.2328835  37.6651726  79.2277298
  48.7442284  36.8880577  78.9565506  49.4614296  37.4974327  80.1419907
   0.5962688  19.3073311  52.8084869   0.9657493  19.5538025  51.9605675
   1.2480377  18.7207642  53.1923752  62.6052856   6.2050934  17.0469017
  62.3581161   6.4265161  16.1490650  62.5153656   5.2532063  17.0922527
  68.8765411  44.2059250  74.0511627  68.3383255  44.5087776  73.3198395
  69.7696457  44.4503670  73.8086014  21.4173164  19.9594917  74.4970779
  20.5431099  20.1766777  74.1733093  22.0040264  20.5363464  74.0079498
  80.0150604   6.5338101  36.1460533  79.7319260   6.1212077  36.9620361
  79.2111588   6.8864751  35.7644768   8.3288774  62.3329048  32.6647568
   8.7365179  62.7259254  31.8930092   9.0060682  62.3732224  33.3400497
  57.2860641  71.4835129  20.2424850  58.0471306  71.1763535  19.7498779
  57.6455421  72.1043854  20.8761444  40.2083168  51.8038330  17.2235031
  39.5868683  51.5363464  16.5463867  40.3211441  52.7444992  17.0869389
   1.3471789  26.7477570  11.3916931   0.6517738  26.4878254  11.9959106
   2.1074755  26.9002171  11.9528856  52.9088326  66.4315033  29.1199474
  52.3239021  67.0416183  28.6706638  52.7624893  66.6007767  30.0506248
  58.7007675  46.4283295  63.3330536  57.8512268  46.2293434  62.9394569
  59.3102570  46.4381409  62.5950432  47.8096123  11.5783691  61.6483803
  47.5762100  12.5048399  61.5900040  47.1090240  11.1248798  61.1795998
  81.9635239  56.0784225  76.8773117  81.8480759  56.6330261  77.6488800
  81.1983414  56.2633438  76.3327637  28.2623348  54.5938301  10.0538635
  27.7340870  54.1026688  10.6831055  28.2780914  55.4863472  10.3994102
  77.4671707  50.5529633  14.8730497  77.2941208  49.6809883  14.5181637
  76.6580429  51.0399857  14.7169781  34.9279938  62.5280418  37.3395729
  34.8485680  62.4535980  36.3885803  35.1983376  61.6557465  37.6263504
  28.3248730  46.0999260  12.8899622  28.9802494  45.4870110  13.2231998
  27.4854794  45.6904488  13.0996761  62.6826744  59.8333969  10.8093681
  63.6238136  60.0066605  10.8310614  62.6063461  58.9776497  10.3873520
  64.9289780  54.3763428  12.9164772  64.6331787  55.1789780  13.3460207
  64.8947906  54.5784798  11.9814892  40.2819786  52.2307892  83.9021149
  41.0142899  51.8720932  84.4034042  39.5195961  52.1021233  84.4664307
   0.5929252  57.5891914  42.3609161  -0.0478325  57.9157753  42.9925842
   1.4338186  57.9135895  42.6832466  47.0461769   2.1664457  65.6413803
  46.1060371   2.0465090  65.5072556  47.1652222   2.0864649  66.5877762
  15.0314016  32.2411957  24.0975666  14.1758156  32.4205246  24.4874992
  14.9019432  31.4364986  23.5956364  41.3026390  56.9226761  36.1850891
  42.0736923  57.4272385  36.4441719  41.3573723  56.1190910  36.7022781
   6.2446370  34.4739723  27.0667934   6.0769997  34.6603737  27.9905796
   6.0706296  33.5371017  26.9760838   1.5330143  30.3838711  79.4956818
   0.7366539  29.9825191  79.1478882   1.9967312  29.6641254  79.9236603
  84.7654114  46.2134895  19.0626144  84.2340469  46.1939507  18.2666817
  84.1286240  46.1814461  19.7765522  63.9396629  24.7642040   4.6291127
  64.8062515  24.4525127   4.3681316  63.9756966  25.7114124   4.4959674
  18.2578850  17.6653938  16.3283749  18.7762089  17.5378933  15.5338211
  17.9737034  18.5784054  16.2850227  75.9110413  61.3450203  31.0580502
  76.8315887  61.3217125  31.3193359  75.9229813  61.1494827  30.1211109
  11.6365490  13.2562780  64.8255539  11.6512804  14.2130260  64.8509903
  12.3490534  12.9902296  65.4067459   9.3296480  51.8125191  32.3835373
   9.5818958  52.4798317  33.0217323   8.6545620  52.2332993  31.8511524
  68.7511749  41.8257599  10.6146173  68.4500732  42.6434784  10.2185001
  68.0404358  41.5680885  11.2017183  58.0768318  27.4370289   5.2649889
  58.4755096  28.2881145   5.0834970  58.0720520  27.3735619   6.2200708
  64.3687668  63.2281494  26.9010696  65.2862320  63.4091110  27.1053944
  63.8774643  63.6705666  27.5932522  83.7000046  32.5211449  66.8198624
  83.8764877  33.0451241  67.6012268  82.8265228  32.1583672  66.9670181
  53.3934593  50.5289116  18.9522324  52.9252205  49.9936142  18.3115749
  54.3188629  50.3637085  18.7717628  65.1180420  30.7942200  45.0368195
  65.2055435  31.6896076  44.7099304  64.6493683  30.3306065  44.3428192
  80.7571716   8.7667542  47.6213531  80.1156311   8.0784035  47.4457779
  80.3419647   9.5681133  47.3025208  74.4853287  60.7293587  14.8241510
  75.1290741  61.0568428  14.1959934  74.5502396  59.7765923  14.7589264
  38.2896461  69.8211365  58.0582466  39.0578079  69.5958099  58.5830193
  37.6332932  70.0940247  58.6993141  50.0287247  57.8940086  40.7498703
  50.5633659  58.2010040  41.4820900  49.1277466  57.9633141  41.0655708
  40.2585297  66.8021622  23.7181721  40.9850159  66.8474426  23.0965595
  40.5286598  67.3650818  24.4436951  71.3362274  66.9957809  28.4930744
  72.2081070  67.0139236  28.8876877  70.7601395  67.3538055  29.1684837
  85.3539810  25.2907867  51.0548058  85.7936478  24.4558258  51.2153091
  84.4240189  25.0677929  51.0138321  54.2779579  42.5143929  82.3674011
  54.5657234  42.1524467  81.5292969  53.3912544  42.1731720  82.4838562
  38.6058922  32.1061859  77.4066696  38.5823402  33.0625114  77.4400635
  38.4831467  31.8957500  76.4809952   8.0884171  69.3188477  28.6629677
   7.1377244  69.2362289  28.7377396   8.4322338  68.5517273  29.1207390
  74.1211014  60.0321732  41.6051903  74.5577011  59.3130646  42.0617981
  74.7668152  60.7387466  41.5984535   1.2892922  65.9257202  62.9972343
   1.8290522  66.0029449  63.7839546   1.0915546  66.8297958  62.7527428
  28.3443947  46.4016418  36.8719673  28.6980762  47.2156410  36.5134354
  29.0272331  45.7511559  36.7081642  50.7443008  46.0608978  31.9395466
  50.9193497  45.2001305  32.3199005  51.1741028  46.0368690  31.0846062
  58.4150429  56.7221336  37.6535759  58.1623535  55.8393135  37.3833771
  59.3578453  56.7611580  37.4928551  77.7872314  23.7552319  45.9865723
  78.7298584  23.9216213  45.9847603  77.4334183  24.3885822  46.6110039
   4.5629044  11.6280851   1.2093835   4.7380795  10.7657061   1.5860116
   4.3905368  11.4547415   0.2839250  58.3742790  65.9176712  46.9883118
  57.8162842  66.5253906  46.5029716  59.1283607  66.4443741  47.2532196
  47.2329597  12.7432060  88.7895584  46.7806740  13.2844286  89.4366608
  47.0268898  13.1523085  87.9490814  51.0198174  38.1632538  59.7360764
  50.7224655  38.8652191  59.1572342  50.6250153  37.3703003  59.3733330
   6.9724813  26.2027340  14.0985413   6.3468885  26.9126148  14.2432289
   7.6144576  26.3022442  14.8015318  84.8403931  38.3734398  78.0197678
  84.7668381  38.7488556  77.1423416  85.1932373  39.0839119  78.5554581
  84.5886688  19.0925560  21.5297070  84.4500732  20.0396461  21.5361118
  84.9225769  18.9052849  20.6524010  21.3459415  52.6496315   8.2840033
  22.0684967  52.7117844   7.6592765  20.9634991  53.5270271   8.2959423
   9.5211220  69.5214996  26.1590061   8.8752031  69.4131317  26.8570595
   9.1540327  69.0418320  25.4164429  28.7000904  14.9192476  82.4371643
  28.4694080  15.2301912  83.3125610  29.6115589  14.6376114  82.5154953
  79.5797653  10.3644199  19.1410275  80.3275146  10.2601833  19.7294464
  79.3417892   9.4703913  18.8954411  55.1000786  44.9871674  79.3113937
  54.4804497  45.7123222  79.2311172  55.4449120  44.8677063  78.4264908
  51.8080673   2.7458997  80.5589371  52.3020172   2.0371449  80.1467285
  50.8927612   2.4769745  80.4806900  62.8854866  55.3550072  62.3409195
  62.1053696  55.4628563  61.7968445  62.7856140  56.0068588  63.0347099
  55.7988129  51.3984604  28.5106411  55.1631241  51.6149635  27.8285427
  55.4715080  50.5844727  28.8934231  83.8380966  50.8687973  67.9014359
  84.4949493  51.4280472  68.3161926  84.3193054  50.3986511  67.2205276
  47.5507278  26.7225800  23.4547367  48.0914650  26.0914440  22.9798679
  48.0743332  27.5237484  23.4689445  25.7816906  67.6362152  73.7812653
  25.4474545  68.2792969  73.1559906  25.2858086  66.8393250  73.5933990
  62.2543221  18.9994297   8.1140165  61.4001274  19.1814442   8.5057526
  62.2059212  19.3903313   7.2416139  69.4532166  17.5727482  71.6548157
  68.9906158  17.1340790  72.3688202  68.7691727  17.7809620  71.0184555
  39.9954338   8.3120642  27.9059849  40.0633240   8.7234592  27.0443707
  39.6506042   9.0011196  28.4738998   7.6662521   4.0729294  40.5630455
   7.3089733   3.2922254  40.1398621   8.6107874   3.9200053  40.5894814
  67.5812912  19.5610580  78.9524689  67.0014725  19.6932278  79.7025146
  67.0190506  19.6924400  78.1890182   4.2710915   2.4954796  87.5947189
   3.8891509   2.9081199  88.3693695   4.4923816   1.6090075  87.8800812
  36.3467560   6.8632889  40.4933968  36.3805008   7.6439629  39.9405518
  35.4226990   6.7749529  40.7269478   5.3348346  44.6231766  39.0566101
   5.4115105  44.1024094  39.8560829   4.8849244  44.0476379  38.4380913
  23.7494850  27.6944637  11.4411097  23.1939526  28.4537983  11.2649603
  23.8206844  27.2488117  10.5969791  77.8264160  11.0212955  25.9229183
  77.1706161  10.3631306  26.1530800  78.6576385  10.6404791  26.2062588
  59.0223312  50.5934563  75.2183075  59.7969017  50.4595413  74.6721039
  59.3667297  50.9397812  76.0415268  53.8111572   5.6779027  54.9952736
  53.7307968   6.2143602  55.7839355  54.0244026   6.3021545  54.3016815
  30.8406849  19.3231087  78.4416275  31.5271702  18.6776047  78.6098480
  31.1547871  20.1224537  78.8642654  10.0150003  11.2070446  70.3524399
   9.7915058  11.1242380  69.4253922  10.2766590  10.3246727  70.6154785
   7.7314920  58.0780449   5.5753312   7.8221245  58.9806786   5.8807364
   8.6163673  57.8238220   5.3134184  60.8053894  20.4571018  41.8699493
  61.4398308  19.7593174  42.0336952  61.0665474  21.1621304  42.4623680
  28.6085930  66.2880707  88.3782806  28.9566860  66.9918137  87.8307266
  29.0976925  66.3582382  89.1980896  83.0802689  31.2806568  56.3021240
  84.0154266  31.4785919  56.2517967  82.7679367  31.7884331  57.0510178
  59.0112724  39.6373558  76.5592041  58.3031387  39.2434006  76.0497131
  59.6256371  38.9191246  76.7106476  19.3671722  44.2450562  12.8663568
  20.1507206  43.7911453  12.5561190  18.9203529  44.5248795  12.0674295
  56.3905487  56.2304382  43.1816788  55.7856216  55.5324211  43.4328079
  55.8261070  56.9286423  42.8497925  64.0469131  54.4343452  66.8392868
  63.6108818  55.2362175  67.1275711  63.3326950  53.8572998  66.5688400
  32.7144890   8.0578060  76.2555389  32.8621254   8.7685366  75.6315994
  31.8876362   7.6634040  75.9780731  44.8509064  21.7207661   9.4862165
  44.0466919  21.2597771   9.7248793  45.4800720  21.4708195  10.1629076
  43.3399658  59.2467728  79.6502991  42.6699905  59.8668823  79.9380951
  43.6841850  58.8725739  80.4612961  71.7192459  40.0174980  19.8669605
  72.0921631  39.5963898  19.0924702  71.3155212  40.8185730  19.5330200
  11.0214176   2.8444092  30.4225101  10.8031578   2.5080509  29.5533390
  11.6327143   2.2013152  30.7816448  63.2457123  51.1376686  51.1849709
  63.4216080  50.9678879  52.1104240  62.6615829  51.8959694  51.1873856
  64.2250137  46.5218697  89.3043442  64.3935547  45.7414436  88.7763596
  64.0440140  47.2098312  88.6638870  69.4559631  44.5838356  57.0935020
  69.3873215  43.7729568  56.5895233  69.9964142  45.1580544  56.5508957
  62.8788109  59.1983032  33.4892921  62.0572586  59.6248512  33.2456932
  62.9859581  59.3982697  34.4192200  55.0277672  52.5755653  63.9831657
  55.8891640  52.2494698  63.7226143  55.1982384  53.1082573  64.7599640
  55.6683502  69.5775146  18.3048782  56.2617683  70.1531372  18.7873058
  56.1486626  68.7537231  18.2217846  66.4276657  12.6073446   5.1842351
  65.6530075  12.0495548   5.2550254  66.7769394  12.6462860   6.0745845
  18.8479462   9.4684410  42.3598518  18.2868690   8.8917999  42.8784180
  19.3452778   9.9659023  43.0090256   9.1315603  30.8799801   5.2882113
   8.5055304  30.9169235   4.5650563   8.9083023  30.0761127   5.7574472
  11.6929293  26.4951992  23.0427780  10.7641258  26.7244835  23.0113773
  11.7025394  25.5385742  23.0745144  21.4705334   6.6156654  45.3784904
  20.6965065   6.6087794  44.8154030  21.6582184   5.6908646  45.5389557
  35.0311165  64.8314972  69.0093231  35.0178146  65.1258316  69.9200516
  35.6151047  65.4475784  68.5670166  50.4886665  58.7937813   6.1731710
  50.5833778  58.3297882   7.0050201  49.8267822  59.4632263   6.3463335
  79.4072876  63.7727203  61.4014359  80.3247833  63.5479965  61.5561218
  78.9357605  62.9478836  61.5177917  77.7639313  62.9101181  16.4980812
  76.8981171  63.0798454  16.1268826  77.9250793  61.9842224  16.3164635
  38.8476639   9.5483189  75.1979446  38.4466972   9.9600077  75.9634323
  38.1397896   9.0413160  74.8003311   1.3328854  32.6522560  24.9523335
   0.9983097  33.5367889  25.1002998   1.3104607  32.5436287  24.0015831
  35.4988060   9.8754778  33.7259369  35.8276825   9.6039934  34.5828934
  36.0358696  10.6325331  33.4921379  80.8852158  38.1448822  55.8872337
  80.0669327  37.7385063  56.1726990  80.8067398  39.0589294  56.1603432
  86.0903244  50.8905067  13.5575552  85.4824753  51.5155029  13.9526825
  86.3061371  51.2716560  12.7064505   3.2460783  32.5909157  79.8511353
   2.6221719  31.9119282  79.5943222   3.7427959  32.2002220  80.5700684
  30.3381290  21.7911091  18.3031445  29.7843838  21.0291729  18.4735870
  30.8017807  21.9394035  19.1273212  47.9919739  21.4145584  81.1504517
  48.7084885  21.9049149  80.7474747  47.2883148  21.4424191  80.5021286
  73.1758957  50.5394897  44.3894005  72.8260117  50.3030815  45.2484245
  74.0378647  50.9115448  44.5759964  19.6948738  18.2867355  13.9193249
  20.4468670  17.8166142  14.2794981  20.0403652  18.7361050  13.1480045
  79.7591782  57.9298172   5.5848908  80.3217239  58.0587769   6.3485312
  79.5378113  56.9987831   5.6049690  65.4540482   6.3206258  33.5743332
  66.3383026   6.3370361  33.2081909  65.0025177   5.6369781  33.0793762
  76.1829300  53.1814728   0.6865252  76.0999451  52.8593292   1.5840614
  76.6948395  52.5090332   0.2370711  28.4842930  23.6328239  76.9390564
  28.0221119  23.7443390  76.1082764  27.8475208  23.2055187  77.5119095
  23.6628609   3.3233452  62.2786827  22.9895687   3.0834289  62.9153519
  23.2475033   3.9887354  61.7300758  68.1202927  13.2904320  62.0966110
  68.4075317  14.1156559  61.7058029  68.6470718  12.6218729  61.6587029
  13.3423700  57.7057076  73.0655670  12.4501858  57.9711685  72.8424759
  13.2470894  56.8234749  73.4244843  60.4530106  22.5079632  59.4797478
  59.9805069  22.5062714  60.3121986  61.0331154  21.7483749  59.5320702
  12.4980030  67.5166397  45.9029465  12.2096109  67.3577881  45.0041542
  12.9498243  68.3596039  45.8640594   6.7040496  30.9481983   7.8725014
   6.6097913  31.5726604   8.5918016   6.8966622  30.1149426   8.3024073
  68.0010986  56.7696686  44.5592422  67.7885818  57.7029495  44.5668335
  67.2867050  56.3573952  45.0449409  58.9828453  30.0307808   9.7910652
  58.7903481  30.2091579  10.7115860  58.7663918  30.8461266   9.3387489
  60.6928635  38.3503189   0.6424471  60.0043488  37.9177628   0.1373987
  60.9887390  39.0660934   0.0799895  40.7380714  21.1899662  88.0151215
  40.1621971  21.9518127  88.0798798  40.5804939  20.7012653  88.8229446
  45.4224052  55.7472954  51.6505051  46.3459816  55.5176392  51.7529449
  45.2672501  56.4181747  52.3153992  81.7478714  43.3165703  79.8703537
  81.4069672  42.4524612  80.1012878  80.9697800  43.8321915  79.6583405
  74.9403687  58.1182060  46.8687325  75.3533936  58.8451691  47.3347473
  74.0057526  58.3243713  46.8834991  13.1281185  35.6806946  81.2161713
  12.1891794  35.6578941  81.4008484  13.4638224  34.8616371  81.5804214
  85.5703201  51.0138779  30.5405407  85.2878036  51.3932838  31.3726845
  84.8318329  50.4728355  30.2609940  19.7947025  60.8322754  26.6389141
  19.5698109  60.5244026  25.7609215  18.9686775  60.8034935  27.1217041
  50.7600212  71.3878632  11.5339518  51.5733223  71.7697678  11.8639870
  50.2174149  71.2693787  12.3135462  63.3254242  11.4268131  48.3331604
  63.9767761  11.7372332  48.9621391  63.7328835  10.6637831  47.9232903
  41.8919716  47.6945572  28.4693470  42.1787796  47.5010796  29.3618374
  42.6081085  48.2063713  28.0932846  83.3915329  30.8977070   8.8997841
  82.5718842  31.3275471   9.1440096  83.1574326  29.9750309   8.7993021
  61.4930229  20.6254311  84.4201355  61.6886635  21.5048275  84.7435837
  60.6249428  20.7033958  84.0244217  13.1447992   8.6996202  23.0990944
  13.9668684   9.1729832  22.9711838  13.0746078   8.1301613  22.3329220
  74.2011032  58.5317497   1.8634354  74.3464966  59.3497314   2.3388283
  73.5048904  58.7377396   1.2396672  15.0619402  41.3877411  74.7531815
  15.5802336  40.5872383  74.8356552  15.4732485  42.0029869  75.3602524
   5.8828983  19.5805626  58.1195755   6.0040526  19.2250137  58.9999962
   4.9338527  19.5954647  57.9957962  44.3976059  23.6218700  55.3422699
  45.3031769  23.9301147  55.3762627  44.3952599  22.9613972  54.6494484
  68.2958221  27.7871704  64.9147186  68.5211563  27.0413589  64.3586426
  68.6428680  27.5568371  65.7765503  23.1673775  28.1030254  76.6426544
  22.5136986  27.4742603  76.3367233  22.7367840  28.9541664  76.5627823
  43.8747444   1.2346957  12.3316622  43.1541061   1.5559695  11.7897272
  43.8299789   0.2820802  12.2494946  76.1673660  11.8075953  68.1593475
  76.5896835  11.0207624  67.8147049  76.8429184  12.4838219  68.1084976
   4.1173120  57.4558449  36.2970390   4.9324694  57.0512886  36.0002441
   4.3420615  57.8608742  37.1346931  57.1265450  70.6641006  71.3918381
  56.9712486  69.7335968  71.2297516  56.5122147  71.1140442  70.8118515
  25.0179920  35.5100403  68.8659744  24.1745033  35.8711014  69.1387329
  25.2761326  34.9343491  69.5858231  47.1197815  64.5066223  66.8957748
  46.2194710  64.8293533  66.8567886  47.2173843  64.1764069  67.7888870
   2.5643380  24.9525452   3.7859395   3.1755943  24.5068169   3.1994889
   1.7662615  25.0546780   3.2674086  84.7787018  42.1843643  79.3266602
  84.2681351  42.7749100  79.8805618  84.1960449  41.4418221  79.1673584
  59.2848053  16.2355633  30.8357391  58.8027763  16.9981079  31.1557446
  58.7979698  15.4846430  31.1753540  59.1166534  27.8136597  65.6229858
  58.6577187  28.4797764  65.1112213  58.4192772  27.3241234  66.0591660
  15.5903368  16.5114632  15.3042898  16.4041748  16.6669159  15.7835941
  15.8488340  15.9598532  14.5659552  83.0305557   8.9239359  48.9716721
  82.2514420   8.6423111  48.4921799  82.7060242   9.1530924  49.8425331
  26.4208241   8.5420542  44.9059410  25.4845295   8.6305790  44.7277679
  26.4628639   8.1694889  45.7866554  49.0540924  24.8133316  17.1434937
  48.5922470  24.3180637  16.4670029  48.9719810  24.2763233  17.9316006
  85.1722488  71.0862350  66.8200073  84.9065857  71.1005554  67.7394943
  86.1060791  71.2957458  66.8372116  31.6531277  50.8544235  43.7924423
  31.0237103  50.9245605  44.5101776  31.7172203  49.9148788  43.6210365
  22.9002438  44.1589355  27.3436432  22.4816742  43.9087639  28.1673222
  23.7607479  44.4885597  27.6027031   5.8714185  32.9372978  34.3298111
   6.3435111  32.1141090  34.4551811   5.9433370  33.3854027  35.1725807
  41.9751930  60.0039215  35.9214516  41.0467186  60.1913300  35.7834435
  42.1683922  60.3725281  36.7834473  20.0189514   5.7729988  14.7594461
  20.8368416   5.4899135  15.1682844  20.0242653   6.7260804  14.8479805
  68.8953247  70.0409927  64.7825394  68.0129318  70.3811035  64.9306564
  68.7658234  69.1102371  64.6004715  22.0777264  51.9817543  66.3191528
  21.4696178  51.3144379  66.0011444  21.8724461  52.7595749  65.8004227
  60.7126732  55.2210732  10.7995834  59.8014832  55.5142136  10.8054810
  61.1939354  55.9430771  10.3954468  10.2779264  67.8099747  76.7905273
   9.7093534  67.1087952  76.4722443  10.4482441  68.3493500  76.0183258
  48.7121925   9.6346588  70.7853851  48.5681267  10.1354551  71.5883102
  48.7945366  10.2984095  70.1006393  17.3325520  53.0647316  61.7686348
  17.5498390  52.6161957  62.5858459  16.4381104  53.3797798  61.8988380
  66.2856750  53.1431541   6.1232615  66.7680817  53.3749542   6.9168510
  65.4498520  52.8024750   6.4419603  25.2861938   3.2200544   9.7191362
  26.0752506   3.4590766  10.2054358  24.8246708   2.6112158  10.2958040
  57.7230110  47.5654945  25.5236320  57.2361336  47.3251724  24.7353249
  58.1283760  46.7481689  25.8132668   6.5904989  35.4937820  13.4760599
   7.0008559  36.0162506  14.1651659   6.0727243  34.8407097  13.9468441
  18.8045998  47.7102509  25.0199966  19.2761726  47.7751122  25.8504448
  19.1624222  46.9270515  24.6019096  47.3073845  13.8376074  58.2076492
  47.1711235  13.0231781  57.7235298  47.3760567  14.5103235  57.5301781
  80.2474442  49.9374619  57.8949203  80.0744705  50.3820877  57.0650902
  79.4166946  49.9821396  58.3683014  49.3525543  20.8476639  74.7426834
  48.9401741  20.3177395  75.4248505  48.7047501  20.8781071  74.0386505
  46.3035202  60.1448288  50.5647926  46.8060226  60.4998131  51.2980804
  45.8083496  60.8922958  50.2296257  27.8086491  70.3290710  12.7309570
  27.1208878  69.6898193  12.9169035  28.6245041  69.8633728  12.9146357
  17.8430882  29.6163063   1.1453623  17.3405800  29.2910175   0.3984332
  17.1801548  29.9054089   1.7723950   9.9941330  38.6262131  88.1260147
   9.2330379  38.3822517  87.5992813  10.7091208  38.7001534  87.4939041
  31.0041027  64.7114563   4.5483294  30.8517933  65.6558304   4.5827780
  30.4772682  64.3575821   5.2648854  78.2672119  64.9179382  44.5352592
  79.0131760  65.5155258  44.4836159  77.8664703  65.1078491  45.3835335
  23.6328430  29.6268387  25.4734001  23.2737789  28.7514305  25.3286095
  23.6250706  30.0351067  24.6076698  71.1374893   9.2902479  50.9345093
  71.1407852  10.2177219  51.1711807  70.2120514   9.0457058  50.9370461
  12.0941725  46.4639435  87.5268478  12.9407129  46.9079094  87.4768906
  12.3141251  45.5336266  87.5754852   3.8589058  47.9936829  76.3111267
   3.8642061  48.4806061  77.1352081   2.9570971  48.0629463  75.9977951
  12.5144129  53.9650612  72.0879288  11.7558193  53.3979111  72.2261581
  12.6799297  54.3568993  72.9454269  56.9059944  41.8886528  22.7123451
  56.1515732  42.0610619  22.1490002  57.5550079  42.5414658  22.4499512
  71.5640106  32.4850960  40.9722328  70.9709015  33.1964607  41.2139168
  72.0654678  32.8316536  40.2342110  13.7699785  41.4499016  34.8106880
  13.5895014  41.8925476  33.9813995  14.7243767  41.4574699  34.8834801
   9.0096092  71.4156952  76.6275635   9.5169802  70.6713028  76.3040161
   9.5909824  71.8480530  77.2531128  24.5015621  65.6386108  85.7466125
  25.2802277  65.5189743  85.2029266  24.0404797  64.8015518  85.6921234
  52.9038429  14.2668867  53.1486740  52.9334755  13.9351587  54.0460625
  53.6480293  13.8498812  52.7144737  83.1776733  70.3809509  40.7794762
  83.0349121  70.2972488  39.8366928  84.1281433  70.3345261  40.8828468
  26.7524128  53.3653526   5.3785658  27.1348648  54.2396049   5.3034368
  26.3023319  53.3726044   6.2233186  13.5022259  64.5720978  42.7032547
  13.4630737  64.5598450  41.7469330  14.3291864  64.1388931  42.9146805
  63.6098557  21.4297333  46.6001663  64.4681091  21.8203850  46.7645416
  63.6229935  21.2055149  45.6696892  51.7857285  63.3219872  72.1124954
  51.6545486  64.2100830  71.7803726  51.1921959  62.7812805  71.5913544
   3.7163777  50.3489609  62.4405823   3.7105105  50.7727127  61.5823097
   4.5613537  49.9010391  62.4807777  48.2177658  49.0825386  66.0302277
  48.3006859  48.2311897  65.6006165  48.0402069  48.8719444  66.9469376
  38.3542900   6.9421511  64.3493042  39.2870407   7.1542649  64.3841553
  37.9738541   7.6250253  63.7968712  79.7432480  67.2129974  36.4922905
  79.4480667  66.3931808  36.8885193  79.1287766  67.8710098  36.8173599
  48.2385063  29.8648033  20.0425339  48.6000710  30.3534241  20.7819614
  47.3019524  30.0617485  20.0602951  19.9993324  40.3505592  10.4905510
  19.1510773  39.9117775  10.5550680  20.5415211  39.9223022  11.1530161
  55.6104507   4.3230252  13.4626217  55.9588509   4.0300150  12.6206036
  55.3099861   5.2170787  13.2994576  36.7000923  43.6380005  29.1042194
  37.0782089  44.3380547  29.6363640  37.4564476  43.1541939  28.7724285
  37.8861618  54.1825218  10.0547562  37.7357597  53.6763382   9.2563896
  37.6095772  55.0710678   9.8306618  51.7746468   5.4819369  27.0564404
  51.1548767   5.3760161  26.3347092  51.2633858   5.2867546  27.8417740
  75.0102005  37.2467003  88.3176498  75.1523514  38.0735779  87.8568878
  74.5094528  36.7121468  87.7014236  25.9958191  45.1388168  13.9206591
  25.8607063  44.2107697  13.7290573  25.4279861  45.5965118  13.3007288
  60.3815460  29.2015476   7.6184082  60.5997734  29.9750652   8.1382914
  59.4452133  29.0694714   7.7669749  54.6095314   2.3937564  52.9952545
  53.7155113   2.0564830  53.0518990  54.5149231   3.2564812  52.5915375
  49.7376099  55.6194649  43.7639961  49.8254662  56.4763985  43.3466454
  49.4387169  55.8150749  44.6520424  34.8740921  41.8071709  12.5852299
  35.0534325  41.6741982  11.6544304  35.7272873  41.7145500  13.0091553
  20.2016449  48.8138008  46.5789185  19.9129715  49.7193108  46.4650993
  19.3904095  48.3119583  46.6581764  23.6389446  49.3117523  81.2499924
  23.3443375  48.6537590  80.6203232  22.9877453  50.0106010  81.1884842
  71.9876709  16.2147923  57.5106049  71.4964523  16.2974110  58.3279877
  72.3935089  15.3493814  57.5614929  71.0325165  55.5161133  87.1732178
  71.1813889  54.8187218  86.5346985  70.1797180  55.8802223  86.9357605
  67.9837112  66.2785645  45.6434975  67.3180847  66.6661530  46.2117805
  68.3488922  65.5590973  46.1585159  47.6328888  59.9972954   1.8102000
  48.4179306  59.7583466   2.3029919  47.9248734  60.0379295   0.8995270
  56.7370262  51.5910606  51.2980728  55.9000511  51.1266861  51.2903442
  57.3559990  50.9629402  51.6703186  12.1022158  69.3760757  14.7893124
  12.1708965  70.2551727  14.4168739  12.1060762  69.5161438  15.7362013
  17.3020077  64.7077103  68.2029572  17.8217773  64.7207260  69.0066299
  17.4013119  65.5875244  67.8392181  56.2054443   9.0457697  62.8184586
  56.3285179   8.3373966  62.1865616  55.2796021   8.9963369  63.0563660
  60.9234352  70.5044403  32.9384270  60.3984985  70.1972275  33.6775436
  61.2152977  71.3781204  33.1986771  10.5292635  18.0726547  11.6208906
   9.8987455  18.6395168  11.1766539  10.1551895  17.1946373  11.5475178
  70.8967438  34.8668137  73.4321823  71.2840729  35.1142235  74.2718201
  71.4242783  34.1257973  73.1341248  51.4581604  48.8805847  62.8194771
  51.5046616  49.4763603  62.0717316  50.7626305  48.2637863  62.5913811
  62.2668800  19.8815956   5.6068702  61.3557968  20.1486244   5.7287383
  62.6455650  20.5665703   5.0558348  52.0218849  71.0279312  50.3901711
  52.9408417  70.7609634  50.4119339  51.6464005  70.5347214  49.6607933
  85.0247574   8.3429546  40.6731186  84.4784317   7.5767865  40.8484726
  85.6507645   8.0447779  40.0132408  82.7442322  37.7125130  36.5906792
  83.1707077  36.9578552  36.9966850  82.0586243  37.3330956  36.0409393
  36.1335182   4.0655546  79.3397217  36.5148506   4.2609587  78.4837799
  36.6691475   4.5609879  79.9592972  66.3037338  67.5041733  70.4208527
  66.7808685  67.0017700  71.0812836  66.4637833  67.0356293  69.6016541
   8.5456572  57.3716660  64.7419968   9.2168283  57.0339317  65.3350372
   9.0340166  57.8689461  64.0859070  78.9017639  33.0419884  60.9602051
  79.3364563  33.2198792  60.1261635  78.3856888  33.8291969  61.1340103
  33.1079330  12.4980116  28.8583241  32.3146095  12.0753117  29.1872597
  33.5438538  11.8202581  28.3417454  79.3226929  68.5265274  12.6097422
  79.6478806  68.4547653  13.5071459  79.7719345  67.8268509  12.1355324
  62.8179436  39.7147713  36.6680756  62.7659149  40.6685104  36.7305450
  63.2383080  39.5526390  35.8235397  38.3671913  15.2291946  72.7418137
  37.5851593  14.8510485  72.3397446  38.4445839  14.7802877  73.5836716
  53.4251633   3.0150735  55.8564034  53.2492867   2.5326805  55.0485687
  53.7237930   3.8753474  55.5614777  77.6819839  61.0028801  58.4594765
  76.7866516  61.3166237  58.3323059  78.1844025  61.4229469  57.7613716
  12.2915087  60.2749100  54.8524170  11.4843035  59.9214668  54.4786110
  12.4206629  61.1080132  54.3991089  31.4983006  54.4606781  10.7153053
  30.5942249  54.3037529  10.4428053  31.7179050  55.3123474  10.3375950
  70.2102585  62.1118507  31.6647816  70.7111511  61.5611610  31.0630512
  69.5608749  61.5209312  32.0460243  64.1777191  28.3620472  24.5735207
  64.8072739  29.0481453  24.3517857  64.5604401  27.5610332  24.2155609
  62.0674744  11.9496098  57.1441040  62.3276253  11.8785429  58.0625267
  62.2814827  11.0958958  56.7677994  58.7873268  57.8091736  65.5941391
  58.6917992  58.4984550  66.2514038  57.9260712  57.7517090  65.1804199
  43.9284859  34.4638557  11.4519262  43.8936691  33.7709122  12.1113586
  43.8215179  34.0064201  10.6179342  84.2275085  67.0298233  75.2390518
  84.0415878  66.5966644  76.0721436  83.5398865  66.7203064  74.6494675
   1.6932060  51.9458275  50.2365456   2.3850017  51.7962952  49.5921135
   2.0135875  52.6753922  50.7669449  19.1931076  62.5072670  40.9148445
  19.6319160  62.8490562  41.6938553  19.8627949  61.9860916  40.4719849
  55.7329178   6.0501623  58.5319824  55.9838486   5.2609468  58.0519753
  54.7860413   6.1151533  58.4077530   7.6233368  59.5159950   0.3835281
   7.0499611  60.1622162  -0.0286263   7.1438913  58.6905708   0.3125716
  44.3340378  49.4205551  41.1498337  45.1981773  49.1684761  40.8243408
  44.3110313  49.0911026  42.0482597  38.5894012  62.5118866  19.1220970
  38.5785103  62.3711281  20.0688286  39.4861412  62.3043442  18.8593941
  61.5276146  41.1709671  83.4807053  61.9163475  41.8644676  84.0137863
  60.9189148  40.7274590  84.0714798   8.0522699  68.0411453  85.4103622
   8.9638720  68.1909485  85.1598129   7.8921714  68.6667252  86.1169357
  55.0924568   7.9144969  87.6443100  55.2899628   7.0251222  87.3506470
  55.5888557   8.0142946  88.4566269   5.2965627  69.9201050   2.9419086
   5.7124228  69.9815750   2.0819588   5.8291774  70.4806366   3.5061393
  37.5789146  48.0381165   6.9507418  38.2387581  47.6187325   7.5029736
  36.7428284  47.7820244   7.3401108  47.2533798  71.3890610  39.6660500
  48.0086021  71.9565735  39.5118027  47.1101990  70.9480286  38.8286591
  68.0242081  50.1166420  86.7709961  68.5902939  49.7830200  86.0749512
  68.1444702  49.5004349  87.4935303  41.5472145   2.4543526  60.9358368
  42.4508514   2.7487247  61.0499344  41.1537819   3.1075335  60.3572197
  70.1099854   0.6172236  80.1279068  71.0025940   0.8629469  79.8847885
  70.0430984   0.8447112  81.0552673  17.7619114  51.8776665   1.4976934
  18.1422443  51.5831642   2.3252475  17.3496532  52.7154770   1.7082826
  36.1687546  60.5693932  84.6977768  36.2073860  61.5222893  84.6157532
  36.7367477  60.3698273  85.4419479   5.0509934  20.6097336  67.5993805
   5.1183181  21.4224167  67.0981369   5.1096134  20.8867321  68.5137482
  10.4029884   0.5089796  73.4374084  11.1981411   0.8742880  73.0494461
  10.0854721   1.1955016  74.0240097  62.8437576  23.5283184  50.1113472
  63.7232742  23.2125988  49.9039803  62.8335724  24.4324417  49.7971954
   0.3743030  35.7155609  70.4886169   0.5048465  36.2751122  69.7230530
   1.2314796  35.3190842  70.6444626  81.5889511  19.9298859  39.5741577
  81.5890961  20.8722439  39.7420692  80.8107834  19.7825108  39.0365982
  43.1693115  15.9000044  82.6160202  43.5252419  15.0313530  82.8030777
  43.1266403  16.3303394  83.4699631  55.3551025   8.9548550  85.3056793
  55.4232483   8.6033010  86.1933746  54.5820465   8.5271149  84.9373627
  30.0745125   2.2599356  34.1886024  29.2599506   2.7489781  34.0721703
  29.9840050   1.8445765  35.0462265  63.1663704  23.5047817  36.0222778
  63.2856331  24.4494534  35.9242783  63.2909126  23.1548500  35.1400833
  75.7974091   1.4950522  14.2431831  76.4589920   1.1860667  13.6242657
  75.1140671   1.8770858  13.6924286  39.7626495  60.3765869  58.6157684
  39.0222969  60.9213943  58.3487549  39.3902473  59.5010452  58.7205162
  23.5849571  46.0904808  35.2862816  24.1239014  45.5847588  34.6779900
  23.9645081  46.9690437  35.2690392   8.6350813  28.7260933   1.7108071
   9.3599606  28.1606560   1.9773829   8.3894043  28.4071770   0.8423789
  25.0040684  71.3014832  11.1807547  25.0119019  71.2176132  12.1342411
  24.7682781  70.4289856  10.8655024  63.6799393  21.6418514  66.0361176
  64.5103531  21.4712257  65.5916824  63.3935471  20.7828960  66.3466187
  73.4778748  32.2919807  11.5183220  73.7540436  33.2055206  11.4447708
  74.1733017  31.8715191  12.0241175  70.3597641  53.0759964  62.3112335
  70.8953934  52.2894669  62.4146690  69.8393173  52.9096947  61.5252838
   0.7216868  64.8206329  30.3923779   0.0502546  64.5677261  31.0259762
   0.6387731  64.1792831  29.6866665   7.9381852  47.0210800  88.3395844
   8.3747616  46.2628899  88.7278900   7.4145389  46.6565018  87.6260605
  35.1423531  47.1428375  51.7462578  34.7988396  47.7815437  51.1215286
  36.0667191  47.0539932  51.5141296  19.4636917  41.2015419  73.4758148
  20.0277805  40.6471214  74.0149384  18.7538052  41.4630470  74.0622559
  21.0731544  64.7297211  49.5137863  20.5638790  64.1637039  50.0938644
  21.0191898  65.5962906  49.9167557  58.8568382  56.3026772  14.7416811
  59.2547989  55.4904671  14.4283504  57.9216995  56.1933403  14.5690737
  50.6618118  54.3166122  34.9147682  50.7365303  55.2631340  34.7933426
  51.5399170  53.9817619  34.7330093  26.6609859  21.8768291  77.7603378
  26.7651215  21.1157112  77.1892929  25.7949467  22.2221451  77.5436249
   0.6145856  41.9219589  48.5886879   0.8574947  40.9962387  48.6050568
   0.1728506  42.0684929  49.4251251  21.1885967   6.4413676  20.3055687
  20.6688595   6.1838336  21.0670033  21.8175659   7.0762038  20.6485157
  70.3729706  56.9057121  45.7454033  69.4607849  56.9912109  45.4682159
  70.8394852  56.6363220  44.9541855   8.7307453   0.4235178  42.3950806
   9.1803713   0.7202017  41.6038513   8.9271135  -0.5119575  42.4456520
  71.3146362  62.7976608   8.3852959  71.3073730  62.8010483   7.4281297
  72.2313156  62.6490364   8.6173334  79.9064102  12.0594244  43.7551079
  80.0925064  11.1369009  43.5803223  80.7565384  12.4364986  43.9816818
  12.5625782  37.8801918  12.8275728  13.3155107  37.3364258  12.5959663
  11.9283943  37.2660789  13.1975842  24.3261528  51.2676506  89.2935715
  24.3404579  52.0096970  88.6890945  24.6103458  50.5222664  88.7645493
  33.7323227  62.9280319  34.5887718  33.5560493  63.7830124  34.9814110
  32.9325981  62.4247627  34.7417259  16.0926609  53.8434639  13.5722055
  16.6335297  53.0806541  13.3677301  15.9939508  53.8188934  14.5239849
  19.0614681  20.2845020  70.0074692  18.1064663  20.2263126  70.0360413
  19.2783222  20.2091217  69.0782089  72.3321686  31.1572380  43.2088242
  71.8808975  31.4522972  42.4179192  71.6665573  31.2022018  43.8952484
  86.7401352  25.7499962  42.5608253  86.7528839  24.9424152  43.0745239
  85.8113632  25.9657555  42.4767761  28.1637020  16.2972412  84.8746948
  28.9819775  16.1344223  85.3438950  27.6093979  15.5479565  85.0927582
   9.4828548  49.6506119  27.9311962  10.2334290  49.1835861  27.5641003
   9.8532705  50.4598427  28.2835732  77.6203079  17.8868484  34.8379478
  78.2464752  17.8967972  35.5618629  76.9163437  18.4698544  35.1221466
  82.3714600   6.1913295  51.9433861  82.8453674   5.5772033  51.3825912
  82.3374863   7.0020628  51.4356575  45.7847252   2.9658151  17.8701401
  46.7125397   3.0072858  18.1018238  45.5472336   2.0471408  17.9961071
  11.3844881  53.3939438  40.8699722  10.9807625  53.9432411  41.5419159
  11.9010725  52.7552185  41.3613052  61.6862717  28.2679844  74.7007446
  60.7980385  28.6237545  74.7272034  62.1034737  28.7197495  73.9672012
  71.3322296  36.7396774   4.9194250  70.6453629  36.4045563   5.4957418
  70.8776703  37.3410683   4.3295655  75.4867325  61.8084335  81.7113571
  75.4832840  62.2851105  80.8813019  75.5794220  62.4890251  82.3780212
  53.4044342  70.8688889  45.7822571  52.4519463  70.8826141  45.8760986
  53.6601448  71.7911301  45.7997856  45.3903732   8.0460272  23.1022129
  45.8166351   7.6271176  22.3545189  45.3616905   7.3648777  23.7741089
  80.9238129  29.4666309  84.3029861  81.8260727  29.7605343  84.1773758
  80.7648010  29.5754700  85.2405930  55.1109924  23.2325974  40.9496002
  55.9043999  23.0262337  40.4554787  55.1048698  22.6000004  41.6679420
  19.4371567  33.3381424  75.6391068  19.8198910  32.4864883  75.4283218
  20.1868267  33.8876648  75.8676910  75.0203400   2.0949261  39.0405235
  74.6172333   1.4791092  38.4285507  75.4403915   2.7482190  38.4810638
  20.7888508  46.7697220   4.2135129  21.3388882  47.4375267   3.8039694
  21.4025154  46.2193794   4.7001052   0.2928675  24.7832584  72.1188507
   0.2569329  25.7170181  71.9113998   0.0247641  24.7312355  73.0362625
  30.3229313  13.4129314  67.8439102  29.3834839  13.2415333  67.7783890
  30.5793896  13.6820459  66.9618454  41.8201180  47.4793777  71.4795151
  41.9064484  46.5629158  71.7419586  41.9882545  47.4755249  70.5372009
  54.6296806  42.5923042  20.7598934  54.0516434  41.8328247  20.8326187
  55.2473526  42.3577385  20.0672951  83.4721146  15.5750256  51.2367783
  83.1863022  15.5696287  50.3232613  82.7498398  15.9866009  51.7112885
  68.9908066  21.0391064  82.7818680  69.7273636  20.5002747  83.0706329
  68.2155228  20.5704288  83.0909119  55.6625366   6.8991532  17.5179691
  56.4246025   7.0331826  18.0814667  55.8940582   6.1436772  16.9777050
  23.5982819  64.2375641  20.0309048  24.4665489  64.2976074  19.6324844
  23.6141014  64.8825378  20.7380009  74.0067368  40.6087761  48.9292679
  73.4356918  40.5834541  48.1614838  74.8759232  40.7969017  48.5751991
  29.7318535  58.7942162  69.7503052  30.3978825  59.0251465  70.3978500
  29.1021824  59.5142097  69.7871399  10.4489126   5.2130623  18.3346844
  11.2167568   4.6778679  18.5352173  10.1704664   5.5595770  19.1824036
  72.4620895  41.6942177  35.8440628  73.3842621  41.4670563  35.9633865
  72.2968597  41.5437851  34.9133110  45.0801811  14.7070723  68.9005585
  45.4735298  15.5356617  69.1743240  44.3853836  14.5490408  69.5397110
   0.0292360   6.0716314  21.3878345   0.4072772   5.8649306  20.5330887
   0.5732102   6.7836785  21.7244549  59.6826286   7.2397799  74.4527512
  60.4057503   7.3651123  73.8382416  59.6354790   6.2918515  74.5770111
  34.8407822  66.4015350  33.4836540  34.8206711  67.0701447  34.1683311
  34.3018990  65.6894684  33.8283386  69.0826950  34.6747971  27.8803482
  68.6070328  35.4294510  27.5332527  69.9917297  34.9694557  27.9357586
  50.9240913  62.3715057   3.2378862  50.7319412  62.8013000   4.0713034
  50.2106133  62.6408386   2.6594067   6.8391547  26.4320793  68.4422760
   6.1639361  27.1104660  68.4321442   7.6303902  26.8860016  68.7323380
  33.9966621  10.4373379   2.9889967  33.7369461  10.7607403   3.8516614
  33.6135941   9.5617237   2.9361677  73.0224380  51.3369484  36.8328476
  72.4339066  52.0841293  36.7252197  73.0816422  51.2132034  37.7801666
  63.5485840  41.0341187  29.0921116  64.3385849  41.5630035  29.2034874
  63.1866417  41.3180428  28.2526989  39.3977203  62.9826851   9.2398472
  40.2736473  62.6654243   9.4596901  38.8511772  62.1968575   9.2405624
  73.3078918   8.2800646   2.5465999  72.6487503   8.4043512   3.2294734
  73.2689590   7.3454933   2.3433912   4.1429768  24.9973640  41.2882614
   3.6952884  25.3018970  40.4989166   4.7185020  24.2965431  40.9819107
  68.6477737  52.5693092  84.2401962  69.2538528  52.1802750  83.6096802
  67.8736801  52.7912674  83.7227631  47.6615219  35.5077705  78.3842545
  47.6381798  35.0004959  79.1956482  46.9398537  35.1575470  77.8619843
  75.5475006  20.3168430  49.3614349  76.3428574  20.4521561  49.8765335
  75.5698166  21.0085678  48.7001839  32.8330040   4.4293432  65.7292328
  32.8197441   5.3642349  65.5242081  32.8265076   4.3937879  66.6857452
  42.1801491  38.3247375  72.4994049  43.1228256  38.3502312  72.6635284
  42.0685005  37.6286659  71.8519135  57.1391449  32.1845741  16.2970505
  57.2386971  32.4696846  15.3887367  58.0356483  32.0613708  16.6090374
  36.9792252   0.6830608  23.2831211  37.0539322   1.6311024  23.1741810
  37.3251839   0.5146893  24.1595898  53.3195343  40.9939117  68.1110077
  52.6293907  40.3900871  67.8365402  54.0466728  40.8132935  67.5152893
  16.5536594  38.0698929  26.2543087  16.9273300  37.1887321  26.2418289
  16.4140396  38.2577209  27.1824570  19.8877220  14.0105639  70.4039459
  20.6542225  13.8946085  69.8424606  19.2413101  13.3958702  70.0567627
  83.5970459  10.3345108  22.4955444  83.0062866  10.8296947  21.9280720
  84.4560852  10.4232960  22.0827370  39.0241623  20.7321434  23.7071323
  39.5770950  21.4902821  23.8961296  38.9996567  20.2426453  24.5293388
  60.5789604  55.2698898   6.8285975  60.8864136  54.7315331   7.5578957
  59.6895790  55.5229378   7.0759778  10.6755524  23.4975243  36.7262306
  11.4239073  23.6935844  37.2899284  10.0901165  24.2468033  36.8361320
  45.2443924  69.4551315  45.9677620  45.4184189  69.3812256  46.9061012
  44.8556099  70.3236313  45.8639450   9.2434340  69.2883606  18.3981419
   8.8822174  70.1531448  18.5928326   9.1616278  68.8041077  19.2197514
  50.7386360   0.3260971  56.3681412  50.2056656  -0.3823661  56.0072327
  50.6122055   1.0545295  55.7601700  72.6118851  11.3865232  42.7638512
  72.2003555  10.5685492  42.4849319  73.5292282  11.1554842  42.9098930
  43.5767174  46.9804039   0.0515006  43.0457115  47.5605965   0.5970636
  43.1501465  46.1265907   0.1240941  85.9071732  52.7656441  28.2437820
  86.3898773  52.0765228  27.7873440  85.5876999  52.3456039  29.0423679
  82.1306610   8.7844610  16.1591625  81.3199692   9.1473904  15.8023758
  81.8445663   8.2187119  16.8763142  63.0872040  23.0158329  52.8081474
  63.1124229  23.0995064  51.8549423  62.1560364  22.9432812  53.0176582
  75.0000992   0.5816128  22.2084198  75.6414719   0.4370751  21.5127296
  75.4105988   0.2164948  22.9922657   7.2124271  21.2388134  20.7423649
   7.7457776  21.8826180  20.2762260   6.7390895  21.7500668  21.3987217
  79.3187256  17.0957184  48.7121353  79.9010773  17.5192833  49.3427620
  78.6345749  16.6957722  49.2489929  71.5523529  13.1893101  38.4725761
  70.8983841  13.8882017  38.4623680  71.6832809  12.9973450  39.4011421
  62.4718819  45.4194946  52.2209892  63.3696518  45.1371994  52.0462112
  62.4598618  46.3448372  51.9763832  65.8008881  25.6186714  42.1025963
  66.3648148  25.6962357  41.3330498  65.7536087  24.6775913  42.2710114
  21.1531582  46.3052216  10.5587111  22.0543556  46.2677650  10.2382908
  21.2119999  46.7877350  11.3833017  33.8330956  27.5176449   7.8014688
  33.8902817  26.7893372   7.1829782  33.1035309  27.2868042   8.3765163
  29.5596542  60.8250237  44.6318588  28.9208622  60.1704941  44.9142914
  29.9948025  61.0989838  45.4392128  40.1577682  61.4272537  63.7409515
  40.7483597  62.0148888  63.2696533  40.5026817  60.5513649  63.5675163
   2.5709057  27.4029026  61.1094589   1.7652868  27.8215790  60.8062744
   3.2371163  27.6826115  60.4816360  47.0738716  23.4268970  22.5710258
  47.0219650  22.5110474  22.8444443  47.3567657  23.8955994  23.3562145
  23.0663433  12.1848221  74.9303741  23.0090866  11.9518251  75.8570175
  22.9109173  13.1291161  74.9107971  65.1779175  64.7313232  20.0317764
  65.3379288  64.4239502  20.9240494  64.2288513  64.8466034  19.9847431
  84.5460358  69.5467453  75.8370438  83.7796707  69.7833023  75.3145905
  84.5404434  68.5896606  75.8507004  70.5961380  31.6227837  74.2903137
  71.0927353  30.9136791  74.6987228  70.0305939  31.9523010  74.9887543
  53.2973557  56.2857590  25.3239212  53.9351654  56.9891090  25.4452858
  53.6409225  55.7746964  24.5911121  83.9102249  69.0115356   1.9328423
  83.7191849  68.0738754   1.9557999  83.0584183  69.4324341   2.0490398
  50.0047531  48.8926277  32.1136589  49.1006355  48.8529167  32.4254684
  50.2799530  47.9774246  32.0598106  47.7454796  70.5421600  61.8923645
  47.8685226  71.1538849  62.6182289  48.6230049  70.2051697  61.7117615
  18.8525219   5.5765991  57.9067917  18.4744129   4.8539743  58.4078712
  18.7000961   5.3393393  56.9920769  16.5456791  69.4703217  69.9075089
  15.9609671  68.8007889  69.5524445  17.3935242  69.0324402  69.9826813
  75.8391876  32.1391258   8.6573038  76.2835312  32.9740143   8.8047943
  74.9345245  32.3810272   8.4590349  75.4742432  17.1396351  10.2047997
  75.8756866  17.9165745   9.8156500  75.7355194  17.1705227  11.1251326
   6.4664869   6.6807981   7.3492818   6.8034492   6.4407654   8.2124577
   6.6089110   7.6255341   7.2907948   5.9615703  36.1028442  51.5557137
   5.9535213  35.4557228  52.2609825   5.2114196  36.6679344  51.7405853
  16.9096241  42.1041870  28.2216835  17.0080357  42.8275719  27.6026001
  17.3777275  42.3937683  29.0047874  66.0011902  40.7154274  76.5584946
  66.0111618  39.8691521  77.0056534  66.5692368  40.5912590  75.7981339
  18.9661655  54.7876663  66.1757584  19.4705353  55.2249603  65.4897461
  19.0245152  55.3764725  66.9281845  76.5573578   8.3491526  88.1139755
  77.4556122   8.2329025  88.4235916  76.6323395   8.3591576  87.1597672
   1.5893646  48.1851006  33.7562904   1.9132009  47.3364334  34.0581551
   2.1918986  48.4361305  33.0561714  14.5621166  67.2563095  43.2210426
  15.3295527  66.6846924  43.2440262  13.8173733  66.6608887  43.3051186
   3.5673361   7.5746222  42.9444351   3.0311427   8.3593464  43.0581703
   4.0656700   7.5049548  43.7587090  27.3402290   9.0338526  30.6504250
  28.0835247   9.4762030  31.0603867  27.5950909   8.9377556  29.7327976
  47.8678474  23.8169594   5.2803774  47.6915321  24.3979015   6.0204120
  48.7333908  23.4516010   5.4636135  36.3333206  15.5174198   1.6933417
  36.1699944  15.6291704   0.7568225  37.2648506  15.3047199   1.7503061
   2.3447313  55.2775307  81.7706299   1.7006588  55.4957924  81.0970078
   2.2830267  55.9941788  82.4021683  37.2214203   2.9780185  33.2095871
  37.6158066   2.7024827  32.3820801  37.9653816   3.2244885  33.7591400
  80.8414230  26.7724876  66.3874130  80.4730301  26.1662388  67.0300522
  80.3170090  26.6334019  65.5988235   9.6579628   6.3842368  72.1010742
  10.4117079   6.0403404  71.6216660   8.9017172   5.9633203  71.6922302
  59.0430603  47.8713684  47.9647522  58.1260948  48.0809174  48.1422234
  59.2036591  48.2220078  47.0886879  69.2051392  47.3837013  53.9508247
  68.9947281  46.4539261  54.0372963  68.5749207  47.8258018  54.5196877
  14.4158707  49.2862244  18.4826069  14.9212389  48.8351631  17.8063126
  15.0330763  49.4031334  19.2048416  29.0496845  69.7650757  45.8854332
  28.1087856  69.8373032  46.0458107  29.1835270  70.2020111  45.0443573
  48.4762344  58.4053535  66.0814362  49.0213661  58.9405098  66.6582108
  48.0547905  57.7757568  66.6664352  76.4843903  39.7681808  44.3439598
  76.9052658  39.5730591  45.1812286  76.3445282  40.7149544  44.3610878
   7.0806828   8.7055101  41.2024193   6.8648763   8.0596313  40.5297394
   7.7733417   8.2922287  41.7178345  48.2375488  48.9348068  81.0532303
  47.9093628  49.8333359  81.0189743  48.4879570  48.7367134  80.1508484
  61.5441780  39.0894775  21.7402210  60.6543770  38.8167992  21.9641190
  62.0927200  38.3462372  21.9910755  21.8845692   3.1931705  83.9053955
  21.3238621   3.6953828  83.3141098  21.6904011   2.2785575  83.7004242
  84.7340698  54.0386238  12.1675100  83.9570923  53.8014679  11.6612473
  84.5767517  53.6674423  13.0356722  73.5138016  54.5970230  20.4140606
  73.0125427  55.4074669  20.5043526  73.0440903  53.9632263  20.9561920
  24.5144005  58.6849709  32.4029465  23.7170582  58.2307777  32.1305733
  24.5938282  58.4902954  33.3367691  69.0385208  68.6975555  74.4299011
  69.2733994  68.6499557  73.5031815  68.1412582  69.0309448  74.4327545
  83.0558243  21.9809818  19.0196838  82.2625504  21.4746265  18.8449078
  83.7289581  21.5651321  18.4809837  68.7506409  27.5494499  10.2545404
  69.1604614  28.0525455   9.5508547  69.2790375  26.7539482  10.3193407
  17.2193489  12.4826612   8.9056511  17.4623775  12.5365973   7.9813890
  16.2873669  12.7003679   8.9213448  56.8375931  57.3785019  18.9295025
  57.0827522  57.8246956  19.7400818  57.5205612  57.6235542  18.3052120
  43.3049774  36.7070808  23.6693382  43.6815109  37.5244331  23.9955101
  42.3587532  36.8438721  23.7159920  81.7330704  23.7736359  45.6039009
  82.2962341  24.2504864  46.2135696  80.9880447  24.3570614  45.4597282
   8.9619637  39.4484253  31.2520981   8.9846334  40.3653870  30.9784164
   8.8950882  39.4848442  32.2062645  84.2711258  52.7322159  14.6984520
  83.5674133  52.2839470  15.1675730  84.8640366  53.0333633  15.3869228
  83.8586960  38.0355453  46.6253777  84.0704193  37.8106346  47.5313721
  84.6823196  38.3587227  46.2600861  83.9822235  49.1951866   6.2792134
  83.4312134  48.9571724   7.0248446  84.1951828  50.1171875   6.4234266
  22.2487354   2.9217367  13.8000479  22.8750954   3.6374679  13.9079075
  21.9672985   2.9852540  12.8873653  33.1945229  13.6007900  18.6730843
  33.3731041  13.0095158  19.4043407  34.0469627  13.9788332  18.4570713
  12.2772608  48.8875275  22.2778416  13.2306528  48.9560394  22.2270412
  12.1211433  48.1619263  22.8822937  53.9896774  41.2260170  62.9602623
  53.1756439  40.7529716  63.1329079  54.6791344  40.6338310  63.2605934
   3.6589053  15.2609825  63.6208954   2.7031720  15.2674513  63.5683250
   3.8872340  14.3364067  63.7171097  18.9797955  19.0914497  67.1955643
  19.4256210  18.2616787  67.3657074  18.0709038  18.9315109  67.4496689
   2.8554096  37.6354141  36.4463158   3.4286594  37.6550217  35.6800041
   3.0488098  38.4495964  36.9109993  30.8494606  11.4963522  84.9990463
  31.3087158  10.6730194  84.8333969  31.0534000  11.7051487  85.9106598
  36.0746918  17.5446835   3.5597682  36.1114273  18.2220631   2.8844607
  36.3009720  16.7359829   3.1003866  13.3574381  58.4151802  51.7694359
  12.5589991  58.9259224  51.6357689  14.0165720  58.8565140  51.2337112
  36.2547302  58.6796455  18.4344158  35.9729462  59.5667534  18.6577415
  35.9640045  58.5563469  17.5308075  32.1562233  40.1707458   1.8515971
  32.1043320  40.5279083   0.9650463  31.5505409  40.7080879   2.3621285
   3.6888647   0.8898821   6.1503148   3.0084810   1.5234520   6.3781285
   4.1612511   1.2965263   5.4238691  58.6295624  65.8277969  56.2332497
  58.7211647  64.9314575  56.5563774  57.8494759  66.1631393  56.6751137
  52.3893242  12.4616184  79.2902832  51.6389465  11.8993025  79.4825592
  53.1040154  12.0931921  79.8096161  43.1767578  29.5976143  12.3116236
  44.0007820  30.0672035  12.1823826  42.8508530  29.9132538  13.1544695
  83.0117493  52.3444214  43.5873718  83.6856155  53.0064201  43.7419662
  82.5971985  52.6116600  42.7670288  62.2085037  30.0222855  88.5846405
  61.3446655  29.8761311  88.1990891  62.3733788  30.9563332  88.4557877
  38.9607773  34.7318306  29.3936825  39.1982880  34.6921692  30.3200989
  39.4933739  35.4442940  29.0401669  29.7329140  54.2155151  50.2924919
  29.3646259  53.9623146  51.1389465  29.3045502  55.0456314  50.0835800
  22.4889164  63.3987694  52.7220535  23.0381489  62.6811104  53.0375633
  21.9905891  63.0187607  51.9985237  67.2020569  50.4023247   8.5488243
  67.9110413  50.5969353   7.9358869  66.7370148  49.6661987   8.1512241
   6.4899783  39.7201958  62.7820435   5.8222232  39.5602798  63.4489479
   6.9856014  38.9024620  62.7384453  40.2037735  49.8612022  28.8809853
  40.5352020  48.9952393  28.6433010  39.5789871  49.6932030  29.5864277
  59.1640625  32.2828865  70.0680618  58.7053909  31.5211849  70.4225540
  59.7022972  31.9300156  69.3595276  59.8821564  60.1215744  21.9885292
  60.4708633  60.8716469  21.9045715  60.1254005  59.7182884  22.8218498
  57.6865959   1.1723114  34.5718765  58.2345581   1.3479921  33.8069572
  58.3033028   1.1243169  35.3023605  34.2406693  67.6690826  36.1572151
  35.1744537  67.5025711  36.2858810  33.9845085  68.1949005  36.9149284
  68.3835068  19.9986897  40.7139473  67.8293839  19.4921169  40.1201782
  68.5830078  20.8001480  40.2301102  60.1623573  48.7417755  34.3415985
  59.5671387  49.4904709  34.3041420  59.5863495  47.9817619  34.4241829
   5.7638278  59.6851196  56.9463387   5.1179905  60.2164268  57.4119987
   6.4394269  59.5025063  57.5993690  56.7326775  41.9964867  25.4494152
  56.5818443  41.8025742  24.5242767  56.1267128  42.7108231  25.6462955
  49.2400284  70.8806229  33.8728371  49.1021805  71.3099136  33.0284805
  48.3825607  70.9064484  34.2974777  10.4755812  62.0314140  63.6799965
  10.4642935  62.3568497  62.7798882  11.3827324  62.1439018  63.9639931
  57.6009903  35.2863426  63.4396782  58.3866386  34.9079819  63.0449181
  57.9316406  35.9656906  64.0273743  43.6346359  62.1967773  22.9195900
  43.4016418  63.1006203  22.7074223  44.3810692  62.2750053  23.5136909
  37.2861443  11.3708982  29.2245579  36.7095337  10.9842758  29.8835526
  38.1617661  11.0682974  29.4652863  11.1937132  47.7207108  74.8686676
  10.4283953  48.2818069  74.7434158  11.9308176  48.2492027  74.5627289
  81.2337494  25.6592007  41.1148949  80.9416656  26.3875923  41.6629486
  80.6707382  24.9278278  41.3685493  70.6921158   7.4999194  31.7946644
  70.3932648   8.4092312  31.8029251  70.0471039   7.0406895  31.2567997
  13.9324846  52.7228661  68.2825241  14.1604624  51.9246864  68.7591476
  14.4584398  53.4073296  68.6961746   3.7910738  40.2707748  35.4535141
   4.2073245  41.1267776  35.3523903   2.9569538  40.3539658  34.9913940
  69.3859482  33.2163353  57.9053802  70.1711655  32.7037354  57.7132568
  69.5296249  33.5520363  58.7901955  83.1564331  31.3125420  85.4930191
  82.8511505  30.7182045  86.1784363  83.6402359  30.7511425  84.8872147
  77.3857193   5.6352439  30.1128368  77.0324249   6.5162201  30.2365246
  78.3338470   5.7607250  30.0737019  75.1798019  22.0033226  19.6718121
  75.0575714  22.8655109  20.0692062  75.7285461  21.5277596  20.2954693
  42.4200935  58.5665321  84.5272675  41.9749794  57.7814980  84.8463669
  43.1098251  58.2340088  83.9528656   3.5382721  31.7908630  33.6553307
   3.8713326  31.2523136  32.9375076   4.2741423  32.3550453  33.8928680
   1.9281753   6.4454322   4.6126666   2.0225616   7.1416435   5.2627535
   1.0788853   6.6127801   4.2040920  69.9024658  39.7790794  87.3875427
  70.2180023  39.0890160  86.8040314  70.6525040  40.3641586  87.4941025
  65.2709045   4.3959684  36.3182526  64.9055023   4.5348811  35.4445190
  64.5231705   4.1232657  36.8499985  24.0339794   1.3789592  18.4607353
  23.3365536   0.7779031  18.7225780  24.8090305   1.0635607  18.9255466
  79.2778931  57.0652580  31.1189098  80.1416245  56.6533585  31.1421528
  78.7992630  56.5802650  30.4466553  30.1240482  66.7247543   7.8537793
  30.8909492  67.0814743   8.3019333  29.4003887  67.2847061   8.1348543
  32.3529472  31.6226654  20.2291279  31.6385784  32.2522354  20.1314163
  33.0343933  32.1044922  20.6978569  14.3696871  63.1096077  81.2143402
  13.7041054  62.4658470  81.4568481  13.9243393  63.9537315  81.2874832
  66.1024017  20.0515003  20.8613625  66.1581039  20.9136715  21.2734184
  66.5516052  20.1573563  20.0227680  10.5131207  16.9763374  16.5017319
  10.8762770  16.1226330  16.2660637   9.9879045  16.8056412  17.2835522
  82.8815918  43.4524231  77.4798203  83.8101273  43.3211288  77.6716995
  82.4818192  43.6188354  78.3334732  83.5343552  51.7595406  62.9010391
  83.8833084  51.8418884  63.7885513  82.6603165  52.1466446  62.9504585
  50.9935493  68.5187454  57.1905251  51.6121330  69.2491226  57.2021980
  51.1587906  68.0782242  56.3569336  70.2730179  47.3134384  46.5812607
  70.7186813  46.8631020  45.8637543  70.1791687  46.6462936  47.2612190
  49.0949173  60.5816879  30.8583679  48.5378647  60.4922829  30.0851078
  49.7971954  61.1699600  30.5809212  35.8223610  46.6567917  15.6357517
  35.1469269  47.2657700  15.9343586  35.8549728  45.9833412  16.3151875
  65.6246033  37.7348595  54.9739304  65.0022736  37.1174698  55.3583336
  65.1272812  38.5469170  54.8766212  48.7943344  42.8317413   9.2141809
  49.1003494  43.5862579   8.7109013  49.0819817  42.0727768   8.7067719
   0.1813635   4.0937338  62.2100334   0.9046243   4.7170148  62.2781982
  -0.4873645   4.4370966  62.8026009   1.8994577  58.1318130   2.0314636
   2.1783597  58.7238235   1.3329183   1.0476425  58.4707031   2.3067729
  76.9678497  37.3003120  50.0258446  76.1180649  37.5407600  50.3950119
  77.6049423  37.7638550  50.5694237  76.8403473  56.5026321  45.5190163
  76.4660797  57.2837944  45.9263802  76.1378860  56.1611366  44.9656982
  56.9570084  41.9217072  69.6769562  56.6286049  41.9250717  68.7778625
  56.3649597  42.5061455  70.1503906   9.5299873  31.1556072   8.1806498
   9.7729273  31.6312847   7.3863311   8.5787268  31.0653038   8.1242561
  70.1952438  66.2857056   3.8330152  70.2452393  67.1438065   3.4118266
  71.0524368  65.8905334   3.6740031  23.7827854   8.3507204  41.1070061
  24.1395245   9.2334557  41.0082664  22.8470783   8.4494781  40.9311295
  53.0133972  53.5834618  75.7607498  52.1805115  53.5530853  75.2899933
  53.6748695  53.4226723  75.0878143  24.0099297  20.6916656  49.9019012
  24.4847889  21.5152225  50.0136757  23.1706982  20.9489880  49.5201836
  82.9746552  42.9747276  17.3719215  82.1986160  42.4345703  17.2228527
  82.6583328  43.8748665  17.2949486  37.9149284  65.6225662  73.8264847
  37.6819725  65.5557175  72.9004822  38.8177528  65.3074875  73.8696899
  66.3575592   0.7098451  34.9377327  67.0109558   1.2541156  35.3771324
  66.0100250   1.2676561  34.2418175  19.6992950  17.5369701  75.7854080
  19.5068741  17.0040112  75.0139389  20.2861729  18.2212105  75.4635010
  11.8345795   5.4587975  70.5727005  12.0012589   4.9471154  69.7810974
  12.6895409   5.5281501  70.9975052  33.5813980  27.0484486  29.8769817
  33.7429161  26.6719856  29.0118713  32.6285439  27.0401535  29.9676991
  81.7381439  44.8548737  70.2172699  80.8138657  44.7922478  69.9763947
  81.8150787  45.7035789  70.6531677   0.4480285  59.3084869  25.7924252
   0.9070883  59.1389885  26.6150837  -0.3642304  59.7408638  26.0560856
  10.8260641  13.0244474   9.3521395  10.5642710  13.0003176  10.2725267
  10.3650103  12.2868805   8.9525690  59.1823120  34.8733215  40.2652779
  58.2266121  34.8616829  40.2130280  59.4639664  34.1938820  39.6526871
  53.4420509  60.5680771  52.3675690  52.8230782  61.1253433  51.8958092
  53.8071861  59.9929810  51.6951294  21.3308468  58.9334717  22.3450375
  20.7996349  59.4570160  21.7450809  20.7040634  58.5880127  22.9806728
  60.7703400   3.6110885  55.7287750  60.0487328   3.1920371  56.1977234
  60.3698349   4.3667207  55.2988358  32.1395073   3.2260203  50.9907684
  31.2206764   3.2102048  50.7229385  32.1554031   3.7974982  51.7584839
  29.4805241  21.7249260   3.5449708  30.1459846  22.3535995   3.2653947
  29.2828808  21.2189674   2.7568247  42.2127647  55.5031166  57.7772903
  42.5050621  54.6057701  57.6174049  42.8192444  56.0459175  57.2735252
  37.6403770  52.9021454   3.1291943  38.4105911  52.3341217   3.1480124
  37.4144669  52.9687004   2.2014186  29.2427635   1.6221784  86.6420212
  29.9564533   1.2545246  87.1632767  29.0236092   0.9323183  86.0156860
  47.4220810  60.6922531  28.6611233  46.5408058  61.0655785  28.6757832
  47.3975449  60.0480156  27.9536018   6.4003205  52.2327614  33.9079704
   7.0194445  52.8451881  33.5106621   6.8630152  51.8853416  34.6704941
  35.0661163  64.6822128  42.2888870  34.6571465  63.8170319  42.2679138
  34.3387184  65.2938080  42.1745567  45.2044449  26.4363556  83.5659790
  45.8582993  25.9145718  83.1007462  44.9852562  27.1427898  82.9584122
  75.9731216  16.6751060  31.2016506  76.2222214  17.1858196  30.4313564
  75.8435059  17.3275528  31.8899422  83.4006500  48.5531845  82.2878952
  83.8583832  48.2021179  81.5240479  84.0889511  48.6850739  82.9398804
  62.2148590  65.8987732   3.3661263  62.1058235  65.0854645   2.8733017
  63.1584892  65.9656830   3.5121305  79.8382721  19.4558582  56.6713638
  80.2263565  18.6933918  57.1006317  79.1540146  19.7474613  57.2738495
   4.4564648  64.4264832  67.4429169   3.9970894  63.7069969  67.0098495
   4.8715744  64.0216751  68.2045212  15.5835276   3.3200042  40.8272095
  16.4967232   3.2745602  40.5439415  15.6260548   3.6683209  41.7177696
  78.4447403  13.1846333  66.5972824  78.7992020  13.5098810  67.4248123
  79.1432953  12.6394711  66.2352829  56.0575333  27.8905315  56.1433754
  56.7040825  27.9488926  55.4399567  55.2256355  27.7455788  55.6926346
  16.5286503  63.2883453  41.8542137  16.4178391  63.8004417  41.0531464
  17.2592239  62.7000923  41.6632957  52.8003502  67.7400894  23.3366089
  53.0561714  67.4086151  24.1973724  52.2983665  67.0256805  22.9443455
  70.7722244  35.4078865  43.1824875  71.4938660  34.7879677  43.0767479
  70.4078598  35.2065430  44.0444221  84.8338852  15.4009027  25.1493340
  84.2274170  15.5183659  25.8805199  84.5687790  16.0618477  24.5097218
  63.9592400  26.5299358   0.9508747  64.2333908  27.3733311   0.5906591
  63.0903091  26.6965656   1.3161436  29.0389595   7.0770774  21.3185234
  28.3432350   7.7341609  21.3395004  28.5869179   6.2450705  21.4587154
  61.3158455  14.0712738  75.4815369  61.9295425  14.6327353  75.0078583
  61.7172089  13.2026634  75.4559555  59.6198387  11.8097429  50.6685486
  59.8506126  12.7030897  50.4137802  58.8517990  11.9118128  51.2306252
  27.2830296  55.8865089  67.0663528  26.5119076  56.0863953  67.5970612
  27.9602985  56.4771805  67.3959732  67.6681595  50.7353096   1.0661545
  67.8735199  51.5740700   1.4791261  66.9712982  50.9396286   0.4425572
  79.3557129  61.2234154  84.8714066  79.0661697  62.1343994  84.9214783
  78.9776611  60.8089676  85.6470032  18.8015156  17.9689674  21.3140564
  18.4890499  18.7272243  21.8076572  18.0054569  17.5580387  20.9769173
  18.0785217  11.4509106  78.4808655  17.8209496  10.9378061  79.2467728
  17.9034519  12.3582468  78.7305145  83.5828476  70.7059784  57.6426430
  83.4573135  70.9132614  58.5686607  82.8010406  71.0514297  57.2117500
  51.8843002  39.3773842  70.4585648  51.1786919  39.2955627  71.1001663
  52.3066444  40.2094765  70.6718292  66.9007339  36.3632469  40.8748970
  66.8607178  35.6444244  40.2440834  67.5163269  36.9864883  40.4890862
  43.9171600  18.1791687  77.3625717  43.6751137  19.0765285  77.1336823
  44.3973427  18.2633152  78.1863251  71.8270569  43.2854691  46.0108528
  72.3826523  44.0538826  46.1415596  71.9459457  43.0580101  45.0887032
  11.2983427  24.4075985  54.3168793  10.6031342  24.3380985  53.6625977
  11.9681568  23.7911015  54.0210533  42.4189339  49.9419403  66.1890793
  42.3234520  50.8564224  65.9229279  43.3148460  49.8812637  66.5205765
  50.6767006  10.1393118  80.0678482  49.9818001  10.7674446  79.8708878
  50.6052895   9.4791374  79.3784256  76.2118835   9.0445700  27.0437813
  76.2539749   8.5839796  27.8818245  75.4962997   9.6712713  27.1505909
  41.6760178  68.6835480  33.9325256  40.8958130  68.6320038  34.4846611
  41.5453644  68.0057373  33.2694054  23.6006203  66.5861893  47.7960548
  23.2716370  65.9504776  48.4315643  23.4217396  67.4378662  48.1946487
  26.9490261  19.4771214  76.6318130  27.2886505  18.5910625  76.5061569
  26.0458183  19.4341946  76.3177948  68.2429733  43.4621124  14.2722940
  67.6443634  43.4897461  13.5258808  68.8290024  42.7295036  14.0823345
  33.0315018   6.5481501  86.4125595  33.6548424   6.1196327  85.8259964
  33.5144463   6.6659923  87.2305527  32.2679291  62.5431557  14.2049866
  31.9637814  61.8090744  14.7387009  32.0423317  62.2967644  13.3079758
  65.4663391  71.5093155  70.8567657  64.7557220  71.2719955  70.2610016
  65.0722198  71.4681320  71.7280884   7.2887754  20.8694115  24.9136295
   6.7578931  21.6535873  24.7741203   6.7452750  20.3073444  25.4658241
  13.5532207  14.0734501  47.2893143  14.1359663  14.8104200  47.4723854
  14.1084967  13.2996168  47.3846092  57.2499542  22.7146797  54.7932930
  57.3644829  22.0040779  54.1622925  56.7495956  23.3783092  54.3184547
  74.7649536  17.4671898  47.9476585  74.6099930  17.5195084  48.8907852
  75.1232605  18.3240089  47.7159119  65.5777359  67.5329819  46.5656242
  64.9545288  67.8957062  47.1951294  65.0453491  66.9820023  45.9918518
  70.4883423  25.7282658  51.7179642  71.1661987  26.3839645  51.8816986
  69.6995087  26.2393265  51.5368843  -0.0439971  47.5126915  44.1218605
  -0.0203121  46.6420975  44.5190201   0.5438412  47.4486427  43.3691483
  42.4464798  38.4592285  83.3037109  41.6595879  38.9717216  83.4891281
  43.1265984  39.1137161  83.1446075  65.5600739  45.8488770   5.8123889
  65.0761566  46.0907478   5.0227313  65.9119568  46.6763611   6.1405354
  26.3773746  57.6912193  19.2987175  27.0535507  57.9702301  18.6813278
  26.2363491  56.7660904  19.0975208  23.5237179  70.8072510  59.3362160
  24.0199032  70.1488113  58.8499146  23.5196476  70.4863358  60.2380066
  18.8242817  25.4226894   3.5662796  18.1870117  25.6499767   4.2433758
  19.2263222  26.2574348   3.3258715  64.7278442  33.5406342  62.9257317
  64.2612228  32.7068939  62.8676567  65.4930115  33.4266357  62.3620300
  70.8103790  57.5433502  32.1016846  70.9268417  57.4379120  33.0459023
  70.6495667  56.6563988  31.7796726   5.3466887  16.9211693  65.6925125
   5.3181939  16.2264519  65.0346451   6.2762570  17.1334724  65.7765427
  43.6321335  17.5335140  85.0527191  43.8963699  16.9133072  85.7322388
  43.2827988  18.2828503  85.5350952  73.7517014  15.3667927  65.6626434
  73.3469849  14.6429462  66.1406403  73.0584183  15.6918240  65.0882339
  53.1084290  58.5881920  13.4183655  52.1632957  58.4455528  13.4694109
  53.3746986  58.1432190  12.6137962   3.2960138  43.5889969  59.6118927
   3.7047000  44.4521904  59.5478249   2.8616083  43.5923843  60.4648361
  81.6542587  30.4616032  47.1795197  80.7717819  30.7296047  47.4357109
  82.0848618  30.2358570  48.0040512  41.8247604  58.9551544  64.7375793
  42.0861969  58.8547516  63.8222618  42.3207169  59.7133064  65.0465469
  73.7305222   9.0897989   5.7919579  74.1205750   9.5080252   6.5595369
  74.4029846   8.4831591   5.4820962  50.6695137  47.8676834  82.1305389
  50.5377655  47.0052414  82.5243225  49.7936478  48.1443062  81.8611450
  10.6588230  33.9989395  25.6394806  10.2893467  34.2174644  26.4950314
  10.9678621  34.8353195  25.2913475  67.7116394  34.8170242  12.9673471
  68.4429626  35.0702591  12.4040842  67.5954742  33.8812523  12.8028326
  14.0696297  36.5140190  26.8549862  13.6025229  37.3473358  26.9152184
  13.9263754  36.2237091  25.9541931  30.0838585  25.8322792  77.0271988
  29.6419983  25.0312710  77.3089371  29.4274197  26.2985516  76.5096054
  77.0392838  28.4758549  57.7139168  76.6658020  27.5956440  57.7583351
  76.2811356  29.0535870  57.6263771  73.9799500  13.5031853  11.6765547
  74.6647415  13.2833614  12.3081913  73.4696503  14.1898851  12.1058235
  26.2763615  18.2029152  80.7658844  27.1529350  18.5386543  80.5784607
  25.7165127  18.6141090  80.1073074   6.1974583  52.0501022  61.0479546
   6.3133268  52.6110420  61.8148651   7.0335398  52.1019135  60.5847969
   9.2053547  45.8958893  81.1568527  10.1432142  46.0398712  81.0306778
   8.9779367  45.2228127  80.5153885  17.5315552  35.3276825  12.8466396
  17.5617924  34.3795128  12.9742746  18.1799431  35.6727753  13.4604301
   2.8539646  69.0358582   4.6128159   3.4287407  69.1962509   3.8643920
   2.5006728  68.1594696   4.4599991  72.8322144  11.3535156  61.8051682
  72.5172043  11.2121572  62.6979256  73.6556702  11.8291769  61.9142418
  33.5459785  59.6085548  83.9364471  33.4438095  60.2087936  83.1978607
  34.3882942  59.8466377  84.3238144  10.2400999  54.0305138  43.3982315
   9.3105001  53.9352722  43.6056061  10.6307344  53.1971016  43.6610184
  46.5247841  67.6447830  34.0535278  46.2666702  68.5313187  34.3058357
  45.9036255  67.4006042  33.3674011  13.3433170  32.7912865  66.7253113
  13.7711067  32.0240250  66.3451309  12.4420481  32.5097427  66.8824081
  83.5460052  60.4255028  86.0277176  84.1550903  60.3443642  86.7616501
  82.8006897  59.8773727  86.2732773  82.8033752  30.9463158  49.8885117
  82.3851547  31.1255188  50.7306557  82.9920654  31.8118095  49.5258102
  25.4477444  16.3323250   0.8193467  24.7481670  16.6091690   0.2275864
  25.8562984  15.5888691   0.3759649  79.0373917  36.2644157  13.1411762
  79.9107208  36.1858444  13.5250549  78.6920090  37.0830460  13.4972515
  11.7803555  26.0808964  76.5085983  11.6270075  27.0198135  76.4029999
  11.4127951  25.8733120  77.3676910  10.3949432  36.2694168  10.7201691
  10.4089861  35.3863831  10.3509998  10.0728951  36.1503792  11.6136713
  19.6029320  50.3790245  69.9882431  19.2448101  50.1497650  69.1306839
  20.4508820  49.9360695  70.0198975  81.2344360  59.2624855  65.5602570
  81.4346619  58.7470131  66.3415527  82.0498276  59.2640533  65.0588913
  78.6950760  24.0152779   2.0439332  78.0809250  24.6994362   2.3103385
  79.5571136  24.4243145   2.1202013  55.3372726   1.9635559  84.7458954
  56.1557961   2.3927228  84.9950256  55.5089111   1.0300608  84.8698273
  58.2355576  11.2996769   7.5971932  58.0333252  10.4415922   7.2243319
  59.0900154  11.5252743   7.2294431  78.7939911   4.9637146  23.8506069
  78.7467194   5.5380449  23.0863152  78.4806671   5.5040112  24.5759621
  74.6324234  35.3355713  15.4514704  74.6947708  36.1423302  14.9401178
  73.7375717  35.0284157  15.3060999  11.8778076  59.8333092   2.2889841
  11.3196411  59.8209496   1.5114691  11.4239140  59.2731323   2.9185967
  52.0110474  28.8189297  21.4805660  52.6309776  29.2333374  22.0807190
  52.3776779  28.9771080  20.6106281  68.1645813  63.4708672  32.9468575
  67.6205292  62.6946869  32.8134727  68.7165756  63.5135155  32.1660156
  36.7413712  32.0526886  22.7478809  35.9286461  31.5871181  22.9452515
  36.5052376  32.9789085  22.7987995  16.7434578  30.7455139  17.7323360
  16.5932198  30.4516945  18.6308517  16.7301292  29.9420624  17.2122192
  43.7484970  60.9534874  34.0483093  43.2508202  60.9626465  33.2307091
  43.2067871  60.4461365  34.6527748  19.2858067  56.4201431   5.4804540
  19.7005348  55.7317924   4.9604516  20.0002899  56.7941742   5.9960556
  20.3463783  59.6459923  32.1266899  19.6570702  59.2560387  32.6642990
  20.0120182  59.5907784  31.2314873  53.8582993  47.6923485  29.3267040
  54.2393036  48.1364594  28.5691872  53.3150406  48.3590355  29.7469749
   8.5675306  60.5010414  40.4131355   8.2168665  61.3572578  40.6584206
   8.0320969  60.2273445  39.6683998  24.3611908  44.8271637  22.7876663
  25.0960045  44.7235146  22.1830711  24.4237881  45.7340431  23.0874729
  28.4145794  19.8173409  85.5705719  28.6958942  18.9990616  85.9798508
  27.4585648  19.7697659  85.5723953  18.8252506  43.5901947  72.2455215
  19.1515694  42.7617760  72.5969086  18.0116100  43.7493706  72.7239380
  43.4151344   0.9159097   5.2925730  42.9663467   0.1523119   4.9296122
  42.7470360   1.3610183   5.8138719  85.3990631  48.1897049  34.2439537
  86.3483505  48.3093185  34.2160683  85.1258774  48.2273941  33.3273392
  65.0693130  32.0397797  79.2170486  65.4848862  32.1099739  78.3576279
  64.8328934  32.9393921  79.4429626  35.2608147  51.9937363  12.0307684
  34.6794395  52.1346207  11.2835150  35.6686020  51.1447029  11.8602371
  15.3497372  14.0590239  11.1401815  15.1907911  13.1668863  11.4484968
  15.3777580  14.5868111  11.9382334   0.5207965   1.2649957  34.7883453
   0.8736412   1.9261861  35.3837929   1.0513817   0.4857597  34.9541855
  55.7956123  20.5337181  83.4360123  56.0557823  20.5287762  82.5148621
  55.1253548  19.8532848  83.4992447  63.3995247  49.3315353  14.2392130
  64.2166519  49.8207893  14.3349142  62.7250595  50.0056496  14.1561670
  62.1482048  37.3353539  46.2302628  62.3285332  37.6375809  47.1204147
  62.8473320  37.7189636  45.7008324  49.8629189  15.8380365   0.3993710
  50.2564125  16.7072411   0.3226976  50.5374718  15.2404451   0.0767307
  67.9356613  30.8189163  23.1773529  68.2249146  30.0364456  22.7079849
  66.9846115  30.8252201  23.0692081  20.1859550  25.1610584  51.9623833
  19.8579388  24.5877800  52.6551971  19.4386101  25.2803040  51.3763046
  72.9176712  53.6172638  45.0844193  72.0000000  53.3607368  44.9933395
  73.3023834  53.4394951  44.2261467  53.2829132  50.5179214  35.8394623
  53.3130150  50.4943581  36.7958984  52.9641647  51.3961906  35.6314316
  19.8471012  62.9841309  51.2845535  19.6362991  62.0634384  51.4398651
  19.8608608  63.3771973  52.1572189  21.1079769   7.9053349  72.7028351
  21.4167061   8.4251127  71.9607086  20.1742859   7.7784381  72.5344543
   2.5676124   6.1326485  52.6397934   3.4036517   6.5892782  52.7333870
   2.0120530   6.5076900  53.3231163  24.6421280  61.0430756  83.9204254
  25.0127144  61.2009239  84.7887421  23.7150440  61.2629471  84.0120926
  70.8506927  34.9753456  22.8185291  69.9066925  34.9389648  22.9727077
  70.9692612  34.5666733  21.9611130  44.1734467  14.8712234  13.6373606
  43.9875221  14.5302248  14.5122232  43.3306122  14.8415184  13.1846123
  80.5509567  49.2719460  42.5457344  81.1113586  49.6601372  41.8738060
  81.0459290  49.3739014  43.3586540  63.9814644   7.1817713  35.8401604
  63.4584541   6.4398394  35.5364723  64.8636322   7.0019765  35.5150642
  58.6187820  40.7995644  38.1193924  59.3146172  40.1550941  38.2486496
  58.2996826  40.9877777  39.0019913   3.9162779   4.9016237  86.3732147
   4.1831322   4.0391006  86.6911392   3.7157729   5.3978968  87.1667786
  46.0689163  56.6418419  21.3503799  46.4119568  56.4609718  20.4752579
  45.3489609  56.0204048  21.4585781  77.9088516  69.1389313  74.4081116
  77.7993088  69.3243256  73.4754486  78.7715302  69.4935989  74.6231003
  82.6092529   6.2051220  66.3895645  82.1115265   6.5570402  67.1275711
  82.8476944   5.3191009  66.6622238  15.5612783  29.1794128  52.8551216
  14.6570807  28.9532928  52.6371117  16.0915432  28.5901814  52.3185997
  62.6531372  18.7778187  38.7105331  62.9660110  17.9177952  38.4299965
  62.4620209  19.2409210  37.8949089  26.7796841  68.1787186  32.9490051
  26.5428619  67.5781860  33.6557617  26.0700569  68.0913391  32.3125877
  56.1886864  55.9423447  16.4506931  56.4349556  56.1581154  17.3501511
  55.9529381  56.7831535  16.0586510  45.0229607  -0.0514801  41.2044907
  44.4830475   0.7334635  41.1118317  45.7193565   0.0590407  40.5571480
  20.4797268  65.5612335  40.3438568  20.0934792  65.1409683  39.5754662
  19.9522667  66.3488922  40.4765549  79.5529556  15.9724808   1.4754194
  79.1429901  15.8984985   2.3372128  79.0043411  15.4368191   0.9024262
  16.5555649  47.0354614  14.1800795  15.7518578  47.0608063  13.6608057
  16.2610226  46.8304138  15.0674524   7.0658779  46.4346924  16.8987827
   7.4642906  46.8083954  17.6848145   7.7993593  46.3026428  16.2981148
  11.0799713  67.0047836  26.4708500  11.5421734  67.3117828  27.2508221
  10.7395649  67.8019867  26.0648613  63.1281013  70.1839371   4.9189658
  62.3666611  70.1113052   5.4944324  62.8289261  70.7326736   4.1939735
   7.1306911  47.7729225  36.9019165   7.9375563  47.3653641  36.5871239
   7.4169707  48.3650284  37.5973930  47.8685760  30.3675556  10.1612825
  48.2463264  30.7732353   9.3809233  47.4236183  31.0848866  10.6125917
  60.0788193  23.3916817   6.7081871  59.6009979  23.9139309   6.0638471
  60.8353119  23.9305077   6.9397345  21.9943829  68.6023636  60.5402145
  21.9865952  69.4441147  60.9958687  22.6950207  68.1069107  60.9643173
  15.1227818   2.8839369  69.7900314  15.5801516   3.1784897  70.5776062
  15.7542839   2.3204038  69.3429642  66.3666916   9.5628319  10.0143070
  66.8877411   8.9218788   9.5306540  66.4341965   9.2858763  10.9280748
  49.9740715   0.8816923  84.8880081  49.3527565   1.3314731  85.4606247
  50.7784004   0.8261952  85.4039536  53.0711212  41.4597321  47.1100273
  53.4034958  41.4148979  48.0065460  52.3814240  42.1226463  47.1431541
  19.5311470  64.7973785   3.5567729  19.9496269  64.7505112   2.6971741
  18.9118862  64.0675049   3.5617971  17.6209202  56.0002975  12.7552795
  18.0256577  56.3759270  13.5371513  17.0572548  55.3024025  13.0891275
  79.4998245  42.7659836  10.5030508  79.4307861  41.9667740   9.9808197
  79.5114059  43.4732399   9.8581553  39.0761375  26.7653103  81.0083542
  39.3709679  26.9426079  81.9015961  39.4910469  25.9335270  80.7798462
  66.8864517  21.0737534  62.2144737  66.9378662  21.2741108  61.2798882
  66.3857651  20.2590866  62.2575874  10.2225456  21.9788132  39.3263359
  10.1392651  21.0851021  38.9938049  10.6873074  22.4494686  38.6344452
  41.3606987   5.2514257  42.1810608  41.0893784   5.6687412  42.9986572
  41.0773087   5.8580298  41.4969864  56.7493324  48.4023781  60.8307457
  56.4671555  49.0790215  61.4461823  56.7304039  47.5922585  61.3402405
  19.8099461  62.7005653  31.8857479  19.9468956  62.5230103  32.8163109
  20.6868649  62.8738899  31.5433979  57.6040497  12.1525087  52.7189178
  58.1725197  12.8185673  53.1054916  56.8788872  12.0679283  53.3379631
  67.1119995  63.6190453  13.6549139  67.2226486  64.5349731  13.9099760
  67.9475861  63.2067566  13.8740921  34.0265770   6.9683676  33.6875687
  33.1067047   6.8125563  33.4735718  34.0052757   7.6663270  34.3422699
  42.5698433  27.9761887  60.2282486  41.9937134  28.3549328  60.8922234
  42.9264488  28.7318687  59.7613335  39.4246483  63.8733139  50.9247932
  39.7310982  64.2858658  50.1172523  39.6518669  62.9490891  50.8227577
  47.5029259  46.0465088  79.8314209  46.9680214  45.2718582  80.0046768
  46.8682594  46.7475281  79.6830902  19.6080379   6.3658152  22.5262012
  18.9504318   5.7881026  22.9135437  19.1754742   7.2179022  22.4708080
  57.4340897  41.2290497  78.5202789  57.9119415  42.0519524  78.4167709
  57.8554039  40.6284561  77.9054565  73.6488647   5.2624140  38.4759941
  73.8299408   4.7147636  39.2398834  72.9656219   4.7907095  37.9996529
  28.4438000  46.5938148  19.2825470  29.2571449  46.8912544  18.8748322
  28.0444183  47.3913383  19.6299477  42.0380898   2.9632292  70.4644547
  41.4774437   3.0604537  71.2341690  41.4413185   2.6949184  69.7658157
  63.9604836  26.0442886  70.9566269  63.9119377  26.5170021  71.7875443
  63.9651070  26.7313080  70.2901306  37.6170998  53.2894440  81.1473083
  36.7057037  53.0293121  81.2811813  38.0983276  52.4630775  81.1052322
  73.3887711  51.1204758  84.0587845  73.7385330  50.9650421  83.1814346
  74.1083069  51.5369797  84.5331497  57.0556755  17.3487453   4.8261123
  57.7852478  17.0957775   4.2604556  56.5974121  18.0308895   4.3352909
  78.1740799  71.8729553  41.5926971  78.2709885  71.7168274  40.6533012
  77.7703629  71.0724945  41.9281311  26.1345272  55.1737099  18.4921780
  26.3816319  55.3625221  17.5869026  26.6172295  54.3766060  18.7109356
   8.4234724  48.1191139  79.3222122   9.1398735  48.0511513  78.6910324
   8.4030161  47.2651711  79.7541733  34.0054359  37.1036873  82.8854370
  33.3155060  37.1644554  83.5461426  34.7910156  36.8706436  83.3801956
  43.4673653   1.1272353  54.6709366  43.4347229   2.0793576  54.5780411
  43.7883873   0.9843218  55.5613022  79.7660828   8.0955391  65.5209732
  80.6776505   7.8342266  65.6513367  79.3291931   7.2987566  65.2201385
   1.5553666  55.2430725  14.0901279   1.8372669  54.4910774  14.6109591
   2.2916617  55.8532486  14.1324205   7.2066789  61.7098007  53.8105469
   6.8994241  62.0131073  54.6648521   7.4066033  60.7831421  53.9430847
  85.3613510  52.4456635  88.0966110  84.8012848  53.2202492  88.1473465
  86.2528839  52.7915649  88.1384888  26.7700844  37.4756966  24.5352459
  26.1758690  37.1380005  25.2053967  26.6717377  38.4265289  24.5850735
  53.0063820  43.1915855   7.9385204  52.8171082  43.2819061   7.0045772
  53.6670494  43.8613968   8.1148815  38.4601974  35.6855850  77.5406036
  38.4230156  35.1933060  78.3606720  37.9013672  36.4476051  77.6931381
  13.0350914  11.7676277  26.2636700  12.6692028  11.2365208  26.9709759
  13.8976164  11.3864164  26.0994740   5.7523623  68.1345215  75.8912277
   5.0473442  68.3162613  76.5126419   5.6812673  68.8306122  75.2380524
  46.2412415  21.2463913  79.0406342  45.6288910  20.5460358  79.2659225
  45.7604828  22.0533428  79.2248383   2.9901290  21.1017399  14.7795019
   3.6827424  20.6670322  15.2770443   2.4493616  21.5283184  15.4442062
   5.0990195  66.7124176  41.7106895   5.2518520  67.6531296  41.7997589
   5.5059276  66.3290329  42.4876556  39.7829132  18.7147961   4.9544778
  39.0671539  18.8321552   4.3298578  39.4203186  19.0048428   5.7915144
  74.1877823   2.3656363  50.7821732  74.4092560   3.0544646  51.4088287
  74.3182068   1.5503317  51.2664261  65.0069427  44.5539322  87.7733536
  65.1573181  44.3279457  86.8554535  65.3363724  43.8000984  88.2626801
  85.1321182  57.7370911  51.5476227  85.1397781  56.8653183  51.9428215
  85.0439377  57.5736198  50.6086159  26.2931232  48.3771667   7.0143509
  25.4586849  48.8232613   7.1590858  26.7009754  48.3453751   7.8797274
   2.7461429  48.4682732  72.5773239   1.9262847  48.5666389  73.0614624
   3.3081479  47.9568481  73.1594162  58.9498596  29.4658642  25.2004204
  59.4497948  29.1468506  25.9517708  58.4626541  30.2172413  25.5384922
  44.6344681  30.7936840  29.4452782  44.1053009  30.7909908  30.2429028
  45.2521782  30.0723782  29.5652218  70.3630981  16.2379112  24.7231197
  69.6707916  15.5826702  24.6359711  71.0412064  15.9527874  24.1106606
  71.6870880  58.1197052  39.6020508  72.0367889  57.3383102  40.0302582
  72.4594879  58.5754356  39.2674828  19.4439411  22.3426456  23.9142056
  20.2840233  21.9466095  24.1458282  19.0076084  21.6816235  23.3767166
  61.0569496  41.1578789  10.9775534  61.1738434  42.0794487  11.2083826
  61.9347954  40.7817039  11.0416384  74.0083694  51.8508072   9.7126160
  73.8889389  50.9345779   9.9626122  74.9075165  51.8950768   9.3873501
  46.9114304  17.8750420  16.8964634  47.4100494  18.6341476  16.5941925
  45.9999199  18.1669979  16.8845139  21.8070297  10.5494623  43.4779358
  22.5810070  10.2539082  43.9573479  21.6102371  11.4100323  43.8479652
  47.2902641   8.3879948  67.3788223  46.7876854   9.1155758  67.7452545
  48.1933632   8.5636759  67.6429749  13.7788305  49.5846024  86.8869400
  13.4945402  49.1766090  86.0690460  14.6192970  49.1700668  87.0818939
   1.8111273  45.6371803  72.4399796   1.9351001  44.9305878  71.8062668
   0.9564536  46.0082817  72.2207794  34.6672859   3.6420679   8.1064672
  35.2484779   3.9353611   8.8081970  34.5488853   4.4152079   7.5546803
  42.5100937  53.7302742  46.4044418  43.2022552  53.1265640  46.6740265
  42.8046951  54.5864449  46.7149544  20.5589542  15.4989910  16.2790527
  21.0658417  15.6426353  15.4798899  20.9489632  16.0932655  16.9201183
  14.9573126  42.8911438   2.1929994  15.8891439  42.9888954   1.9971238
  14.9304867  42.2849693   2.9333143  61.0852394  37.5633736  10.4899921
  60.4685669  36.8515015  10.3191366  60.8171196  37.9138184  11.3394213
  45.3737831  70.6283646  79.8592911  44.6178474  70.8160172  79.3028870
  46.1260757  70.6926498  79.2709427  64.9848862   5.6448846  59.7669144
  64.3175049   5.1187201  60.2073631  64.7561646   6.5494871  59.9804916
  73.2782516  30.2780247  88.0156097  73.4472198  30.2468758  87.0739594
  72.3930359  30.6348476  88.0884323   9.5424938  15.8017511  81.0416107
   9.4095087  16.5637932  81.6053848  10.3264961  16.0127945  80.5346298
  78.0978622   5.6439929  68.7258301  78.2352753   4.6990204  68.7919846
  78.9770355   6.0069137  68.6182251  68.5534439  19.0688572  57.0840492
  68.2957077  18.5649834  57.8560028  67.8222961  19.6681652  56.9341278
  76.2888565  18.9080906  65.3905792  76.3829193  18.2021198  66.0300980
  76.9467850  19.5538521  65.6481781   6.3169928  57.0387421  88.8146210
   6.1852412  56.2618637  88.2711792   5.5293226  57.5645905  88.6757278
  60.9416809  10.6918364  69.1091766  60.6497116  11.2592688  68.3957291
  60.8729668  11.2374849  69.8926163   4.6281900  12.9043770  35.6452293
   5.4449224  13.4006128  35.6993523   3.9702160  13.5526829  35.3942299
  15.9771376  59.6068954  46.1247826  15.1521378  59.7843781  46.5765686
  15.9523134  60.1696815  45.3509064  54.9673347  37.8525352  44.2341309
  54.6247444  38.0304947  45.1100311  55.0372047  36.8987541  44.1935005
  15.1690645   2.7799714  23.8664188  14.9117279   2.3952734  23.0285549
  15.1407595   2.0493617  24.4841900  23.4299507  56.0826225  27.4514465
  22.7358761  55.7476959  28.0191784  23.2678051  57.0248566  27.4052582
  36.8221703  67.3013611  19.5180702  37.4885445  66.7301483  19.9000301
  37.2963753  67.8229065  18.8704948  85.4675827  22.5887604  43.8881454
  86.2944870  22.7795486  44.3309288  85.6754761  22.6498394  42.9557953
  21.0171967  67.6725998  69.2918854  21.7485619  67.2341614  69.7267456
  20.3549557  67.7695389  69.9761887  62.7737732  43.9170265  30.4338284
  62.0344238  44.5249138  30.4257393  63.4945107  44.4215126  30.8110046
  58.2145615  25.3627682  53.3173599  58.8606529  24.6610260  53.2376251
  57.3838425  24.9518242  53.0780640  43.5681572  30.3634148  59.2448120
  44.2170525  30.1950607  59.9280586  44.0833473  30.6492271  58.4904060
  85.1484528   3.4867141   0.4262194  85.0131836   2.5392344   0.4115078
  85.3710556   3.6827717   1.3362964  38.8645706   7.2554317  84.5264893
  38.5753746   6.3518324  84.6533890  38.3446732   7.5717826  83.7876663
  59.2617340   3.8028722  38.2855034  59.0632095   4.6184702  37.8254814
  59.8618164   4.0622115  38.9846992  38.4300194  23.7384892  13.2636852
  38.6795692  24.3817005  12.6001825  37.5180588  23.9460087  13.4673929
  56.2038536  19.4550552  77.4149780  55.9446335  19.4334145  76.4938049
  57.0577698  19.0229568  77.4337158  66.1520691  66.7644043  11.1710529
  65.2757187  66.4294205  11.3608561  66.6931458  66.4415970  11.8916521
  19.6592617   3.6967535  76.4582443  19.9909706   4.2551231  77.1613922
  19.2988758   2.9329450  76.9087448  61.9634933  21.9906311  20.1711025
  62.8982735  21.8083439  20.0752563  61.7141304  22.4041328  19.3446255
  31.5103493  68.5080643  34.4424057  32.2346725  68.5090408  35.0681725
  30.7237949  68.4694748  34.9865341  52.6859589   9.0891027  87.9051208
  52.7016411   9.7012167  88.6408539  53.6046829   8.8603020  87.7642899
   2.5831509  29.3686275   9.6941624   3.0126729  28.5148716   9.7474842
   1.8531250  29.2321701   9.0902805  16.6645031   3.7072654  49.2661514
  16.0376015   3.0169764  49.4823151  16.4398289   4.4277906  49.8548737
  86.1346970  71.3915253  60.7511749  86.6366196  71.3779373  61.5661163
  85.9013138  70.4758835  60.5983276  53.2992020   8.9675083  33.2898827
  52.8991203   9.6940231  32.8120308  54.0065231   9.3718977  33.7922783
  60.4700394  67.4760284  41.4886284  60.5174637  67.6934586  42.4195976
  59.7114677  67.9633484  41.1671944   0.1119612  27.7407398  71.3025589
  -0.1153629  28.2446327  72.0839920   0.8156914  28.2420502  70.8906326
  51.2197189   9.5238533  65.0807648  52.0547829   9.9898376  65.0387497
  50.7845535   9.8814688  65.8546982  38.8143768  49.0853729  33.6368065
  39.3734474  49.0999489  34.4136314  38.4510651  48.1999664  33.6197624
  62.8995552  57.5814667  63.9635277  63.3309250  57.8907013  64.7601013
  62.3696594  58.3242912  63.6743050  39.9414482  51.5841789   3.3886466
  40.3115425  52.0679665   2.6502626  40.6132050  50.9406776   3.6142144
  43.7468529  16.6411934  22.3056984  44.1200371  17.1248875  21.5688095
  44.1868362  15.7914400  22.2818604  66.4568481  46.5115891   9.8031998
  66.6721878  47.3174019  10.2727976  66.7807617  46.6584053   8.9145184
  79.3227768  19.7507458  38.2680321  79.2360458  19.0072479  37.6714401
  78.6044388  20.3358803  38.0275230  86.2798691  31.6813583  37.3580971
  86.4876251  31.4771442  36.4463043  86.5242462  30.8924179  37.8419189
  80.8638153  41.1598778  74.0225906  81.3132553  41.0291595  74.8575439
  80.3234406  40.3769798  73.9163132   9.2150068  54.3126984  57.2976189
   9.7350292  53.5138435  57.2101974   9.1752739  54.6708641  56.4108467
   1.2882804   1.7049003  14.6770277   1.8298203   2.4931979  14.7164364
   1.3118421   1.4439086  13.7563972  42.1007042  13.3626490  31.1307125
  42.9727669  13.6209955  31.4290295  41.6466980  14.1903591  30.9725742
  25.8366528   1.9981389  34.7039375  25.0490646   2.0746574  35.2425270
  25.7591839   1.1400561  34.2868958  85.7219620  27.2363548  20.2855930
  84.8280487  26.9124413  20.1750317  85.7611465  27.5247421  21.1974754
  56.4772720  60.6371765  42.8031387  56.4673920  60.7242813  43.7563171
  57.3040504  61.0378494  42.5345726  80.5381165  29.7102413  87.2347260
  81.2053146  30.2474556  87.6619110  79.7232361  29.9407539  87.6808853
   0.4876294  71.4185104   7.6258559   0.5598304  71.5585861   6.6817169
   1.1265806  70.7315216   7.8156209   6.1645041  61.4775429  16.0159359
   5.8128324  62.3137016  16.3215504   5.6388664  61.2640686  15.2449856
  28.1973839  12.1853914  44.6095810  28.2211304  13.0832891  44.2787514
  28.1460361  12.2817945  45.5605278  43.2348709  23.7989063  21.4498768
  43.6200142  24.1228008  20.6356373  42.5674934  24.4475269  21.6737785
  42.1838112   8.1100826   2.4651670  43.0961876   7.8278704   2.5296659
  42.1001968   8.4483747   1.5736525  18.7444897  58.7445030  77.0432739
  19.2218380  59.5724220  76.9892349  17.8787727  58.9881248  77.3710175
  74.8576126  58.8702888  65.9305038  74.2326889  58.3952446  66.4782639
  74.3880234  59.0257225  65.1110229  74.1330109  52.9580917  28.9953537
  74.8487244  52.5427589  29.4764843  74.2611847  52.6802788  28.0883675
  80.6733932  53.3771973  54.5979347  80.6103592  54.1301384  55.1855927
  81.6114502  53.1953163  54.5414658  59.0984116  43.8405037  13.9797640
  59.8673630  43.4163780  13.5988913  59.4469566  44.3667870  14.6993303
  76.3534546  42.8239670   4.5491295  75.7025681  42.1658249   4.3053546
  77.1958313  42.3983498   4.3894992  72.9478989  52.1766853   5.5342622
  73.2551498  53.0653954   5.3553090  71.9945374  52.2551918   5.5684209
  33.6780205  29.5289173  86.5852966  34.3820572  29.3388939  85.9652481
  33.9919739  30.2862072  87.0794373  82.8621902  62.3224220  80.6184387
  83.6023026  62.8144646  80.2629623  82.5072174  62.8866768  81.3053436
  82.6769104  18.7350025  46.3734055  81.8453293  19.1716862  46.5578346
  82.4740982  18.1223679  45.6664543  84.2550583  36.8039818  32.3867950
  84.9621582  36.5472260  31.7949200  84.2166748  36.0996323  33.0338287
  84.8664703   0.6755860   0.3412476  84.4861374   0.7499613  -0.5339930
  85.7231445   0.2737481   0.1967759   8.8040333  67.7313461  11.0138559
   9.0529613  66.8574448  11.3147879   8.2382774  67.5723495  10.2582941
  26.4903965  60.0230141  53.5906448  26.7221508  60.1421127  52.6695938
  27.2734528  60.2914047  54.0712929  42.5966949  67.6557693   9.7219706
  42.7931786  68.3171387  10.3854589  42.3357849  66.8834076  10.2235889
  25.4698124   8.5566187  32.7043648  26.0216064   8.7228565  31.9400864
  25.1167278   9.4155684  32.9362450  17.2038994  39.0741348  74.3697815
  18.1163692  38.8381958  74.5369949  17.1757545  39.2738419  73.4340744
  17.6212997  58.2351341  49.9831848  17.8998661  57.6091194  50.6515656
  18.4156170  58.4196472  49.4819412  72.3252716  41.0922737  33.2323799
  72.8463287  40.3316040  32.9752693  72.4151993  41.7026367  32.5005341
   0.4340869  50.3776855  27.7848892  -0.1537124  49.6279182  27.8774681
   1.3119013  50.0059738  27.8715076  84.2804565  19.1852245   9.4179592
  85.0265350  18.8244495   9.8969612  84.3641815  18.8228207   8.5359812
  10.1722097  35.8230171  45.5967560  10.3130627  34.9413185  45.9417152
  10.8275833  36.3613510  46.0405083  82.9876328  58.9312210  27.8471584
  82.2923508  58.2893944  27.9916058  82.9639359  59.4890747  28.6246357
  75.4934464   4.1960177  73.0860443  74.7522583   4.0672588  73.6779022
  75.1099930   4.5959411  72.3054962  66.1462097  64.2791367  37.2065392
  65.9988632  65.0442886  37.7624702  66.8955307  64.5196838  36.6616745
  35.8900681  64.3066101  20.0188389  36.6596909  64.2083359  20.5794220
  35.8726616  65.2375717  19.7969627  48.6102791  48.6966362  10.2453699
  49.3570824  48.1778603  10.5443506  48.1432037  48.1185417   9.6421490
   5.7527909  26.7012920  77.9045792   6.1661625  26.7684689  78.7653046
   5.0520782  26.0603657  78.0247726  85.9717331  54.8716545  52.0490456
  86.8945618  55.0327606  51.8524208  85.9070740  54.9773521  52.9981918
  75.5047150   0.4204817  28.6365166  74.7959442   0.2050959  28.0303135
  76.1346207   0.9074561  28.1051941  47.0229378  58.0128098  80.7752838
  46.3462372  57.3874779  80.5159225  47.3259315  57.6982727  81.6270370
  52.4844933  41.6992226  56.7706375  51.9711304  42.0136032  57.5148544
  51.9361038  41.0252914  56.3689919   7.7370639  14.0157013  58.7214394
   8.6447554  13.7526054  58.8734550   7.3281465  13.9758377  59.5859795
   9.4803762  66.8305969   4.3187051   9.1652594  67.7343063   4.3030968
   9.0001211  66.4218826   5.0388026  84.9152679  31.5914822   0.8393813
  84.3516693  31.4924202   1.6067027  85.1374207  32.5224190   0.8239567
  15.6664906  57.4393692  29.0116291  14.9816990  56.9359360  28.5713501
  16.4372730  57.3340569  28.4539261  26.7564087  58.9563904  30.5185452
  27.5296402  59.3745728  30.8973141  26.0775280  59.0593910  31.1854382
  44.9590759  58.7075806  68.1587982  44.9160614  59.3438759  68.8725967
  44.9001236  57.8564529  68.5927734   9.0582895  71.4847412  39.5846100
   9.4556942  70.6934814  39.2209892   9.6086559  72.1987534  39.2628746
   4.9727359  66.0114899   1.2239693   4.0719528  65.7724686   1.4423527
   5.5055776  65.5616837   1.8797009  47.7804794   9.3285227  23.9739094
  46.9074593   8.9623423  23.8325691  47.7838554   9.5912952  24.8943291
  74.8999939  65.4639435  78.4041672  75.5291901  65.4295197  77.6836472
  74.1945114  66.0235519  78.0795593   0.7326790  54.6270409  62.7170105
   1.2301627  55.4419441  62.6486206   0.5281602  54.3945503  61.8112755
  56.9903297  34.1106148  66.5970306  56.2222939  34.4230804  67.0752640
  56.6782265  33.9802589  65.7015762  34.2493591  17.6400909  74.3376236
  33.9242973  17.8201408  73.4554901  34.8189545  18.3825054  74.5391541
  83.1022034  25.1665878   4.5080695  83.0611038  26.1017895   4.3082218
  83.7892227  25.0932007   5.1705337  58.3857765  22.4088306  20.6728802
  58.0689926  23.0045300  21.3518658  58.2018547  22.8632469  19.8507423
  32.1375847   0.6353612  52.3296242  32.8552933   0.5210044  52.9525604
  32.2835388   1.5030431  51.9527206   8.8641500  45.2569160  21.1489162
   9.0216503  45.9142570  21.8266544   8.0027208  44.8969002  21.3600121
  52.2986717  20.5562916  62.9533806  53.1181679  20.3029919  63.3782310
  51.7459488  20.8721371  63.6682014   9.8017864   3.2439058  66.6161804
  10.1691132   3.9680631  66.1093292  10.2949524   2.4756863  66.3283310
  35.0117798  49.2726364   2.7062156  34.8691101  48.4253883   3.1281741
  35.8179169  49.6043892   3.1015840  35.7545815   5.3363123  74.3663864
  35.5393105   4.4973559  74.7738724  36.7066536   5.3180518  74.2691422
  28.9899063  36.7275429  79.3035202  29.7765923  36.6293755  79.8399200
  28.5889225  35.8583794  79.3051300  21.4966621  29.2316151  48.4259949
  22.3918800  29.3091450  48.0961380  20.9445972  29.4055843  47.6636353
  74.3839035  18.2344513  59.7853165  74.5844116  17.3344860  60.0423927
  74.3560257  18.2097645  58.8288383  41.5267525  55.0342979  50.7894669
  41.6184502  55.8280678  50.2624474  42.3037109  54.5162086  50.5793419
  59.5919571  13.7771769  39.7950058  59.5650444  13.6015024  40.7355652
  59.8631325  12.9466763  39.4039001  56.7840385   8.0253744  83.0878372
  56.5777702   8.5548525  83.8581238  57.3855820   8.5681696  82.5781784
  48.6282845  13.2053480  20.3359528  49.0929337  12.6202049  19.7376709
  48.8651123  12.8925200  21.2090397  61.9529190  16.8688488  82.8593140
  62.6110497  16.1740303  82.8772888  61.8559151  17.1306152  83.7749023
   8.3492880  24.7970047  28.0508137   7.4026623  24.6588078  28.0186710
   8.5434971  24.9092121  28.9813633   3.9246175  58.6606903  64.0493927
   3.6942565  58.7835426  64.9702988   4.6743755  58.0659027  64.0673370
   0.7484979  43.9429703  33.5257187   0.0217186  44.4379768  33.9038620
   0.5439265  43.8927574  32.5919838  43.0911102  68.4582214  58.4553986
  42.3584785  67.9810867  58.0657539  43.8701973  68.0012436  58.1384926
  32.3393860  47.7640305  72.5532608  31.4123325  47.5277710  72.5218658
  32.3473778  48.7161179  72.4547653  20.9764404  20.8857727  79.6342163
  20.4999599  21.5955734  80.0647736  20.7069817  20.0967197  80.1043396
  77.4796219  34.8339195  32.2189064  77.4342194  34.9417191  33.1689301
  78.2361908  35.3572350  31.9543610  20.0670738  38.5275726  68.7369385
  20.9403419  38.8795052  68.5643768  19.7784462  38.9807472  69.5291214
  73.4108963  69.1857300  29.6000996  72.5114594  69.4832611  29.7369194
  73.6712723  69.5841904  28.7696419  81.9527969  46.9457703  78.4675827
  81.3744202  46.6622734  79.1756363  82.8331680  46.7347107  78.7784348
  69.6288757  70.4883804   5.4697585  68.9304047  69.9094543   5.1644564
  69.5254364  71.2842712   4.9481368  81.9175186   6.1529803  43.9225006
  82.1106796   5.2492146  43.6732445  82.3001404   6.6815715  43.2221947
  86.9105835  20.0871830  48.0874329  86.4911804  19.5251141  47.4359589
  86.5451584  20.9567280  47.9243813  11.8478642  50.1304131   4.5927615
  11.6680479  50.0991211   3.6531239  12.2279024  50.9973221   4.7351537
  61.4371033  49.4249725  73.4350204  62.2379494  49.8154869  73.0852051
  60.9665604  49.1111221  72.6627960  35.4240608  57.3384514  22.9897461
  35.3217163  56.8216896  22.1905518  35.1910286  56.7359161  23.6960583
  81.1241226   5.7489676  29.2007732  81.6885147   5.7012134  28.4291420
  80.4250412   6.3524761  28.9492035  53.6817322  45.1150246  36.9466553
  53.5036240  44.4057655  36.3290291  52.8316078  45.3071251  37.3424110
   5.5781026  39.3215294  50.0333519   6.0107436  38.8250160  50.7279968
   4.8252263  39.7278633  50.4626541  26.2095318   0.7925972  53.0903473
  26.9473019   0.6856552  52.4899368  26.3544369   0.1321544  53.7678795
  62.8202171  15.3470459  73.5830460  62.9511261  16.2627010  73.3367310
  63.1477623  14.8484688  72.8344650   4.3457398  64.4240417  37.7802620
   4.2309828  65.3670349  37.6627045   3.6219261  64.0319443  37.2918091
  74.9067459  25.3396511  84.2642212  73.9677277  25.1768246  84.1749573
  75.1326599  25.8654404  83.4969254  76.6160355   8.2158670  85.1944504
  75.7858582   8.2213202  84.7179947  77.1983566   8.7628613  84.6672592
  72.0350723  24.4716358  58.7936172  71.7544250  24.6940556  57.9059258
  71.9251862  23.5223656  58.8487740  72.3718491  16.4031506  41.0053978
  73.2861710  16.6730118  40.9192505  72.3778000  15.4681015  40.8007507
  31.1766644  59.9527817  32.3960800  31.5348358  59.8856812  33.2812042
  31.3792000  59.1094170  31.9911747  56.8257217  58.3095055  58.8751144
  56.3213730  59.0952873  59.0858688  56.7466812  58.2217865  57.9252243
  47.6542931  51.1476212  12.9815912  48.5522499  50.8224106  13.0459671
  47.4851646  51.1993790  12.0408745   2.1898940  37.0636330  16.2579651
   1.2334172  37.0408897  16.2874031   2.3953176  37.3550301  15.3696404
  23.8850784  53.8769264  48.6509056  23.9761887  53.3210335  49.4248009
  23.2299213  53.4327011  48.1127014  26.8286438  45.3422623  21.7585621
  27.0192204  45.8000641  22.5772991  27.4176521  45.7414017  21.1182594
   7.6725025   5.7400060  64.8740005   7.4971333   6.3699446  65.5730362
   7.5126410   4.8859448  65.2755661  57.2881126   2.3747199  53.1888771
  56.3467827   2.5482206  53.1937866  57.3825798   1.5807631  52.6626282
  32.4495239  28.8946552  23.7027683  32.4829826  28.0074215  24.0604382
  31.8294125  29.3569832  24.2666340  77.2688293  47.9065933   3.2545667
  76.4431381  47.9567261   2.7729506  77.2898254  47.0148277   3.6017599
  62.2743111  64.4973221  28.4097958  62.5425529  65.0556030  27.6799984
  61.8221245  65.0894775  29.0107212  58.5274696  30.2210159  48.7187996
  59.2690430  30.7122078  49.0723991  57.8631477  30.2620144  49.4067116
  43.4747581  32.4722977  88.0928574  44.1890450  32.5997429  87.4685287
  43.6546783  31.6211720  88.4921646  18.1114502  28.2094898  71.3450241
  18.6948490  28.2256336  70.5863342  17.6126328  27.3985138  71.2463837
  62.8120728   4.9223185  89.1306305  63.2119026   4.1429853  88.7446136
  62.7137032   5.5293546  88.3971100   4.1189508  63.1445541  79.5428848
   3.6908090  63.6573753  78.8573608   3.6176043  62.3300476  79.5811234
  17.0046101  62.6560974  76.8488998  17.4068050  63.3521004  76.3292313
  17.5036583  61.8707314  76.6244431  66.5285034  31.9161491  36.1600647
  65.8657608  31.7076130  36.8184814  67.2266235  31.2793560  36.3128853
   4.2261515  16.3642750  27.2031555   4.6542435  17.1555424  27.5300579
   3.8440416  16.6271915  26.3658390  58.1371346  35.1539040  82.0906448
  58.1413498  35.8253708  81.4084854  58.0302162  34.3300667  81.6151505
  52.1859779  39.2097130  23.1010723  51.7169952  39.0708694  22.2782669
  53.1056709  39.2763824  22.8442497  84.5101547  24.3075943  46.0766258
  84.4218292  23.7267570  45.3209419  85.3105850  24.8037052  45.9051323
   4.4690542  32.9858246  51.5340652   4.9493289  33.2216682  52.3277550
   4.2770925  33.8234634  51.1124687  19.8705597  55.7993088  80.5330505
  18.9415493  55.9867134  80.3986969  20.0480194  55.0489960  79.9658051
  35.4022255  47.9710579  39.3219032  35.9770699  48.7220078  39.1740417
  34.5309029  48.2851906  39.0803528  46.8843422  11.4216137   2.8651690
  46.4996185  11.9819412   2.1911871  46.2513885  10.7123146   2.9769456
  37.5619926  60.7711945   9.4198217  38.2122803  60.0805054   9.2921238
  36.7649002  60.3057899   9.6733351  52.2398796  45.8942566  57.9831352
  53.1271324  45.5887756  58.1720657  52.2617188  46.8305321  58.1809769
  86.2319336  63.5072594  85.0084839  87.1513977  63.7279282  85.1571960
  85.7605972  64.3250504  85.1675415  52.8433800  38.8736610  45.7819786
  52.0551796  38.3967667  46.0418739  52.7664871  39.7207527  46.2210159
  70.7082748  62.8472939  61.5716171  69.8358383  63.1426239  61.8321114
  70.6667404  62.7903023  60.6170197  52.9366493  69.4102478  60.4041328
  53.7292976  69.9391785  60.3137169  52.9432411  68.8360291  59.6383247
  71.7033310  66.6109619  66.7001572  71.1530380  67.0969467  66.0859680
  72.5937042  66.7292557  66.3692856  67.8797379  41.4460526  37.9686089
  67.4591522  41.5643005  38.8202896  68.8165817  41.4298553  38.1643066
  14.8262129  15.4501467  75.1682816  15.1622829  15.5047064  74.2736740
  15.1839075  16.2225838  75.6060333  45.9452591  16.2952538  19.9586506
  45.1735573  16.3754730  19.3980522  46.5981636  15.8642025  19.4071579
  30.4721184  48.2779465  33.1857376  31.1857853  48.8599472  33.4468575
  29.8409138  48.8524475  32.7524147  37.5759926  44.1706734  77.8728256
  38.1465034  43.5982208  77.3599472  37.8845749  45.0551147  77.6759186
  35.4987679  66.4796371   9.9229507  36.3375168  66.2320709   9.5337934
  34.8520241  65.9532013   9.4530363  73.7340240  41.6356812  60.6886978
  73.7935867  40.7624702  60.3011551  73.3133926  41.4932137  61.5366364
  16.2961006  32.9312592  67.2621994  15.5827646  32.7861710  66.6406479
  16.4109898  32.0860252  67.6964951  72.6513519  59.5906677  44.2228050
  72.3958435  59.6934013  43.3060760  73.6081009  59.5681267  44.2036934
   9.3389854   8.4884262  38.4912643   9.4879885   8.5688667  37.5491600
   8.7600574   7.7311401  38.5783920  60.0043869  59.0806351  32.1637802
  59.2264290  59.2641792  31.6371670  60.1608620  59.8901062  32.6501007
  62.1697273  30.1665554  57.1896248  61.3077393  29.8755665  57.4871712
  62.0872154  30.2255974  56.2378159  72.2951660  65.6766586  56.7819824
  71.7704010  66.4667435  56.6530724  71.7933502  64.9832687  56.3534660
  -0.0398198  56.6347351  38.8358498  -0.4711870  57.4710045  39.0113831
   0.8814725  56.8621445  38.7103996  54.3992233  41.0332680   4.9379158
  55.0114326  41.1187973   4.2070832  54.9583168  40.9605522   5.7114511
  47.7440605  45.0686836  74.2403641  47.9847374  44.8048019  73.3522873
  47.2890015  44.3078270  74.6012726  74.0955582  46.9495735  28.8916092
  75.0279694  47.1658974  28.8990345  73.8032379  47.1800346  28.0097561
   8.9511623  48.8753090  47.3615646   8.3017702  48.6810341  46.6857109
   8.8000431  49.7944984  47.5817604  25.8916569  21.4456768  25.2027550
  26.0988216  20.9622822  26.0025330  24.9486656  21.6015968  25.2546005
   1.1090182  63.7631340  64.7106400   0.4053158  63.1472054  64.9147644
   1.0204571  63.9252777  63.7714386  86.2239151   3.7039309  86.4982681
  85.7199783   4.5152049  86.4341354  86.8803940   3.8823550  87.1716461
  56.3049812  34.6596756  12.0225363  55.4187584  34.3012543  11.9737844
  56.2150230  35.4491463  12.5562696  84.3041077  40.1722603  25.0260563
  85.1584396  40.0608215  25.4431076  84.4630356  39.9853630  24.1008301
  73.8104858  24.7106476  12.1528568  73.6670761  24.2099037  11.3497877
  74.7307205  24.5592384  12.3684149  36.0315170  48.9496841  85.0526276
  36.6471329  48.4934387  84.4789658  35.8998260  48.3505669  85.7874374
   5.8382645  58.2433281  52.4896278   4.9032731  58.3976479  52.3546906
   5.9178824  58.0583420  53.4254036  62.1250496  23.0895538  85.5660400
  61.8008919  23.9478951  85.2932663  62.1608238  23.1395321  86.5212631
  29.6635036  48.6008606  36.0504646  30.1752987  48.5927620  35.2416191
  30.3095055  48.7485809  36.7411842  63.8068390  48.3300514  57.0394669
  63.8985710  48.3138084  57.9921227  63.9494553  49.2459564  56.8006973
  22.6761627  52.5240746  16.7598686  23.0559521  52.1559601  15.9620686
  23.0858841  52.0302391  17.4701424  71.4292145  40.0469933  58.6155853
  70.8066483  39.5599823  59.1554565  71.4358826  40.9268951  58.9923630
  37.7736397  67.7040710  41.7678070  38.3544693  68.4579773  41.8702545
  37.4458923  67.5325165  42.6506348  72.6522369  26.3519573  78.2002182
  73.0169373  27.2319870  78.1065445  73.1144104  25.8300877  77.5442581
  31.6075993  60.1079636  18.6391392  31.7211285  59.6486397  17.8070545
  31.4609966  59.4114532  19.2791481  57.7757912  65.1136932  85.9823227
  58.5728836  65.4463730  85.5697784  57.5605316  65.7664337  86.6485214
  26.6045341   2.5214639  22.9826488  25.7745247   2.7227504  23.4148502
  26.4702911   1.6554055  22.5977402  71.8173294  51.7934837  80.8538132
  71.9796753  52.6947632  80.5752945  72.2768860  51.2567787  80.2080612
  60.3261070  67.7843246  67.7086716  60.1986847  68.0249939  66.7910233
  59.7012253  67.0750427  67.8592606  58.9002571  69.5083923  31.5734100
  59.7209511  69.8058167  31.9661350  58.2817039  69.4805069  32.3033752
  81.5190735   9.8721256  37.4039001  81.7024765   9.5064278  36.5385323
  81.5791702   9.1238441  37.9977837  55.6966820   0.6909469  63.4025269
  55.5537872   1.6026423  63.1483116  54.8161316   0.3323823  63.5133972
  17.5988140   3.3933578   2.8096678  17.3271828   2.4768362   2.8590310
  17.3833485   3.6592104   1.9157274  41.1132317  23.8300457  78.2617569
  40.9036369  23.1685619  77.6024094  41.6734886  24.4561939  77.8031921
  84.2811279  45.5328484  63.8893318  83.5988159  45.8033524  63.2749138
  85.0804214  45.5066605  63.3633194  33.0383759  39.5202179   9.7645626
  32.5899734  39.3238602   8.9420004  33.5302849  38.7239761   9.9652023
  51.4503632  25.5136738   1.0711467  51.1519966  26.4096851   0.9150250
  52.3873215  25.6003971   1.2467105  15.1968575  47.7421150  28.5989113
  14.6103296  47.0153618  28.8087788  16.0032291  47.3208618  28.3013515
  40.2107430   2.6661541  68.0385132  39.6896286   3.4572232  68.1759262
  39.8507042   2.2776570  67.2412262  39.9276161  29.7340622  14.6232109
  39.7600403  29.4282379  13.7317953  39.2165642  29.3589535  15.1427584
  52.4826050  35.8679695  87.4283142  52.0971489  36.7383537  87.5287628
  52.0074272  35.4788628  86.6941299  62.4193993  56.6478844  20.0356865
  62.2688408  56.2048073  20.8707008  63.2126770  57.1642647  20.1781616
  45.2574768  45.9856720  85.6928329  44.3867455  46.3642082  85.8143692
  45.2539825  45.1975670  86.2360764  78.7889404  63.8663406   7.2974110
  77.8945923  63.6118317   7.5245824  79.3293991  63.4860420   7.9898758
  81.5119781   4.0483098  81.4600372  80.5751114   4.2410450  81.4970779
  81.8184052   4.1757660  82.3578644  16.6127663  64.8151474  39.5613098
  17.5067139  64.5484314  39.3469467  16.4728088  65.6141052  39.0530624
  54.2324982  42.8791199  12.0366812  53.6622009  42.4777107  11.3810406
  53.6363297  43.1703911  12.7265930  30.9873772  48.2627983  12.1006117
  31.2749805  47.9539833  12.9597673  30.1847649  48.7530479  12.2786589
  59.2996407  25.9655361  63.6210556  59.3163643  26.7216434  64.2077866
  59.9976044  25.3959103  63.9444847   2.5200589  12.8338432  82.3409195
   2.8580995  13.2382927  81.5419312   3.1201749  13.1231747  83.0282211
  15.9983082   4.5134931  67.0399628  15.4658880   4.8654413  67.7533264
  15.6158056   3.6554492  66.8564301  59.6764832  53.9010086  68.9536285
  58.8833809  53.5098915  68.5872269  59.8350601  53.4102249  69.7599869
  56.4661026  29.4079227  41.1090279  57.1659851  28.9228840  41.5462151
  56.1829338  30.0546207  41.7554283  78.9650192  51.5403328  55.9440651
  78.7213516  52.2891045  56.4883080  79.4330215  51.9250870  55.2030067
  23.7363205  17.7134647  12.6005936  24.5402870  17.9359760  13.0700169
  23.4745655  18.5292854  12.1737986   2.3043606  55.5613136  41.8715668
   1.6608325  56.2688103  41.8321762   1.9579151  54.9587936  42.5297279
  72.2927399  53.1717186  22.0594044  72.0967789  53.3641090  22.9763641
  71.7363358  52.4221611  21.8477364  85.9780655  53.4574509  39.9567719
  86.3339767  53.7042618  39.1031647  85.6739273  54.2816315  40.3368492
   5.6012363   4.3360753  20.6768265   5.9362621   4.8616099  21.4033279
   6.3851657   4.0364881  20.2164650  80.1088715  23.9451103  51.3106842
  79.2445450  24.3494186  51.3862534  80.7224579  24.6761570  51.3835831
  46.4630013  32.9130554  29.3658104  45.9336281  32.1301422  29.5176105
  46.9151573  32.7400513  28.5400620  69.9862289  66.2082672  49.0732079
  70.6740494  66.0324097  48.4311714  69.5315399  65.3718033  49.1722984
  76.9486008  13.9672689  25.9075165  76.7810745  14.6063929  26.6001110
  77.2750168  14.4887648  25.1742191  57.0007362  27.3061962  32.1486778
  56.0897522  27.4929123  32.3755760  57.1726532  26.4475136  32.5351257
  35.9247856  30.0668373  80.9062271  36.0913124  29.1259861  80.8487930
  36.5272827  30.4558487  80.2722702   6.3759022  48.8038979  63.9529610
   6.2356644  48.0557442  63.3725891   6.3813725  48.4268227  64.8327408
  50.4947929  48.7045822  27.7805309  50.7119751  49.2924500  27.0570145
  50.5065346  49.2651062  28.5563583  55.6453552  59.9885712  31.5208530
  56.2182159  60.2022285  32.2573395  55.6353340  60.7829437  30.9869080
  28.7611408  25.1461048  24.7316017  28.7873459  26.0938568  24.6000290
  29.5425491  24.9545975  25.2502136  28.9513111  28.0284290  24.8813705
  29.7497253  28.5561237  24.8987904  28.2486076  28.6619720  24.7362366
  57.7486458  68.1408997   9.4654417  58.3259811  67.7597198   8.8039169
  57.1667786  67.4238281   9.7173767  70.0162430   3.8625793  30.9522533
  69.2931976   3.3241141  31.2739525  70.7421875   3.2483213  30.8430691
   7.6562271  13.4704142   9.2801962   8.1703215  12.6957827   9.0524120
   6.8009443  13.3167887   8.8787956   2.3818097  29.7193565  36.9178123
   1.7307913  29.4907017  37.5812302   3.1766791  29.9071293  37.4169655
  77.3198013  28.6690559  38.1350517  77.0219040  28.4424706  37.2540588
  78.0637054  28.0878372  38.2932243  63.6280518  28.4997406  14.6640110
  63.6978951  29.3407421  14.2122679  63.9395943  27.8582840  14.0254936
  33.8627625  56.7794189  76.4396439  33.8716927  56.0010338  75.8826294
  33.0218887  56.7383537  76.8951416  58.7965393   5.9718432  69.0296783
  58.5729599   5.9422603  68.0994263  59.7274132   5.7508950  69.0594254
  82.2274628  48.3507996  17.3553562  82.0693359  48.7422981  18.2144012
  81.3597794  48.2922401  16.9554462  30.0093594  66.2568588  10.9377289
  30.4710312  65.5774765  10.4462709  30.7001877  66.7235413  11.4080420
  11.9921627  55.1257515  82.4225006  12.7093172  54.5047951  82.2947006
  12.4164190  55.9837761  82.4281387   6.8691702  24.8233032  37.9990234
   7.6700816  25.3327866  37.8757362   6.9089727  24.1470928  37.3227196
  70.7513657  65.4001465  39.2530708  70.6200256  66.0861664  38.5985794
  71.1302338  65.8557053  40.0048370  38.8105011  17.0051041  82.2668304
  38.5853539  16.2554684  81.7158432  38.6385117  16.7062664  83.1597748
   6.7016521  65.2160187  26.3338127   7.3879519  64.9487152  25.7224407
   7.0840516  65.0746994  27.1998558  74.9943924  64.5326920  64.5766449
  75.7837906  64.5294418  64.0352783  74.7505875  63.6099892  64.6501694
  22.3921204  51.3965797  21.7219810  21.8816032  51.7801285  21.0088940
  23.2179146  51.8805313  21.7125797  32.6060295  60.0376091  56.1341896
  32.5081825  60.9789047  55.9905891  33.3172798  59.9650841  56.7706566
  33.7459335  18.4968357  14.6118660  34.4556389  18.4504795  13.9712391
  34.1881523  18.6332092  15.4497671  85.7122116  34.1650887  65.3627319
  84.9269485  33.7661972  65.7375259  86.1434631  33.4505157  64.8940659
  72.8578949  20.0809269  37.4988213  73.0751038  20.7354641  38.1626282
  73.0953827  19.2449512  37.9000435  37.4973679   1.9452420  71.5253983
  37.7923584   2.6073892  70.9002838  38.2269516   1.8523237  72.1380157
  85.5634003  31.3253918  19.1475849  86.2964096  31.8772964  19.4202175
  85.0309677  31.2272091  19.9369545  31.4515419  51.7344513  40.2196274
  32.0670624  51.0516052  39.9530144  30.6266422  51.4905624  39.7997589
  86.8312912  34.9038620  78.8656693  85.9147186  34.8787880  79.1404572
  86.7941589  34.9250145  77.9094238   0.6868684  39.5003395  78.4698792
   0.8916063  40.4320374  78.5489197   0.9695902  39.1215324  79.3022308
  28.6216774  32.0138168  16.7679768  29.4849281  32.2494583  16.4281216
  28.6918106  32.1472664  17.7132301   1.8206639  23.1267185  84.6850586
   1.8236965  23.1648521  83.7286224   1.5266837  23.9956570  84.9584732
  21.8417645  56.0919380   8.7745972  22.0755482  56.8346291   9.3313627
  22.4914036  56.1056633   8.0717373  63.9058800  44.3320885  64.5395126
  64.0013046  45.2842979  64.5600052  64.0763092  44.0548706  65.4397049
  79.6366119  57.0848694  16.7928886  79.4390640  57.4740028  15.9409609
  78.8707352  57.2850609  17.3310299  39.4775543   7.3079271   2.1618609
  40.2931290   7.1282744   2.6296148  39.5142632   8.2444515   1.9674233
   8.4300947   0.5392147  19.7198296   8.5604172   0.4914503  20.6669121
   8.2285433   1.4597661  19.5519199   6.1704640  58.8793297  70.7570343
   5.8004055  59.5835114  70.2246628   6.4524407  58.2214584  70.1214828
  53.6303291  50.3649559  56.9110603  54.4348221  50.3149796  57.4273186
  53.0982742  51.0221252  57.3596992  33.9582329  28.8591766  10.7932491
  34.2846832  29.6797619  11.1624403  34.7260704  28.4570503  10.3871059
  59.5156479  54.6255798  74.0522537  58.8002510  54.0683365  73.7457809
  59.6995430  54.3136063  74.9383011  72.5948563  14.7195997  14.1924124
  71.6426392  14.6270876  14.1615705  72.8535156  14.2676401  14.9955683
  14.0081491   9.0206652  56.9993362  14.7606125   8.8077040  56.4473610
  14.3851585   9.4723930  57.7543449  80.7155533  39.7976608  36.6014938
  79.9398956  39.2640076  36.7741585  81.4317474  39.1657791  36.5381203
  43.8210411  68.1485672  79.7199478  44.3503723  68.9446106  79.7684326
  43.9554787  67.8254395  78.8290253  42.1786346  28.8006516  16.2328396
  41.3693123  28.7653999  15.7229509  42.2949600  29.7292976  16.4336262
  38.1804924  61.0893974   0.8521385  37.8603706  61.9733276   0.6720891
  37.5583839  60.5140533   0.4069504  25.1668682   2.0331268  70.5728302
  25.2920456   2.9685628  70.7325821  24.2356644   1.9475579  70.3684464
  18.9953728  61.2258110  15.4165754  19.6656170  61.6230621  14.8605223
  18.1693039  61.5767403  15.0838709  63.6384888  33.0221214   1.7802284
  63.9066963  32.1357346   2.0223429  62.9073296  33.2194328   2.3656387
   4.6828198  48.0874825  18.9492435   4.8505783  47.2203712  18.5801811
   4.7538886  47.9628258  19.8956280  43.9128380  68.7670746  50.6454430
  43.9755630  69.6966629  50.4259872  43.1980133  68.4397736  50.0994301
  83.9800186  56.9746056  24.0229397  83.7655029  56.7807159  24.9354210
  84.8468628  57.3787460  24.0613518   6.6964645   0.2020940  56.7001915
   5.8276606   0.4474138  57.0183563   7.3020444   0.7001305  57.2492485
  31.8561401  19.6019611  87.7541351  30.9982700  19.1811008  87.8104019
  32.4688568  18.8794403  87.6171188  74.3862915  49.4170265  35.4646492
  73.8593445  49.9425278  36.0666466  73.8130493  49.2671204  34.7128868
  32.4517937   2.0330775  15.6080847  32.6644249   2.9376392  15.8378401
  31.8032913   2.1098278  14.9082365  72.4224319  61.5920944  51.4340820
  72.4528427  61.9255219  52.3308182  73.1222076  60.9400330  51.3971443
  50.3565788  25.6716785  31.6687241  50.2664566  24.7234001  31.7629585
  49.5557289  25.9451027  31.2213898  44.2926254   5.0547543  18.7939339
  43.4132805   4.6951890  18.6768837  44.8730774   4.3981047  18.4090729
  36.0139732   7.6380615  37.2073250  36.3095474   8.5098686  36.9449883
  35.1287537   7.7765598  37.5441284  81.0172806   3.4878194   6.3910041
  80.2430038   4.0415092   6.2901850  80.6666946   2.6049299   6.5086145
  56.9492111  35.1168556  72.6375809  57.1601868  35.4293365  71.7577667
  56.0139389  35.2946396  72.7370300  56.8677711  70.3844299  87.9924622
  56.5914917  69.4821777  88.1532059  57.1005669  70.4018631  87.0641632
  76.1482086  69.1131592  86.7912827  76.2035751  69.4766693  85.9075317
  76.9129715  69.4679794  87.2445679  75.4505615  64.7734451  35.5130615
  76.1245880  65.1628723  34.9560432  74.7283859  65.4012604  35.4897003
  11.9301729  38.9590225  65.1206436  12.5957041  39.1924591  64.4734879
  11.1784592  39.5091057  64.9002609  46.5778999  60.4599800   4.7616262
  45.8261833  60.9607544   5.0784454  46.3252563  60.1793938   3.8820393
  80.3474808  46.5995255  22.2769241  79.9680176  46.8912506  23.1058617
  80.6651382  47.4021683  21.8632927  79.0909958  50.5601120  69.9347687
  79.6804276  51.2659187  70.2005463  79.3189316  49.8287964  70.5087509
  20.5622940  62.0906715   7.7851748  20.8555698  62.9984627   7.7068405
  19.7705021  62.0476608   7.2490349  65.8967056   6.4874167   0.9828285
  64.9910202   6.2073936   0.8503371  66.4041138   5.9547625   0.3704201
  22.3728981  46.7607841  71.3676376  21.5035019  46.8227310  71.7632980
  22.8333378  46.1131744  71.9013290  44.7771721   1.1591108   0.5763894
  44.0533295   0.8119528   1.0977010  44.7707481   2.0996599   0.7540342
  17.7101460  65.8888168  10.0144396  17.1044483  65.6034775   9.3303738
  17.1451473  66.2320099  10.7067013  77.8952942  67.4224319  76.4168396
  77.0417404  66.9914856  76.3725204  77.9248581  67.9761353  75.6366043
  52.8330917  15.1399374  10.0964584  53.3977242  14.3713064  10.1778545
  52.5147591  15.2984715  10.9851437  61.6243477  40.0829849  54.7564545
  60.8831177  40.4797478  55.2140465  61.4990387  40.3283005  53.8397484
   9.5300245  29.1717052  33.9219589   8.5855064  29.1755104  33.7667084
   9.7757454  30.0968170  33.9264183  32.9032249  48.9064903   7.7373457
  33.0248985  49.7424049   8.1875381  31.9823647  48.6886215   7.8815122
  55.5305481  41.0057487  72.4625092  55.5292702  40.1186295  72.8220215
  55.0024681  40.9424210  71.6666718  28.5939312  13.5630083  87.9530640
  27.7359314  13.7477970  88.3350601  28.6944218  12.6148310  88.0372849
  42.9762077  70.1447678  11.4090223  42.4504929  69.7079849  12.0791531
  42.3471680  70.6733551  10.9179602  56.1123772  64.3021088  15.5944214
  55.9874878  65.2451553  15.4881525  55.2945786  63.9947739  15.9855509
   6.4164095  49.8535728  82.2308578   6.2504425  49.1194267  82.8222198
   5.8286386  50.5446320  82.5361328  69.9274292  21.5921974  71.8600922
  69.0162277  21.7708740  71.6276779  70.1383362  20.7817192  71.3965454
  42.1176376  23.9373436  25.6920433  42.8278694  23.3269272  25.4940720
  41.5924149  23.4872303  26.3536892  12.9249649  49.1607285  38.0460625
  12.4775877  48.8623505  37.2541962  13.6301632  49.7229233  37.7253304
   5.3788915  25.3868675  28.9139023   5.4248137  25.8300552  28.0667267
   4.6881828  24.7331715  28.8051071  57.1953735  19.0196056  73.6923141
  57.1631355  19.9649239  73.8391571  56.3943748  18.6868763  74.0971909
   8.7810526  51.5403290  47.8967361   7.8702679  51.3995056  48.1553307
   8.8255129  52.4699554  47.6730156  47.0189857  10.1475153  82.5530548
  46.5857162   9.8333054  83.3466415  46.6179123  10.9997625  82.3826294
  54.1851921  57.3547325  88.5977249  54.6833344  58.1611519  88.7310486
  54.2016220  57.2168694  87.6506424  54.1873245  14.5427523  32.7863274
  54.8013077  14.7731657  33.4835854  53.3744202  14.9874878  33.0263786
  62.8927956  11.3398981  14.0713482  62.2815666  10.6132879  13.9502506
  63.3254433  11.4329271  13.2225885  55.8991356  28.4517307  14.4600782
  56.8258591  28.4579639  14.2205467  55.5284348  29.2064209  14.0026321
  82.3308868  61.6144638  83.7798538  81.4416122  61.7016068  84.1231232
  82.8646851  61.4082909  84.5471802  50.0421677  54.1472397  58.1465149
  49.6373978  54.9751740  58.4052048  49.8277931  53.5433578  58.8575706
  70.2093201  23.6231842  65.5163956  70.8322678  22.8965549  65.5031815
  69.9460907  23.7296505  64.6022797  33.5304375  52.7574768   7.1037512
  33.5904846  52.1020432   6.4087443  33.6199799  52.2560844   7.9141965
  35.5389748  68.9725037  46.6880569  35.5725327  68.6642456  45.7824745
  35.5675659  68.1734390  47.2142830  34.6622925   4.2139859  33.3268433
  35.5830917   3.9869826  33.1971054  34.6601524   5.1675377  33.4103050
  33.0558205   7.6680193  27.8001652  32.3292694   7.3776383  28.3515606
  32.9691048   7.1522317  26.9984951  55.0618439   0.6192318  74.6203079
  54.6114922   1.0893545  75.3220215  55.1833763   1.2741058  73.9328461
   4.9009638  29.7054901   1.8622025   4.7283154  30.6126308   2.1142354
   4.1237121  29.2254372   2.1479683  59.5038490  25.1105766  55.9588432
  58.9870110  25.1402626  55.1537170  60.0627174  24.3402443  55.8564377
  42.3710251  41.6525192  13.3731956  42.3781242  40.6957016  13.3993845
  42.1242561  41.8656616  12.4732475  14.7232246  43.1699677  85.6736221
  15.3180113  43.6235695  86.2708740  14.3726864  42.4442444  86.1900330
  23.5376129  33.6581192  23.8008080  23.4365120  33.8688660  24.7290287
  24.4698257  33.4661980  23.6989288  30.8446083   2.9626553  44.6669579
  30.7101078   2.1671510  44.1518745  31.7187824   2.8595510  45.0430222
   5.8048272  63.0382423  55.9033394   5.4264431  63.6941566  55.3178215
   5.0602326  62.5014420  56.1747398   6.6151767  48.5171661  41.2135048
   7.0992866  49.2901382  41.5039902   6.5034995  47.9925690  42.0063248
  10.3206263  14.0861187  76.4051666  11.1386881  14.5776815  76.3318634
  10.0857964  14.1485977  77.3310089  66.1627884  53.3584824  25.8382187
  66.3233032  54.2735710  26.0686169  65.4212418  53.1002045  26.3856106
  81.5669403  23.8891068  79.5890884  81.1681519  23.1486588  80.0461807
  80.8391266  24.4882507  79.4231033  26.6314526  64.1213760  13.4586420
  26.1360741  64.1950455  12.6429186  27.3558903  64.7384491  13.3554850
  67.5337601  29.3499889  41.4108963  68.4891129  29.3743839  41.4651031
  67.2619171  30.2546654  41.5654678  62.9574280  27.7475681  86.5955353
  62.8628616  28.2042561  87.4314270  62.3705597  28.2137756  86.0001602
   4.7303104  23.2374802  84.3692474   3.8438208  23.1789417  84.0129623
   4.6048255  23.2861996  85.3169327   0.8167273  10.7326841   8.2968645
   1.1050522  10.8509464   7.3918147   1.6205071  10.7889357   8.8135900
  63.0961914  58.6095543  73.5010986  62.7589874  57.7218437  73.6214981
  63.8886986  58.4956207  72.9765167  48.9654655   1.8106052   8.6185646
  48.2893333   1.9266949   9.2860966  48.5364151   2.0539038   7.7982278
  51.9676743  65.7550812  87.9664688  51.7920532  65.0591202  88.5997314
  52.3564682  66.4589233  88.4857788  83.2626495  52.6561966  54.3992386
  83.6274872  52.1563988  53.6689491  83.4034119  52.0990791  55.1647720
   8.2923603  50.1957474  21.5296822   8.5232496  50.0847664  20.6073990
   9.0924768  50.5252495  21.9389172  32.7550430  68.6067963   8.5393610
  32.9981918  69.4347610   8.1251345  33.2115479  67.9394913   8.0269709
  34.4844093  29.1773720  74.6276627  34.7375641  29.5480652  75.4730835
  35.2338791  29.3480434  74.0572281  41.9656830  15.3328094   9.1422768
  42.8934250  15.3936129   9.3699398  41.6314964  16.2220707   9.2595997
  12.9969654  11.3981409  84.0960083  13.6653023  11.5414162  84.7661057
  12.1703596  11.3965111  84.5786591  86.0835876  60.8067245  59.2673302
  85.2139969  60.5238838  59.5502472  86.5370560  59.9951439  59.0394325
  73.0094986   3.1720722   7.2948251  72.5302734   2.5570514   7.8501000
  72.7378006   2.9520416   6.4037590  23.9636230   1.8495318  79.8864288
  24.2659168   2.0786250  79.0075836  24.6237850   2.2214472  80.4713135
   9.2721577   5.0679002  61.6146011   9.6115036   5.2369323  62.4935226
  10.0526857   5.0098338  61.0635681  79.0202332  69.9544525  81.8279343
  79.0008087  69.7138824  82.7542038  79.7170715  69.4146118  81.4548264
  34.8216133   3.0194466  64.4076004  34.0659790   3.5721185  64.6071167
  34.8380089   2.9721155  63.4517136   3.4658103  39.9799423  56.6969032
   4.1842995  39.9415779  56.0656090   3.5856223  39.2034225  57.2436142
  69.2914658  54.2981567  89.1291275  70.2123871  54.3072968  89.3899918
  69.2769241  54.7506599  88.2857666  30.4397259   6.6873660  39.0637321
  30.7554607   7.5620108  39.2907524  29.7362061   6.5166659  39.6899529
  18.6671906  32.3035164  88.8732605  19.3839684  32.2906456  88.2389908
  18.7765026  31.4954948  89.3746414  83.8942184   1.6753922  76.7338333
  83.4697037   2.4909494  76.4675827  83.2400970   1.2294551  77.2718811
  83.7168961  25.2313156  86.8302841  84.5475540  25.7026386  86.7662735
  83.3932571  25.4344597  87.7079010  71.6597824  66.6623535  74.9117355
  71.3232574  67.5583344  74.9259109  72.3947372  66.6922073  74.2992172
  68.3694687  39.1442413  17.6069202  69.1772614  39.4783554  17.9968891
  68.2143402  38.3119202  18.0534744  72.9325790  70.4502869  21.6471806
  72.3108292  70.9147186  21.0868549  73.6368942  71.0808334  21.7974529
  42.8149300   2.9549460  57.7701035  42.2042122   3.0136931  57.0353889
  42.5315094   2.1803472  58.2557983  15.4083099  19.3446293   8.7602034
  14.7894745  18.8894310   9.3312273  16.0769672  18.6893158   8.5609655
  60.9615479  41.5250969  77.1296539  60.2567940  40.9441719  76.8431549
  61.6370926  41.4314384  76.4580154  78.3686600  71.5141754  38.6087646
  78.3472977  70.8107071  37.9599915  78.4508743  72.3150635  38.0910263
  38.2746964   4.5883217  73.5346832  38.6861572   5.0736957  72.8196030
  38.5019875   3.6740241  73.3654785  57.8599663  66.8650436  23.8006458
  56.9667969  66.8434525  23.4571190  57.7844810  66.5105362  24.6865673
  69.6028290  66.5093002  52.8688889  70.0990982  67.0956879  52.2978363
  69.2336121  67.0839005  53.5395164  39.3407784  61.0223198  50.9216347
  39.9218521  60.2673073  50.8292198  38.7024651  60.9211349  50.2155571
  74.1896820  32.6693687  68.4337463  73.4248352  32.4360771  68.9598770
  74.5584641  31.8290596  68.1615143  71.2006683  27.1543941  28.2909775
  71.6390228  27.9694786  28.5353355  70.3178635  27.4238949  28.0374718
  86.1554718  26.2688236  77.7347641  86.9515381  25.7650528  77.5653000
  85.5611267  25.6446476  78.1511765  30.5148754  51.4027596  85.1218567
  31.4058285  51.5595551  84.8090515  30.3041439  50.5216446  84.8128891
  64.8108826  23.7086906  58.1593552  64.1088104  23.9003487  58.7811165
  64.3760681  23.6850338  57.3069420  65.8401108  45.1737366  78.1857758
  66.0000610  46.0359192  78.5695572  66.6011047  44.6526489  78.4418945
  63.4604111  27.5021057  55.9117928  62.5796356  27.8018284  56.1367989
  63.8577423  27.2739010  56.7522011  65.4904633  64.4220581  41.1788254
  65.8049088  63.8618050  40.4692612  65.9690781  64.1214676  41.9513588
   0.8164746   9.4187164  80.5773087   1.2519361   9.8235807  81.3274384
   1.3233634   9.7108917  79.8197327  82.9239883  21.7721958  54.1327667
  83.8370209  21.4851513  54.1181297  82.4619217  21.0772419  54.6015587
   7.8820295  20.4329262  73.2126312   7.7965012  20.0025921  72.3619080
   7.7158456  21.3579121  73.0309296  36.1272316  50.2996597  29.1653881
  36.7813187  50.3772774  28.4708538  36.6399040  50.2368889  29.9712791
  18.0785389   2.1465449  62.4836082  17.4440460   2.8532205  62.6030312
  17.5462017   1.3802866  62.2698402  11.4694653  59.9918289  80.4812241
  10.6580591  59.5173416  80.3003464  11.3876305  60.8049393  79.9828415
  76.2743912   4.0414681  20.3667355  76.5902252   3.3721750  20.9737988
  75.6713562   3.5746939  19.7881947  38.8383827   8.4491224  81.7352142
  39.5560570   8.4470186  81.1018295  38.5159531   9.3503599  81.7288437
   9.1047535   2.3210788  16.8092232   9.7021465   1.9751294  17.4723015
   9.1456575   1.6852494  16.0948849  74.2553329  62.4957962  47.9161339
  73.4267349  62.8712921  47.6183739  74.6803131  63.2052383  48.3981247
  26.0253620  46.1023026   5.0924168  25.0936756  46.1395950   4.8760805
  26.1865158  46.9004021   5.5957050  35.9348755   3.3754220  37.4943733
  35.3683853   3.2930489  38.2615356  35.4015770   3.0542908  36.7672539
  82.9392624  28.0724907  53.2343979  83.7157974  28.0519295  53.7936897
  82.2980576  27.5311432  53.6948547   9.1683140  45.9711266  15.0918922
   9.7117414  45.5653267  14.4164352   8.9752579  46.8445778  14.7512360
  10.7433128  14.6277075  61.5974197  10.3714476  15.1615915  62.2994995
  10.6794586  13.7289457  61.9205017  38.9776802  15.1405125  55.9409027
  39.7870026  14.6446238  55.8171120  38.3445435  14.7135992  55.3637390
  52.8969231  37.3506546  61.5363312  52.2768211  36.9494133  62.1451912
  52.3667717  37.5858650  60.7748528   4.7187705   7.3962097  25.0346470
   3.8245380   7.0733957  25.1458721   5.0613384   6.9010682  24.2905273
  66.7922592  65.9240036  14.8972216  65.9538498  66.3668518  14.7661257
  67.3664246  66.5999298  15.2573280  63.3949356  55.2739029  72.5412750
  64.0178375  54.7884560  73.0821762  62.7536316  55.6167870  73.1636887
  59.7834816  40.1499786  85.4326859  59.4213753  40.8536606  85.9711456
  60.3734360  39.6780167  86.0204239  37.4261856  47.7004128  70.2365417
  37.8917465  46.9192848  70.5354156  37.9118881  48.4303474  70.6206284
  15.8855553   3.8184679  19.1155319  15.7303867   3.1297169  18.4691753
  16.6086197   4.3295946  18.7519932  67.8793640  13.3521252   7.6610003
  68.1218185  14.2778854   7.6813860  68.1784363  13.0076246   8.5024920
  73.7110138  10.8353434   3.4858575  73.9110031  10.1877985   2.8098972
  73.5420303  10.3163557   4.2721972  66.6869736  61.3779068  81.8537750
  66.9886780  62.0345039  81.2260132  66.0017014  61.8215218  82.3536148
  18.4662018  47.4519501  16.5245113  17.8672562  47.2440605  17.2416420
  18.8359623  46.6069336  16.2686749  83.7314682  62.3877487  55.0087585
  84.6166840  62.0741234  55.1938705  83.6563721  63.2012177  55.5076180
  14.2065449  25.2343178  67.3558502  15.0416613  25.0579948  67.7891159
  13.7972412  24.3737793  67.2654266   4.3759809  41.3814278  18.7854652
   3.5056329  41.7775154  18.8283997   4.6246786  41.4490204  17.8636131
  36.7520294  64.9100571  32.2146301  37.2494659  65.4863815  31.6344242
  36.0179710  65.4467545  32.5135384  72.6897354   9.1691799  35.9696655
  73.3479309   9.6779728  36.4430923  73.0816269   9.0107336  35.1108551
  82.4044113   7.1217813  22.9918709  82.9723282   7.8183122  22.6624088
  82.6335983   6.3564119  22.4646950  32.1107750  55.5067520  62.0621109
  31.6704025  54.9568672  62.7101326  32.9848366  55.6509628  62.4246788
  12.5800714  54.9396172  23.4546814  11.9612436  54.2824287  23.7730999
  12.2348499  55.7710800  23.7798309  86.5374146   2.4293914  38.0507164
  87.3033524   2.4835925  37.4791946  86.3223801   1.4969802  38.0752449
  33.4355583  70.6690826  66.3289108  34.3010635  70.4542084  66.6767044
  33.2025719  71.4923172  66.7581406  82.7052689  29.5786896  68.2811966
  83.1279526  29.1219769  69.0085144  81.8052368  29.7172928  68.5760803
   2.7003560  45.3537750  24.8352108   2.6170321  44.4133377  24.6775265
   2.4482181  45.7590141  24.0054893  53.0566063  59.1346931  74.5754547
  52.1711349  58.9067307  74.2922592  53.2122650  60.0015411  74.2005157
  41.3460770  62.6292229  19.4605236  41.5020828  62.9405518  18.5689144
  42.0631676  62.0181808  19.6297626  68.3471146  16.1634121  74.0652237
  68.8926392  15.4142504  74.3047791  68.2541428  16.6614323  74.8773575
  84.8384171  53.4157219  74.6377792  84.4643860  54.2964821  74.6621170
  85.4251862  53.4255028  73.8815765  85.2502060  15.9190292  66.0764999
  86.0444870  16.1148796  66.5734863  85.4551468  16.1889133  65.1812973
  39.2598152  47.5954895  21.7453632  39.4424591  46.8928032  22.3691483
  38.3060150  47.6025314  21.6650429  18.4600563  54.6812363  60.0283241
  18.3529243  53.9346199  60.6176605  18.5690422  55.4326935  60.6111298
  59.4030304  67.2267838  50.2977371  59.2281647  66.8003540  51.1366768
  59.7180557  68.0993271  50.5336342  78.8948593  25.7950878  10.1697178
  79.0717545  26.3183632  10.9514618  77.9659500  25.9398556   9.9897346
  44.5401726  41.6996346  76.1839676  44.3106766  40.7856445  76.0160828
  44.5455170  41.7738380  77.1382751  44.3560104  45.2481956   3.8450572
  45.1698875  45.4649162   3.3902330  44.0782356  46.0723839   4.2447896
   9.1952705   4.1444950  54.4225159   9.0086393   5.0733495  54.2860222
   8.7587204   3.9311497  55.2472191  14.8103628  30.0559158  81.4372940
  15.5932331  30.3260212  81.9172821  14.2326250  29.6907520  82.1074524
  54.1178436   3.1181414  66.4760132  54.9564247   3.5749860  66.4103851
  53.4846687   3.8073857  66.6766663   0.6401089  39.8280716  57.0055008
   0.7133024  40.7236176  56.6755371   1.5458065  39.5351562  57.1062126
  76.4193726   0.5472401  19.7966003  77.1600647   0.5906975  19.1918468
  75.8123245   1.2163148  19.4802780  47.3789444  38.4632645  86.9459229
  47.7924767  39.1664505  86.4451675  46.4930153  38.4036522  86.5884171
  25.6170139  57.2549019  35.3819504  26.2674046  56.5725784  35.2156448
  26.0623417  57.8745346  35.9598579  65.1580582  68.9462967  74.5447540
  65.6710739  69.0347977  73.7415009  64.2708588  68.7524948  74.2421951
  65.8087921  71.9413986  10.8035870  64.9443893  71.5315704  10.8364525
  66.3588562  71.3040848  10.3480816  66.1569901  57.4608994  83.7674332
  66.3517151  58.2987862  83.3476028  67.0056000  57.0229721  83.8331146
  76.3487854  34.3935661  77.9784698  76.1407700  33.5049744  77.6897430
  76.1353226  34.9459038  77.2264099  39.8868561  46.8361320   8.3799257
  39.3763313  46.1171951   8.7523870  40.2125473  47.3176994   9.1403532
   1.5796787  58.1692810  27.9354172   2.5080287  58.3366814  27.7730141
   1.5503055  57.2645607  28.2466259  17.5294743  56.8240013   0.1535909
  17.8020287  56.5165405  -0.7109391  17.1414127  56.0544853   0.5701066
  43.4955482  38.4247704   7.0378561  43.8649063  38.9816246   7.7232194
  43.9203262  38.7217636   6.2331243  85.9586639  22.5546436  48.0857086
  85.2755661  22.2274723  48.6709976  85.5036316  23.1621437  47.5025139
  48.3547516  52.5347214   1.8448495  48.5898209  52.9620094   2.6685009
  47.4376183  52.2850304   1.9577823  47.3390160  52.6636086  62.7022018
  47.0750351  52.0999641  63.4294243  48.2958755  52.6506729  62.7242622
  74.1733627  40.9374390  12.9779119  73.4769135  40.2998161  12.8209782
  74.4140930  41.2488098  12.1053705  78.9963303  28.8970451  51.3402100
  78.1836853  29.3861904  51.2114143  79.5059738  29.0664196  50.5478668
  86.4950562  64.5324554  76.9407730  86.9883270  64.1020813  77.6391220
  85.8040314  63.9092178  76.7164993  83.0712814  52.2569122  31.4866047
  82.9851532  53.0501976  32.0152931  82.7969131  52.5229950  30.6090183
   8.7944899   2.9154532  51.2067833   8.2911577   3.0865858  52.0027771
   9.3640165   3.6792524  51.1146851  38.1645546  20.6674900   3.2266712
  37.2948875  20.4224262   2.9106798  37.9985275  21.1415024   4.0415211
  67.2739944  53.4176865  47.0454407  66.7339096  54.1772957  47.2634583
  66.6443405  52.7175179  46.8735733  40.5885468  39.1112137  12.4262466
  41.3926506  39.1631317  11.9095736  39.9045601  39.4302902  11.8375340
  38.2873383   5.7052207  88.9327545  38.9962616   6.0207167  88.3722916
  38.6038628   5.8510447  89.8242569  23.8454971  26.1632137  48.0833969
  23.4505177  26.3209858  48.9409142  23.7322216  25.2241383  47.9366455
  28.2782288  19.8672047  79.3588181  27.7114010  20.5056458  78.9259949
  29.0904675  19.8861389  78.8527069  61.5160141  27.1139240   1.8858279
  60.9261398  27.8164272   2.1592689  61.2196045  26.3475742   2.3768284
  45.0866356  40.1809731  21.0896397  44.3563423  40.3524780  21.6841888
  45.6880875  40.9118843  21.2319660  48.9777641  50.8313103  56.6675339
  48.2240067  50.7887955  56.0790825  48.6272087  50.5863037  57.5238724
  63.5643349   6.0467677  70.6907806  64.1281586   6.5611873  71.2684631
  63.8935623   6.2286935  69.8105850   7.4016309  38.9723015  51.8901291
   7.6054358  38.1854248  52.3956184   7.9596386  39.6515350  52.2689438
  12.9261484  58.0141525  44.6125526  12.3488607  58.0823555  45.3730278
  13.1095762  58.9214821  44.3689499  67.8787766  56.6869431  50.0770226
  67.4782104  56.9582596  49.2510872  68.8203049  56.7127419  49.9064522
  18.0642719  47.2550468  47.4637947  17.7016125  46.3752594  47.3604355
  17.4058952  47.7271309  47.9736061  76.6261520  15.2274408   8.9913244
  76.2463760  15.9656029   9.4678946  76.0253525  14.5008888   9.1568508
  15.4046450   5.5257006  24.2940559  15.4571447   4.6325340  23.9538670
  16.3168488   5.7947931  24.4022503  35.6372108   6.3035216  43.6347389
  35.3819084   6.6799402  44.4769745  34.8360291   5.9010329  43.2995605
  23.0557671  54.8832550  52.5615997  23.7212887  55.5382309  52.3510895
  23.2826939  54.1281929  52.0188141  50.9483147  13.3683529  84.3892746
  51.2836456  12.4766531  84.4823303  50.2348289  13.4234877  85.0249939
  16.7733555   0.3783528  47.3595963  16.0074406  -0.1675148  47.5374603
  17.4397316   0.0621252  47.9696579  21.8106461  66.5109253   7.3219614
  22.0965214  66.9829254   6.5398340  21.4217110  65.7035370   6.9856806
  29.0588512  70.1645279   8.1569405  29.7914772  70.0350571   7.5546713
  29.4027500  70.7523575   8.8295650  85.7344513  31.3316021  55.8532753
  86.5054855  31.1040783  56.3728638  85.8912430  30.9246845  55.0011826
  26.0919952   1.3381435  74.8910980  25.2408047   1.1055930  75.2620773
  26.7284641   0.9236597  75.4736252  69.6861038  31.6316071  84.3440781
  69.8780594  32.4225235  83.8402481  68.9452286  31.2315292  83.8888016
  31.3543377  11.1604366  73.6004486  31.6069088  11.9851294  73.1853333
  31.2341251  11.3838434  74.5234222  11.9525175  50.0978127  67.0063629
  11.4729481  50.3638992  67.7908630  12.4830217  50.8615379  66.7793808
  15.9638605   8.6355991  24.6407852  15.6456223   7.7334332  24.6732502
  16.7244015   8.6005640  24.0606289  11.4768553  21.4933300  13.0350857
  12.1725121  21.4357853  12.3801184  10.6693964  21.5412960  12.5232840
  74.2852707  55.1537857  52.5316887  75.1557999  55.4267502  52.8213387
  74.3894730  54.9728012  51.5975494  31.0358047  18.2952690  69.8556824
  30.7004623  18.3889542  70.7473068  31.1547947  17.3522739  69.7423859
  32.1419144  21.0235386  11.8806639  31.6224518  20.3218441  11.4882126
  33.0503044  20.7600708  11.7335377  12.1105604  37.5077477  77.6373138
  12.8489265  37.5436058  77.0292358  12.4163446  37.9773521  78.4133301
  56.3430061  66.1573029  28.8489532  57.1020699  66.5459061  28.4141674
  55.6121216  66.7271576  28.6095638  20.8386612   0.3521182  58.7317657
  21.6302147  -0.0555531  59.0831604  20.7975616   1.2059469  59.1624832
   2.9419062  18.7490578  35.7499619   2.4562941  18.0309544  35.3440781
   3.0974100  18.4557209  36.6477394  32.6063385  49.1484261  57.0527115
  32.2706261  48.2572479  56.9561005  31.8500137  49.6593246  57.3411369
  12.1878567  48.6958351  26.8749962  12.8813763  48.7108307  26.2154217
  12.4614019  48.0196686  27.4948349  20.0359020  28.7694530  20.8221493
  19.1943913  28.3790302  20.5862236  19.8117676  29.6382313  21.1556473
  49.4999580  13.8049288  81.9392548  50.0695724  14.1204729  81.2376862
  50.0990334  13.5789127  82.6507721  18.5227852  51.4776268  63.9392776
  19.1507359  51.0624275  64.5304794  17.6742783  51.3510132  64.3638229
  68.0602036  41.6623001   2.0083759  67.9537125  40.9323502   1.3984040
  67.1880264  41.7925606   2.3806179  42.3234787  58.3717804  19.8329334
  42.4387131  59.3191605  19.9065685  43.2141762  58.0212288  19.8357029
  61.7512016  40.7594299  16.4327755  61.4536209  39.8609657  16.5757370
  62.5509377  40.6673164  15.9149199  33.4731865  17.4173431  87.7332230
  33.0832672  16.7101631  88.2471237  34.0909805  16.9768448  87.1496811
  60.8178291  31.1255379  68.1310349  61.4986153  31.5487785  67.6079330
  60.3405952  30.5794220  67.5063400  75.3030472  43.2320786  79.0914841
  75.3749237  43.9789085  79.6858902  74.3612747  43.0839005  79.0058441
  37.2009659  48.6715927  66.7119141  37.6359177  47.9973488  67.2338791
  37.5213127  48.5287971  65.8212891  82.1974030  48.0701599   7.8473830
  81.2869797  48.0124092   7.5575318  82.2317963  47.5312386   8.6377077
  26.0804729  69.9740295  26.7257862  26.1216793  69.1408310  26.2563992
  26.7559624  70.5138626  26.3152695   5.0850987   3.1840832  45.5172005
   4.4113717   3.2363358  46.1951332   5.7151647   2.5471902  45.8542671
  61.8871994  42.8217888  13.6071815  62.2034569  42.1026993  13.0602598
  62.1261787  42.5677414  14.4985743  23.2155075  51.6888733  58.0154724
  23.9416714  52.2470322  57.7373085  23.5606232  51.2021484  58.7639542
  84.5006180  19.6726398  72.3832474  84.2876511  19.4456234  73.2884216
  84.9255371  20.5281639  72.4445114  20.1360664  63.2489510  23.6049995
  20.5904026  63.0327911  22.7906971  19.3065891  62.7744598  23.5496941
   5.1217227  37.5042381  83.8201904   5.5666223  36.8355980  84.3409805
   4.2263355  37.1788788  83.7271576  51.4211807  52.7260513  17.4208469
  51.6089516  52.8083038  18.3558369  50.6859169  53.3203354  17.2710266
  61.4996834  57.9380150  88.5024872  61.7278023  58.5411415  89.2098923
  60.9732399  58.4635658  87.9000854  20.3736515   2.0090864  50.8265686
  20.1535053   1.9651662  49.8960648  19.5862274   1.6990732  51.2738800
  48.0035133  37.4050102   7.2757344  47.9524841  38.1217117   6.6433053
  47.1516418  36.9724846   7.2168212  61.2841911  18.1954899  15.4493589
  60.8184509  17.5858803  16.0218048  61.2628479  19.0291348  15.9192677
  29.2183075  71.5255814  81.9169769  28.6501198  71.1617279  81.2379990
  30.0185146  71.7718430  81.4530182  62.9705620  17.2880154  56.5583611
  63.3118057  17.6329441  57.3834724  62.3159714  16.6411572  56.8216438
  66.3737411  67.1555786  55.0777740  67.0340729  67.7177963  54.6726761
  65.6027451  67.7161102  55.1649094  71.6384048  44.4322205   0.1263596
  71.8100891  44.3262825   1.0620596  71.3040085  45.3252983   0.0438121
  11.7845688  68.5810089   0.0974907  11.2165098  69.1401825  -0.4324756
  11.9904337  69.1103745   0.8679619  11.6179724  41.3336487  76.6862869
  11.2984295  40.9420738  77.4991760  11.9800272  40.5980759  76.1922455
  64.2283859  64.1411209  77.9406357  64.8276520  63.4502640  77.6580963
  63.8196564  63.7941322  78.7335892  84.0337677  58.0849800  17.1395569
  84.8740311  58.2381592  17.5716763  83.3929901  58.0976181  17.8505268
  86.2150879  61.1804733  55.8009987  86.7901459  61.5340652  55.1223831
  86.4952927  60.2708244  55.9023018  56.2296143  38.7920723  39.6333046
  56.8431244  38.0573387  39.6309433  56.6626244  39.4639816  40.1598663
   4.7475858  55.9978561  29.3064232   4.1884818  55.3059959  29.6599216
   4.4369659  56.1220093  28.4095783  76.7372589   5.8892026  49.7148972
  76.5201111   5.0179663  49.3831902  76.4885635   5.8625569  50.6388397
  70.4456253   3.5854049  24.3713646  69.8448944   2.8654864  24.1788177
  70.4749222   4.0958405  23.5621510  49.0467377  35.2424812  87.9175491
  49.4809303  36.0307121  88.2437363  49.1531830  35.2862282  86.9672928
   4.1273160  66.7695084  51.9629745   3.4181283  66.8192902  51.3220329
   4.1920047  67.6560898  52.3179588  59.3475647  35.5844040   9.2133579
  59.3139610  35.6370811   8.2581987  58.6162453  36.1266174   9.5090122
  47.3929634   9.1522341  55.3005943  47.6631470   8.7299223  54.4851875
  46.4407349   9.0560608  55.3160477  35.8971519  43.2452278  74.7708969
  35.8128204  42.6269417  74.0450592  36.8373947  43.2815666  74.9465561
   7.5858865  45.9473152  44.6377449   7.5284309  45.1449051  44.1190300
   7.5980778  45.6450844  45.5458984  43.8430138  -0.1335854  15.1228237
  42.9678993  -0.5200168  15.0899982  43.6871567   0.8105015  15.1481171
  17.2874451  65.2506485  16.1465130  18.1062202  65.0859833  15.6788330
  17.3859425  64.7807541  16.9746037  40.0670319   3.9078102  10.4195833
  39.4027252   3.9741015   9.7336292  40.5298843   4.7450089  10.3864660
  15.8610716  68.2344513  21.4255352  15.0712194  67.7136230  21.2802715
  15.8752203  68.3897705  22.3699436  71.1918335  60.7306023  66.3010101
  71.9004745  60.0872345  66.2895889  71.5820312  61.5232735  65.9327087
  29.6052475  32.4374008  86.4842682  30.0676250  31.7075138  86.0723190
  30.0287514  32.5386887  87.3366852  18.7561169  11.5306635  27.4446602
  18.7100163  10.8396950  26.7838497  18.8980331  12.3331614  26.9425774
  78.6970978  12.6615858  49.0408745  78.1611252  11.8702946  48.9876938
  78.4370728  13.0720100  49.8656006  30.9602642  46.5281982  56.3988152
  31.3888416  45.9987221  55.7263489  30.9378929  45.9626656  57.1707611
  15.0490780   6.2773261   8.5104704  15.7336941   6.8981953   8.7595778
  15.3990602   5.8316798   7.7390146  53.8819847  10.9473658  80.8622665
  54.0335503  11.2251043  81.7656631  53.5627174  10.0482044  80.9384918
  75.1901932   1.3872794  58.0689468  74.3378754   1.3380538  57.6360931
  75.1469727   0.7252923  58.7589760   9.6734056  20.4407845  22.2574520
   8.8625574  20.6806622  21.8088799   9.8794041  21.2003193  22.8023415
  48.7868309   4.0796018  14.5582123  49.3301010   3.3767076  14.9146223
  48.8124199   4.7644110  15.2265034  41.6139336  64.4200974  36.4506645
  42.5484886  64.5093689  36.2639351  41.2298431  64.1371155  35.6208305
  46.2562370  71.4010162  13.1803579  45.5540924  71.4118195  13.8308239
  47.0184593  71.7465668  13.6449423  19.0150871  49.2685776  78.6014099
  19.1198387  50.0712547  78.0905609  18.2092896  48.8750610  78.2666397
  43.5984001  13.3118219  85.8244247  43.3597832  12.6796513  86.5024033
  44.5075035  13.5398073  86.0188141  22.1858101   3.2908731  34.3294678
  22.2355919   2.8067241  35.1536980  22.5523434   2.6929941  33.6779900
  37.9022026  33.4252815  13.5113544  38.7603951  33.2441597  13.8946657
  38.0959396  33.7415161  12.6289177  16.3386269  23.0939922   7.4399691
  16.8930740  22.9097118   6.6817737  16.2903519  24.0493374   7.4748454
  69.1506348  11.3805542  68.1942444  69.7288818  11.9746733  68.6726608
  68.2721329  11.5995407  68.5049133   8.2846565  70.6744461  46.3617134
   8.9450874  70.8058624  47.0420036   8.7283049  70.1496353  45.6953964
  56.6089897  20.5427551  50.2658730  56.7275887  20.8859119  51.1515427
  56.4584923  21.3190022  49.7264099  36.8284416  50.3033447  87.6146393
  36.1703224  49.7190590  87.9910889  36.5270386  50.4584656  86.7194748
  15.1578608  15.6140394  64.9447479  15.3895273  15.4113235  64.0383987
  14.2762775  15.9828634  64.8898697  50.3463898  68.2520599  33.8392448
  50.0323677  69.1509552  33.9372597  51.2761536  68.2975082  34.0621948
  41.0899010  64.4471664   0.9731349  41.8888321  64.7552185   1.4009701
  41.3670464  64.2151413   0.0868004  54.3064651  17.4039345  16.1123466
  53.9093933  18.2387409  15.8640232  54.8539124  17.1670170  15.3637457
  39.1804924   3.8462157  38.1414604  38.5909767   3.5414724  38.8312683
  38.7715645   4.6471014  37.8134499  60.8164978   7.7123775   5.3046985
  59.9694824   7.3510108   5.5658703  61.2903061   7.8311806   6.1278791
  21.6005726  67.4635239  85.0418777  21.9047813  67.9331207  84.2652359
  21.5636654  68.1314774  85.7264938  59.7183876   7.6842446  36.0229721
  60.6233673   7.9931517  36.0656509  59.2521667   8.2191725  36.6654091
  46.1034050  45.3786926  35.8682022  45.6211052  44.5518799  35.8680687
  46.1310501  45.6399994  34.9477768  57.5004959  53.0670815  39.9615784
  56.9598808  53.8569374  39.9517593  57.8315697  53.0145683  40.8581619
  82.4406586  33.3128510   3.2095242  83.2549286  32.8110809   3.2472339
  82.6191483  34.0982704   3.7267175  41.4457245   1.7822652  10.9340906
  40.8143120   1.0655971  10.8713388  40.9094238   2.5751011  10.9290981
   5.1494122  34.1044388  42.0449600   4.9097667  34.2132950  41.1246567
   4.3397622  33.8241844  42.4717560  84.3161926  68.3776093  24.8454990
  83.4349136  68.4688339  25.2077942  84.8979111  68.6105957  25.5690689
  55.4443932  56.9384155  48.0677299  56.3220444  57.2919769  48.2124977
  55.0063591  57.5976944  47.5294838  34.5330544  68.4323349  21.9445057
  34.3348198  67.6635666  21.4097748  33.7544632  68.5532761  22.4880123
  21.2050266  24.2363548  81.4217377  20.2571030  24.1243763  81.3501053
  21.4092846  24.9449902  80.8115387  70.5639572  17.4445839  32.1313095
  70.2895432  16.6400509  31.6912479  71.4958878  17.5231819  31.9274483
  69.7278442   3.2239118  48.5730705  69.5777588   2.6594038  47.8147583
  69.4048920   2.7160449  49.3173866  63.2425880  25.2313309  46.9684639
  63.9079857  24.5588646  46.8226357  63.1257401  25.6423759  46.1119461
  30.4446373  44.3429337  83.5409546  31.1597347  43.7547607  83.2982254
  29.7794609  43.7678871  83.9192352  20.8021145  40.2152634  70.6892929
  21.3802166  40.6619301  71.3077698  20.1044216  40.8468781  70.5145950
  83.0786819  48.1299591  35.6435852  83.8609848  48.0931435  35.0932465
  82.3570786  47.9282837  35.0478935  67.1919937  39.7133789   8.2673120
  67.7207031  40.3734131   8.7156992  66.3243408  39.7916336   8.6639042
  78.1221466  59.3556938  32.9532890  78.1512146  58.5734634  32.4023781
  79.0194550  59.6888313  32.9437675  47.2470093  65.2645721  13.3928185
  47.9669228  65.8709488  13.5667782  46.4621506  65.8120804  13.4145460
   1.7023249   1.8631819   9.1703587   1.1014930   1.2866709   8.6982698
   1.2160939   2.6808565   9.2762823  48.4221230  10.3110275  31.6461163
  48.3317070  10.7201262  32.5067520  48.6712341   9.4064999  31.8358650
  58.4400215   9.9587860   2.1506512  58.7926903  10.8373308   2.0091753
  59.2122536   9.4096441   2.2860558  79.1462326  33.3940659  70.9357986
  79.0100021  34.3267975  71.1021805  80.0432510  33.2276230  71.2254181
  48.5569763  51.2442589  59.8376274  48.2497406  51.9838104  59.3133202
  47.7901306  50.6782188  59.9258385  31.9687023  28.0578079  75.3636856
  31.2808990  28.0354099  74.6983566  32.6463699  28.6203346  74.9887695
  81.7484741   7.7602940  39.4660416  82.0639725   6.9922099  38.9898682
  81.2011642   7.4010520  40.1643410  44.8046036   3.3032529  81.6247406
  45.5329895   2.6822376  81.6199722  44.5536690   3.3710318  82.5459747
  78.4540482  20.0095940  89.0402298  77.7270584  20.5395870  88.7133942
  78.5913315  19.3475170  88.3627014  22.3187847  40.8388519  67.6348877
  21.5580082  40.8096199  67.0547180  23.0150089  41.2173653  67.0980148
  57.6846466   8.9024763  75.6587372  58.3672791   8.3462362  75.2834473
  58.1164360   9.7435322  75.8084488  68.1081314  66.4304810  72.3392944
  68.0801544  66.4145660  73.2959518  68.6165314  67.2133713  72.1275330
  54.0143280  28.9481773  19.2376442  54.6352806  28.4242649  19.7437744
  54.5381432  29.3221264  18.5291157  41.3904648  47.4340477  15.0905123
  42.0007019  48.1697197  15.0392733  40.8304253  47.6391106  15.8392019
   6.4487123  19.7123699  12.5126705   6.9048119  19.1070919  11.9279966
   5.5366478  19.6830063  12.2236938  10.4463329  52.3914642  72.5714111
  10.7103472  51.4794273  72.4500809   9.6471720  52.4805756  72.0521469
  34.7515793  49.1270409  44.3619957  34.1810455  49.4899750  43.6845016
  34.2271042  49.1640053  45.1618652  85.0562592  25.7674465  15.9333668
  84.9621582  26.4866676  16.5579433  85.3169479  26.1923904  15.1162395
  38.8929901  56.9095993  87.3824844  38.2157822  57.0692177  88.0398636
  39.7168541  56.9875565  87.8635330  66.7807388  31.2980194  30.9665146
  65.8283310  31.2140236  30.9208755  67.0063477  31.8685741  30.2318020
  45.1995125  36.6281624  88.3578186  45.7705536  36.4594994  87.6083603
  45.0362549  37.5708389  88.3271866  82.4150696   9.6906261  20.0912819
  83.2860107   9.3025274  20.1753769  82.3863220  10.0223894  19.1938744
  49.6953392   5.8061352  10.1040907  49.3794212   5.3879318  10.9050484
  48.9362793   6.2818909   9.7668715  38.8782272  54.2968636  50.8688011
  38.6394539  54.7662239  51.6681252  39.8258820  54.4114609  50.7977715
  40.1174660  24.2324371  80.6930389  40.4393768  23.5170803  81.2415543
  40.4381256  24.0243320  79.8154831  74.7098618  38.6529694  50.8044319
  73.8511047  38.5054703  51.2006836  74.5158997  39.0233841  49.9433823
  61.2135201  27.9643192  10.3294706  60.9076195  27.6971169  11.1962233
  60.5267525  28.5448895  10.0015640  17.5760784  28.1742268  26.0304756
  17.5203190  27.7658272  25.1665707  18.0745964  27.5505981  26.5584888
  64.3705750   9.5310593  57.4556656  64.9488602   8.7907686  57.6394691
  64.7952728   9.9930534  56.7328796   9.3407955  71.5666046  32.1839943
   8.6174698  71.3247375  32.7623825   9.1596413  71.1021805  31.3668518
  84.2434464  64.5251465  36.0820808  83.5950775  63.8989334  35.7600403
  84.3989716  64.2635193  36.9896011  74.5140915  47.3909035  26.1010075
  73.6680679  47.0270615  25.8400517  75.0999222  47.1802826  25.3739128
  53.7995682  27.8613071  10.0580006  53.2722168  27.4854927  10.7629080
  54.6670647  27.9796886  10.4448681  79.2926483  65.8165359  72.9595337
  78.8158951  65.0181046  73.1863556  78.6438980  66.5151978  73.0445404
  14.7434978  51.1981049  84.5838776  14.6977453  50.2574310  84.7549515
  15.5517426  51.4803734  85.0120087  14.8722248   7.7107916  41.5201263
  14.7362261   8.2435293  42.3036575  14.3089495   6.9476180  41.6486511
  85.9288101  46.7759438  88.7219086  85.3851700  47.5333900  88.9386063
  86.7924347  46.9926033  89.0732651  64.3353577  18.8436584  64.8109665
  64.2605820  17.8938961  64.7182617  65.2645187  19.0256252  64.6703186
  46.5474434  68.7625580  40.8388481  46.5334129  69.7059937  40.9999695
  45.6699257  68.5621033  40.5132599  56.0053635  54.7728043   4.2679071
  55.6033554  55.1495018   3.4851427  55.7887306  53.8414841   4.2238607
  76.2070923  28.5059013  47.9441223  75.6364365  28.4850655  48.7123299
  75.6258087  28.7388725  47.2201996  24.7885056  42.5551147  13.6445847
  24.4938030  42.1249390  14.4472857  25.3618488  41.9133224  13.2255249
  78.1223297  65.4416962  19.1287918  78.7991409  65.2058411  18.4943409
  78.4463577  66.2443542  19.5374203  28.2662621  58.0098190  17.0410271
  27.8531647  57.1716423  16.8335724  29.1033783  57.7720871  17.4397144
  20.7750454  27.0615044   8.8819008  21.0309505  26.5616589   8.1067238
  20.9378262  27.9740047   8.6429977  71.0539780  31.3285809   6.2080274
  71.4120407  31.7963600   5.4535680  70.1089325  31.3172607   6.0563731
  65.4977722  54.1533966  20.4324646  64.8702393  53.7994041  19.8022823
  65.8912659  54.9018974  19.9839764  72.9735031  40.2832184  83.2085342
  72.8820343  40.0169830  82.2936707  72.9562454  41.2399063  83.1824493
  37.1015434  13.0167942  84.5053253  37.4568520  12.1544828  84.7207413
  36.2243271  12.8367481  84.1672211  59.0142136  28.9608040  81.7311249
  58.6198730  29.1685505  80.8840332  58.6262894  29.5920448  82.3371658
  54.5014420  14.1328173  81.9581451  54.9470291  13.3365755  82.2474213
  54.1300430  14.5037165  82.7585983  79.9575272  40.7754860  23.0266552
  80.5726395  41.2957878  23.5435295  80.4956055  40.3799858  22.3408833
  64.6701508  58.4616051  19.9973507  64.2467117  59.2863274  20.2356033
  65.5035324  58.7243805  19.6066341  32.0912514   0.5846527  85.1174316
  31.8679619   1.2765766  84.4948502  33.0332870   0.4568395  85.0057602
  69.1910858  58.2479897  28.9936409  68.8820267  58.8434105  28.3108597
  70.0571594  57.9703102  28.6952400  65.0485153  55.4014053  22.8472042
  65.2960281  54.9183006  22.0588017  64.8055954  54.7230911  23.4773769
  25.6336555  10.7409410  80.2922058  25.0320740  11.4163866  80.6054230
  26.2080765  11.1979923  79.6778946  21.4568501  61.5592270   4.3294482
  21.8193455  61.2067146   5.1421995  20.5714264  61.1982002   4.2856903
  13.1639071  59.1129341  25.7185669  13.2060928  59.8189392  25.0735817
  12.6453676  59.4754066  26.4368706  73.3751450   8.9719019  45.3904724
  74.1171417   8.4674997  45.0569229  73.7725220   9.7414751  45.7980080
  57.7816238   2.3346303  88.0973053  57.6517181   1.7399235  87.3586044
  58.6555367   2.7001209  87.9597321  59.5707092  69.8823090  12.3653994
  58.9170151  70.5029984  12.6873608  59.1450233  69.0279007  12.4361954
  36.8819199  38.1140022   7.1210399  37.4495468  37.7621841   6.4352865
  36.1821861  37.4667015   7.2082520   4.7036805  39.3787727   5.3154607
   4.6695833  40.2479134   4.9158783   5.4959693  39.3929329   5.8524055
  15.7586174  63.8787384  32.8441887  15.5790901  64.5202713  32.1568489
  15.4314575  63.0514183  32.4910049  59.3247147   9.4098644  87.5696335
  60.2177887   9.1257124  87.7643356  59.3329582  10.3532972  87.7311859
  52.0052948  16.0598602  33.5149536  52.0335808  16.1815701  34.4639626
  51.1027985  16.2683086  33.2735405  63.3123436  39.1864319  79.8675156
  63.6035805  39.9815178  80.3138962  63.1787109  39.4570122  78.9591370
  52.3744888  48.4827538  69.0918045  51.9990959  47.8446770  68.4850311
  51.8480568  48.3960381  69.8865204  45.7494125   7.4415617  47.2812309
  45.7070274   7.6826653  48.2065964  45.7864723   6.4850845  47.2843857
  17.6816902   0.6685663  51.0326309  17.3696175   0.1933099  50.2625809
  17.5467167   0.0611094  51.7599602  60.2718391  13.1116610   5.5878105
  60.7147408  12.2936869   5.8136148  59.3481445  12.8715611   5.5145140
  77.9910583  69.8643646  10.6375647  78.6195831  69.3017883  11.0899992
  77.2726822  69.2781296  10.3998547  63.9227066  57.1577225  55.2501335
  63.1245003  57.3671989  54.7651405  64.4895554  57.9176445  55.1181335
  21.1869144  65.6806870  23.5435314  20.7390938  64.8632889  23.3254566
  21.8627644  65.4235611  24.1707058  77.8683014  30.3150387  88.5431595
  77.2487106  29.6233101  88.7752228  77.3844147  30.8767872  87.9377441
  44.9411926  58.4652672  36.7424431  44.9555893  59.3985710  36.5303955
  44.8239784  58.4371758  37.6920242  65.5677414  20.4291115  55.5787201
  65.2011642  20.8789520  54.8174744  65.5497284  19.5021305  55.3407822
   3.0582304  10.1682110  66.7023773   3.3572536  11.0082512  66.3543091
   2.2044208  10.3599482  67.0902863  37.3500786  12.9910526  44.5362091
  38.1210976  12.9212399  43.9732819  37.6989441  12.9486361  45.4265633
   2.3789806  60.8879509  36.1473236   2.3958917  60.4156609  35.3149261
   2.2836888  60.2031898  36.8093338  65.1067886  25.8096161  52.0946541
  65.4414825  26.2813282  51.3319588  64.1604462  25.9507465  52.0672455
  77.3605652  52.7680244  69.3880310  77.5963364  51.8482971  69.5094528
  78.1980133  53.2164421  69.2703934   3.3644600  49.2132416  31.8796482
   2.8306539  49.8398590  31.3911457   4.1280303  49.7172279  32.1610565
  27.3031349   2.2703590  88.4283524  27.9703598   2.1833050  87.7475662
  27.7718258   2.6384513  89.1773987  78.4406052  66.4521179  83.4512939
  77.9036865  66.8073578  82.7429428  78.8298798  65.6593094  83.0822983
   6.2679863  18.9762192   7.6997938   6.3662663  19.9037132   7.9150262
   5.6102543  18.9600677   7.0045533  29.4611397  66.9808731  28.5479279
  29.7493095  67.5690842  27.8499336  30.0381222  66.2207031  28.4739838
  25.1159496  -0.1354459  36.8258705  25.7083092   0.0142032  37.5627213
  24.6711349   0.7030274  36.7020378  85.9455109  42.2627182  82.5800018
  86.8458328  42.5104675  82.3695984  85.4106445  42.9620361  82.2043686
  18.2985268  66.1333008  59.3218842  18.6487885  66.1961746  58.4332924
  17.3587532  66.2839661  59.2201118  66.9565659   5.6633525   3.1706300
  66.6436005   6.3295474   3.7825689  66.5853348   5.9201589   2.3265500
  61.1526909  45.0759544  84.5074081  60.7964821  45.1118164  83.6196823
  61.6811485  45.8702087  84.5857010   5.5089855   1.6347444  43.2881927
   6.2817602   1.8210937  42.7549706   5.3583946   2.4409926  43.7816696
  73.3303986  13.0531244  83.2389297  73.9724503  12.4667940  82.8386612
  72.8099136  12.4858704  83.8077469   6.2138715  62.2137299  88.0596085
   6.3695726  63.1193237  87.7914886   6.5964637  61.6870232  87.3578720
  48.6560326  31.3148365  22.4101238  48.1616096  31.7181835  23.1236267
  49.5674477  31.3499794  22.7005081  80.3988876  65.6659317  13.9719372
  80.2033081  65.7474976  14.9053869  80.9092407  64.8590088  13.9037724
  61.4218292  36.2503815  13.3160610  60.8406754  35.6263847  13.7509422
  61.8983269  36.6722870  14.0310259  43.3076591  46.4009209  17.3915634
  43.6463585  46.1068535  18.2371635  42.4197159  46.0455856  17.3525295
  11.2662926  55.0166397  59.1187668  11.2846069  55.8270226  59.6278572
  10.6550655  55.1963348  58.4043808  53.4828033  64.0988083  26.1809006
  52.9898338  63.6899986  26.8922958  54.3717918  63.7576523  26.2786160
   2.7052727  45.3273735  40.0671349   3.5650918  45.2868729  39.6484451
   2.1563377  44.7432976  39.5439186  80.2448425  27.5532169  42.7273903
  79.4854279  27.6183071  42.1483498  80.3514328  28.4356098  43.0827141
  18.9981422  63.6135902  11.2434883  18.4960155  64.2872086  10.7848625
  18.4026070  62.8661690  11.2976027  72.3762436  14.1580658  80.5075302
  72.8641663  13.4025755  80.8352432  73.0480270  14.7444115  80.1594772
  79.0349426  19.2002201  67.2849655  79.1559067  18.3129482  67.6231232
  78.6817093  19.6927948  68.0258026  81.5050049  67.4495392  88.8906708
  82.1405945  68.1089935  88.6125107  80.7676086  67.9561539  89.2309952
  61.1262436  26.9917221  13.0458565  61.2784653  27.7794552  13.5679073
  60.2059288  26.7773628  13.1984997  12.8676815   2.7289779  15.8561802
  12.2981367   3.3794575  15.4454155  13.4858027   2.4831164  15.1679144
  82.4123383  20.0786304  88.1712875  82.0748978  20.9330750  88.4401550
  82.7457352  19.6878281  88.9789734  51.6105347   6.5791059  88.0257339
  51.7194443   6.4626851  88.9695663  52.3307152   7.1558337  87.7708664
   4.1842957  53.1467209   9.2468443   3.9943299  53.4842987   8.3715248
   4.5398278  52.2712440   9.0939617  77.2957535  59.3756943  66.9042282
  76.4579010  59.1952209  66.4779968  77.3568420  58.7205620  67.5994263
  70.4857788  59.5452232  78.8275986  70.8174973  60.3584137  79.2082825
  70.0232773  59.8222275  78.0366592  61.5767784  70.8875732   7.6798153
  62.2133560  70.2128754   7.9159904  60.8410568  70.7413635   8.2744341
   1.7365797  57.4004669  83.4825134   2.5757906  57.4175072  83.9425812
   1.0813463  57.3825111  84.1800613  78.6272202  44.3308411  43.8872452
  79.0598145  44.5950813  44.6992035  78.8638077  43.4097252  43.7786102
  68.2073517  40.9765816  50.6149788  67.4880981  40.9291954  51.2447891
  68.2582626  40.0961456  50.2428627   5.9337783  37.0145683   0.6610481
   5.9099784  37.2394562   1.5911508   5.5074010  36.1590691   0.6104975
  13.1602459   4.4830332  78.4833832  12.8718834   5.2889495  78.0549240
  12.4363527   4.2482052  79.0639572  76.9344101  49.5172882  77.5922394
  77.4120407  50.1529579  77.0593033  77.0500259  49.8237991  78.4916382
  38.7319489  42.0444069   1.0233871  38.6661377  42.4000664   0.1371556
  38.1439400  42.5906868   1.5449753  42.1668777  53.5428238  43.6072083
  43.0467987  53.2676430  43.3498230  42.2304153  53.6976013  44.5496750
  68.3828964  10.4957170   7.5060644  68.5880356  11.4146976   7.3339410
  68.0365219  10.4906931   8.3983822   9.5803432  38.4966774  68.3253937
   9.6918907  38.3793488  69.2688065   8.6366320  38.4205856  68.1845016
  57.8808174  39.2519684  69.1376724  58.7394371  38.8410110  69.2382660
  57.9681549  40.0992279  69.5744247  71.9040833  28.3953114  45.6470757
  71.3699112  27.6060944  45.5574417  71.4267426  28.9375610  46.2750435
  78.1407318   1.1624035  85.6351089  78.6317139   1.3670199  86.4309082
  78.7661285   1.3047055  84.9245758  79.9720001   7.1485157  79.9019318
  79.8226547   7.9888554  79.4686203  80.7355423   6.7815986  79.4562912
  68.0137787  57.6983948  21.3978596  68.0280457  58.4209175  20.7701702
  68.2114792  56.9220619  20.8739777  63.7281075  41.8691330  19.0155258
  63.8213463  41.7678871  18.0682735  63.2963715  41.0639763  19.3011131
  23.1023750  15.4542618  83.9646606  22.6489582  15.7918215  84.7371216
  22.7281933  15.9457493  83.2334595  20.5195732  65.1255264  84.5686035
  20.8973007  65.9626236  84.8384552  20.7073212  64.5324173  85.2960663
   1.7240498  32.7989922  16.9929295   0.9126483  32.8462524  16.4873333
   2.4110415  33.0216255  16.3646698  34.2498360  48.3980103  17.1418476
  33.8397141  49.2628632  17.1499748  35.0174561  48.4916382  17.7059612
  77.1856308  53.7827301  52.4241600  78.1267853  53.6824646  52.5670052
  77.1034851  53.9643478  51.4879456  11.3048859  47.9803581  48.8343506
  10.6854210  48.3769073  48.2217789  11.0848608  48.3674469  49.6816902
  47.9017525  63.1639404  74.3363876  48.8450928  63.1328087  74.4956741
  47.5087128  62.9583702  75.1846161  65.6724091  24.5544243   2.1937187
  65.8843384  24.3159714   1.2912453  65.3164597  25.4406910   2.1299942
  78.9234619  36.2025719  10.3806868  79.0348511  35.8311806  11.2558393
  79.8123779  36.2614479  10.0305634  36.1548157   9.1193819  30.7636490
  35.9389038   8.5598202  30.0176582  35.3104744   9.3102856  31.1721554
   4.6177402  43.4711266  86.2069626   5.4497023  42.9985619  86.2344131
   4.8655171  44.3948250  86.2472153  52.5401764  66.6905289  58.6781349
  51.7955055  66.8575058  58.1003723  52.6589088  65.7412109  58.6475487
  23.0994854  25.1742382  76.0405807  23.2300587  24.5639629  76.7663574
  23.9585571  25.2372723  75.6231461  70.5134201  70.6915436  70.3792953
  69.5792007  70.8985977  70.3547897  70.7603989  70.8072433  71.2968140
  74.0437317  50.9154320  22.1746407  73.5408783  50.1278267  21.9671593
  73.4293213  51.4730721  22.6518936  32.5997887  48.0303497  21.4575329
  31.8023434  47.8296356  21.9474583  32.9667015  48.7955704  21.9002991
  57.9125328  26.0369301  69.5170670  58.7638397  25.8959103  69.1027985
  57.4248466  25.2320404  69.3422852   2.4560130   3.4015176  76.1502991
   2.8311081   4.2329006  75.8598938   2.1799951   3.5652938  77.0520935
  28.3193741  55.5266533  45.9905128  27.4496212  55.8513527  45.7574234
  28.4596348  54.7791061  45.4093666  57.5216713  67.5335083  16.1820316
  57.0873947  67.4307938  17.0288410  56.8552437  67.2890778  15.5398788
  80.7336731  15.7684975  70.9699783  81.6883698  15.8375216  70.9746628
  80.5611191  14.8466463  70.7785416  30.8351974  22.1391239  14.9329023
  30.9781418  22.7394085  14.2011528  29.8834763  22.0979404  15.0265083
  16.5605240  50.9523621  60.4804688  16.9540081  51.8221855  60.5497894
  17.0097561  50.4324608  61.1468964  60.2838669  21.4653740  39.2375336
  60.5508156  21.1496201  40.1008224  60.8059807  22.2556877  39.0995789
  74.6955109  22.9529514  75.6383362  74.4853668  23.8849602  75.5797653
  73.8733444  22.5379868  75.8992538  50.0839539  64.8987961  23.6197662
  49.3680115  65.4529648  23.3090248  50.2325554  65.1828232  24.5216980
  43.8647995  57.1512108  66.0495071  43.0946159  57.6224861  65.7317810
  44.4514046  57.8376198  66.3672562  83.7319260  59.3312225  77.3783417
  84.6298676  59.0177383  77.2703857  83.5362015  59.1832848  78.3035660
  81.4127731  26.2183189  20.6560059  80.8055038  26.4057903  19.9402428
  80.8485260  26.0029125  21.3986053  62.8950157  44.4504395  44.2280159
  62.0088844  44.2153397  43.9528198  62.9706841  44.1010132  45.1159401
  36.9815102   2.3057313  30.4318790  37.4701042   1.5491416  30.1077213
  36.8510361   2.8555179  29.6592579  35.8948822   4.2278080  21.6231384
  35.7024727   3.5942872  20.9318619  35.0615349   4.6719279  21.7797260
  59.9572220  20.0683937  19.9013481  59.4569054  20.8062992  20.2497883
  60.8474770  20.4066906  19.8052597   4.1038041   7.2363214  72.0744781
   4.2914829   7.1451273  73.0086594   4.9646401   7.3192649  71.6642151
  15.2575569  61.5094261  31.2928944  15.8400440  61.8695107  30.6241055
  14.5695381  61.0652771  30.7973213  13.4279375  55.9554100   2.4327607
  13.5847712  55.4718056   3.2437871  14.1649351  56.5629501   2.3698320
  83.5104904  45.8745689  82.8071594  83.4357986  46.8224297  82.9176865
  83.8595657  45.5628433  83.6421432  34.6068993   3.1352994  87.5512161
  35.0704269   3.4549232  88.3253021  33.8290710   2.7002609  87.9004440
  22.5108948  71.6364212  21.9526787  21.8046761  71.6951675  22.5961361
  23.2475853  71.2659454  22.4387512  41.3084564  23.0917015  75.2904282
  40.9449425  22.2606525  74.9847412  41.4010124  23.6189651  74.4969177
  36.6918869   1.3221864  82.2434082  36.6572571   2.1212864  82.7692108
  35.7770348   1.0559553  82.1517487   4.7249312  63.8563957  76.3244095
   4.5144520  63.8096123  75.3918076   4.0473485  64.4220200  76.6947937
  26.5889339  35.2071915  66.4825287  27.4173279  35.5745010  66.7908783
  25.9902878  35.3124084  67.2219772  62.8585129  67.9572067  34.7013893
  62.2121735  68.1498871  34.0221596  62.8789673  67.0013733  34.7483025
  80.1633148   6.0671592  20.0827255  79.5712891   5.9959617  19.3339462
  79.8724289   6.8537645  20.5441017  75.4515381  18.8575497   6.1799479
  76.3021469  18.4239845   6.2486472  75.6405945  19.6880035   5.7430973
  13.7492571  11.9425383  39.7248726  12.9472790  11.4201765  39.7390327
  14.1390905  11.7597475  38.8699760  70.4273987  28.2114334  62.0036507
  71.3656921  28.0352631  62.0729675  70.0107117  27.3748569  62.2104034
   5.9315643  67.1754456   4.5635915   5.6016893  67.8552170   5.1512313
   6.3754144  67.6570282   3.8655193  75.5929947   2.5591545  77.3361282
  75.0981827   2.3859875  78.1370087  75.4631348   3.4931200  77.1715775
   8.5729780   6.7969823   3.5693808   9.0972862   7.1658545   2.8585596
   8.6812191   7.4148607   4.2923899  56.0111694  43.8387718   4.5741391
  56.0171509  42.9369583   4.2533183  56.7897797  44.2366943   4.1847119
   3.2830756  49.2144203  50.7923851   3.6146939  48.3207664  50.7049522
   3.8621702  49.6229019  51.4358292  46.9422989   3.5057790   2.9752781
  46.1843224   3.5162559   2.3908157  47.6857224   3.3246789   2.4001637
  48.6644630  19.1793308  82.9088974  48.0660858  19.6323757  82.3148270
  48.4771271  18.2502441  82.7749786  76.5775757  26.1691914  44.4431114
  76.0186310  26.1542091  45.2200203  76.0729904  26.6599789  43.7944565
  60.2299919   1.4406980  18.0191059  60.5799904   1.8966006  17.2536736
  59.9385338   0.5939513  17.6810169  37.8325691  21.5183010  11.3437243
  38.4772034  21.4491482  10.6395245  38.2461052  22.0885239  11.9918480
  58.7270851  22.8843727  15.6956444  58.5109978  23.1015568  16.6024914
  58.9349709  23.7264194  15.2907057  21.1270237  53.0916138  57.4146042
  20.2428932  52.7788849  57.6062965  21.6995106  52.5193901  57.9255371
  64.2899704  41.0306778  15.3505745  65.1629486  40.6551590  15.4651203
  64.4515839  41.9283714  15.0603065  26.9481373  17.2159367   3.1308100
  27.6230698  17.1983185   2.4522908  26.1220989  17.2045822   2.6473179
  26.5447598  55.5031013  23.5350113  26.0249176  56.3052177  23.5860634
  26.5990601  55.1948967  24.4396076  26.4856758  53.1796684  68.9309998
  25.6564465  52.7081833  68.8515472  26.2493992  54.1004143  68.8186111
  43.3940964  65.4000931   1.9421841  43.5197716  66.0947571   1.2957476
  43.6923523  65.7835922   2.7669291  80.1434479  19.9053421  46.9277725
  80.4164581  20.3754063  47.7156410  79.8664551  20.5931263  46.3224144
  49.2204704  70.6440353  74.1560135  49.0779419  70.6910629  73.2106552
  49.2149200  69.7072906  74.3527603  71.5876465  35.8289986  19.1175613
  71.1371307  36.1719017  19.8893681  71.7109909  36.5923500  18.5533695
  82.4354172   3.5764406  43.2215614  82.6932449   3.1260455  42.4172630
  81.6501389   3.1137600  43.5139694  66.7701416  27.6012764  27.1574993
  66.3493881  28.4524117  27.2790184  66.8856735  27.2622948  28.0451794
  33.5928726  51.3036766   4.6029468  32.7832947  51.1729584   5.0966330
  33.4762344  50.7817345   3.8090925  64.2041855   8.3056269  60.5450134
  63.3890114   8.7301140  60.2775459  64.8465729   9.0148163  60.5698586
  21.9433098  62.7236099  26.5075054  21.2487144  62.1005287  26.7209015
  22.3943367  62.3325081  25.7592773   2.7325590  51.4710197   2.1489544
   3.1453011  50.6263046   2.3287718   3.0216944  51.6954231   1.2644910
  20.3886013  45.8625412  -0.0188145  20.8961334  45.0557289   0.0689007
  19.9732952  45.9783554   0.8357843  65.0275650  26.5636845  13.2140608
  64.7442017  26.1665859  12.3905020  65.8588791  26.9880486  13.0017891
  55.1676712  28.6730862   5.4008718  55.2036285  27.9844151   6.0647035
  55.7493515  28.3660316   4.7054615  66.7912445  47.4000397  85.0932236
  66.0673141  47.1321106  84.5272141  67.5374680  46.8840065  84.7881165
  48.1601067  10.6865282  73.2933960  48.6304626  10.8512230  74.1106262
  47.4849129  10.0504999  73.5296402  86.9847717  12.0180168  76.5260544
  86.8563995  12.9215679  76.2373581  86.3500061  11.8998775  77.2326965
   2.7442710  71.2115936  50.7129555   2.3193626  71.7442627  50.0406799
   3.1527278  71.8478546  51.2999496   6.6569953   4.5239730  52.6717186
   7.2618022   5.2054009  52.9651413   6.4444556   4.0341015  53.4661293
   8.8623085  61.7124596  81.8908920   9.7054119  61.4365425  82.2504501
   8.6943388  61.0985146  81.1759949  43.3262787  60.8434105  20.1408329
  44.0731583  60.2598457  20.0071888  43.5400124  61.3270950  20.9387054
  40.2954292  21.4250946  13.4399672  39.9693489  22.2336617  13.8350906
  40.2632027  20.7823162  14.1485071   6.3983474  46.8394432  30.7370987
   6.3409286  46.1059608  30.1247768   6.0321054  47.5818520  30.2565479
  19.7988319  46.6171227  81.1685562  20.2867584  46.2743950  81.9173508
  20.3246212  47.3537941  80.8569489  63.8277016  46.8512192  18.0800667
  63.5844116  47.2921219  18.8940964  64.7734756  46.9813309  18.0106220
  26.4187927  69.7214890  46.0170555  25.9287052  70.0750275  46.7593880
  25.7510357  69.5302353  45.3584557  19.5884628  44.4285507  19.4294910
  19.9871426  43.9416809  20.1507721  20.1894054  45.1565132  19.2708549
  47.5292778  52.7768059  45.4286346  47.3414154  51.8859825  45.1330452
  48.4639435  52.7686005  45.6349449  21.6738033   2.8560836  53.0735321
  22.5661144   2.6281576  53.3344154  21.4637909   2.2382252  52.3732605
  32.0553627  50.6297951  50.5143394  32.8348122  50.8280602  49.9953156
  31.8323116  49.7296524  50.2772331  80.6325302   8.0956287  76.7389526
  80.5859756   7.6841145  75.8759842  81.5269547   7.9284272  77.0360870
  71.3695145   4.6750083  71.6867218  71.0180511   3.7847946  71.6717224
  71.4156494   4.9298487  70.7652206  65.9994431  33.3317528  49.1873817
  65.9168625  33.0854683  48.2660980  65.6782532  34.2327042  49.2241707
  32.5040970  14.9998055  29.4325085  33.1331520  15.5033331  28.9158058
  32.6112061  14.0985603  29.1283417  11.6749744  68.6645432  29.0641918
  11.1539917  69.4393311  29.2751503  12.5541868  69.0048904  28.8987255
  15.4708223   1.7928528  87.0174637  15.5166922   2.4810121  86.3537140
  15.9636707   1.0637392  86.6409988  41.7625656  51.4292030   6.4955626
  42.4512749  50.7713013   6.4002748  40.9550285  50.9639397   6.2772884
  35.3678551  14.3817148  16.6476460  34.9627342  14.8341475  15.9077721
  35.9053841  15.0504036  17.0720863  84.1466217  41.8015480  22.2978382
  83.7146301  42.5680542  22.6747761  83.7033386  41.6643257  21.4606380
  70.4420929  24.6456795  60.9350471  71.1636810  24.7515564  60.3151016
  70.0646057  23.7927971  60.7198143  44.5079117  61.8841972   5.3757582
  43.6029434  61.8349113   5.0677991  44.5018616  62.5870667   6.0255022
  41.2850952  57.4550247  10.9731245  40.9065018  56.5920105  10.8054686
  42.2182312  57.2860451  11.1032476  45.4785347   9.1875792   6.7782063
  46.1809311   8.5373344   6.7856603  45.7782249   9.8707542   7.3779483
   2.9000118  65.1752243  78.0030746   2.9278843  66.1199341  77.8514709
   1.9738423  64.9835052  78.1503296   9.7104158  69.0410080  44.5491028
   9.1555843  69.1750336  43.7807083  10.4633446  68.5511703  44.2183647
  31.4366226  35.4462624  76.7818146  31.3136578  34.9348488  75.9820862
  31.1787109  34.8531342  77.4874420  76.4452438  40.9002800  82.0740509
  76.4026337  40.4708176  82.9284363  76.3425369  40.1882133  81.4426651
  81.0611496   2.6760211   1.1212300  81.7650833   2.0759225   1.3673764
  81.4888611   3.5290678   1.0463566  69.8918304   8.7425423  35.1914024
  70.8179855   8.9130812  35.3628464  69.4471817   9.5482578  35.4547272
   8.6871367  41.8642311  87.2902908   7.8822031  41.4687462  86.9557724
   8.6595526  42.7673492  86.9742966  36.1489449  54.3367615  34.2682114
  36.9436913  54.0492821  33.8188057  35.8563995  53.5657539  34.7542114
  84.4941406  45.5936432  22.2976894  84.5770035  46.5468025  22.2685204
  85.1440277  45.3163795  22.9434509  56.9571533  30.3186207  74.9253235
  56.0375938  30.5252800  75.0924683  57.2016983  30.8876610  74.1955185
  48.8117943  41.4822006  18.7901154  48.7107277  40.5535316  18.9989033
  49.4464684  41.8039398  19.4303513  81.1869812  43.7894859  74.4685669
  81.9753113  43.7613182  75.0107651  81.1739578  42.9436150  74.0207214
  61.3582306  50.2906647  44.5063095  61.2479401  50.3599548  43.5580139
  60.4652901  50.2566833  44.8494377  40.5681763  57.1289024   7.4058800
  40.4668045  56.3823013   7.9962530  41.1340523  56.8050003   6.7050953
  41.8639107  51.2439728  40.4948578  42.0096626  50.3597183  40.8311386
  41.2633667  51.6435432  41.1240807  63.9658432  55.5899734  15.8298302
  63.9739532  56.3385468  16.4263229  64.0533371  55.9769096  14.9587049
   3.9712830   8.3067722  62.9882507   3.5118265   7.9087949  63.7276726
   3.4668920   9.0956078  62.7893562   6.3104382  39.7341652  14.9873295
   5.6932335  40.3266144  15.4166241   6.6449189  39.1829872  15.6948318
  23.8705730   4.9455705  69.0361252  24.1853104   4.2614908  68.4451904
  24.5187950   4.9709392  69.7399673  68.8115387  53.3908539  35.9439735
  68.5780945  54.2680473  35.6402168  69.7499161  53.4421692  36.1257668
  35.7371941  52.1500511  45.7035789  36.6680336  52.3233452  45.5630760
  35.3339806  52.2995796  44.8484230   9.0898561  57.2837067  82.8469772
   9.4633932  57.5249672  83.6946182   9.2881613  56.3518677  82.7543488
  38.1660614   7.9828663  70.2095184  37.2764244   7.7724214  70.4932404
  38.2134247   8.9376545  70.2581787  69.1496277  40.5416679  23.3647499
  70.0377960  40.2315521  23.5414429  68.9439621  40.1968231  22.4958344
  44.3315811  36.6743317  26.4252014  44.7607002  37.5094070  26.2388268
  43.8388748  36.4752922  25.6290512  28.8702049  47.1553421  65.0559769
  29.7529278  47.2264519  65.4192581  28.8262310  47.8474922  64.3962631
  29.0767975  62.4819794  50.0433960  29.9734058  62.8159180  50.0149231
  28.5423756  63.2017326  49.7078590  42.6288719   8.1023855  26.9699688
  42.7695732   7.3732710  26.3659592  42.1252594   7.7230163  27.6901646
  57.3275375  36.7880096  37.4531059  56.7554245  37.4048119  36.9965134
  56.8614006  35.9530258  37.4113274  12.4833298  30.6901398  27.7706432
  13.2974558  30.8741093  28.2392426  11.7923050  30.9488258  28.3803959
  72.8651810   7.9699430  58.8045731  72.9955978   8.2950945  59.6953583
  73.7275391   7.6522760  58.5368958  24.9890823   4.6836619  71.6267090
  24.3091183   5.2223043  72.0313644  25.5965557   4.4887924  72.3403091
  56.9959755  52.1524200  30.9165115  57.1616173  53.0502167  31.2041798
  56.7363396  52.2388649  29.9992619  34.5264893  23.3042183  81.2701492
  34.8552551  23.1812534  80.3796310  34.8425522  24.1711731  81.5245667
  29.4725704  55.7221603  60.9811363  30.3255997  55.8613129  61.3924866
  29.1685658  56.6016235  60.7567215  29.4380970  10.0914841  70.2100296
  29.9783688  10.8696623  70.3470612  29.9577332   9.3727140  70.5699997
  79.3666382  70.3419952  71.7445984  80.2569351  70.6286240  71.9481583
  79.0236816  71.0204544  71.1629562  15.1888828  35.7185097  17.6673584
  14.8555593  34.9092331  17.2798042  15.5569124  36.2038345  16.9289494
  52.2436447  32.0731659  64.9726410  52.9819641  31.5409565  65.2690659
  51.5154686  31.4556580  64.9042435  37.5574875   9.0995312   4.4505372
  37.7638817   9.2649393   3.5306063  37.8547020   9.8861322   4.9078703
   9.3325739  27.9434738  24.1678257   9.1878815  27.3485298  24.9035816
   9.6845484  28.7384491  24.5682755   1.7577536   9.5038843  21.3766880
   1.6293194   9.0025015  22.1818905   2.4129753  10.1626806  21.6066933
  19.7706528  42.8337288   9.4993248  19.7758560  41.9013062   9.7156305
  20.6532326  43.1346741   9.7154703  76.9763870  32.3746185  64.5489197
  76.0224838  32.3264885  64.4857941  77.2075500  31.7080593  65.1958313
  20.1924114  36.9888992  82.3200073  20.7463417  36.4203835  81.7850418
  20.2723598  36.6361313  83.2062378  80.4078751  27.7500286  16.1617699
  80.1253052  28.5591202  15.7354345  80.6949387  27.1877899  15.4422464
  22.7206268  18.9640694  25.4336967  23.2275295  18.7472992  26.2161884
  23.0122623  18.3319950  24.7766857  11.4195385  21.9720097  19.8842831
  10.4870234  21.9436283  20.0983906  11.8604307  21.7496071  20.7042732
  67.4397812  28.3159084  62.0786972  67.9089966  28.8386135  62.7289619
  66.6884537  28.8561573  61.8339996  84.3481522  44.6082535  43.7501068
  83.8416290  43.7964211  43.7745399  84.2809296  44.9593163  44.6380653
   2.3219595  23.1874561  12.9690170   2.3114412  24.0003853  13.4742575
   2.7902462  22.5654392  13.5258245  83.9577026  40.3355865  49.8918190
  84.6079407  41.0328522  49.9769096  83.5822601  40.2499695  50.7681465
  65.5169830  38.1391640  77.8638763  65.7938995  37.2627525  78.1311874
  64.5774307  38.0544395  77.7017517  68.3606949  14.9686947  64.3619614
  68.1173935  14.1582012  64.8093338  68.2901230  14.7587385  63.4307442
  43.3687286  23.9025249  69.3071899  44.2627106  24.0427780  68.9951553
  42.9815407  24.7777176  69.3259964  69.0200882  34.0489845  82.7742310
  68.8560486  34.0517464  81.8311996  69.5981140  34.7980957  82.9189835
  82.5506287  42.6449928   5.6659136  82.7208557  42.8730164   4.7519865
  82.9240952  41.7695770   5.7679114  77.5869522  26.3058720  32.3380737
  76.7876740  25.8419056  32.0888176  77.3769836  27.2308502  32.2093735
  71.5132599  43.5319138  16.0562248  72.2804108  43.0396805  15.7639704
  71.3502884  44.1609688  15.3534002  20.7222691  46.8647423  27.0758457
  20.8744411  45.9282799  26.9488869  19.9068489  46.9093590  27.5751762
   3.5083694  57.7789688  50.0653305   3.0402565  58.4413376  50.5736313
   4.0680695  58.2822151  49.4739647  50.9966812   5.7622514  84.4234390
  50.2865868   6.0624146  83.8560715  51.3096886   4.9576411  84.0100861
  78.6851730   1.0733737  80.5270996  78.6970749   1.1979519  79.5781174
  78.9464188   0.1610501  80.6521988  32.3842773  22.4588394  82.4859467
  32.3845291  23.1428204  83.1555786  33.0991783  22.7000618  81.8969116
  36.7016754  59.5564537  82.1311111  35.9227715  60.0692062  81.9151840
  36.6359711  59.4067001  83.0742416  26.6382027  63.2702103  52.6593399
  27.3499794  63.8601189  52.4111214  26.6835175  63.2288284  53.6145706
  13.3798037  67.7585220  12.8054094  12.8078814  68.0420380  13.5186796
  14.2619495  67.9812927  13.1027699   8.6274424  67.2554703  24.8956947
   9.3709707  66.7367706  24.5885334   8.0185804  66.6110153  25.2565231
  85.4905396  17.1754665  71.8314667  85.3528137  18.1161671  71.9425812
  86.3491058  17.0113792  72.2215729  54.1068077  59.1208992  60.7862778
  54.0364990  59.8403015  61.4137764  53.2943077  58.6269379  60.8961868
  61.3608589  61.3359451  60.2169418  62.2085838  61.5997124  59.8591461
  60.7195587  61.8110580  59.6885185  25.4278336  65.1112213  41.3017197
  25.6211586  64.3100891  41.7885933  24.6307812  64.9076462  40.8123398
  15.8869514   6.7092977  13.6594057  15.9382362   5.9849987  14.2830982
  16.7360058   6.7053790  13.2174530  75.8343353  15.0057240  63.3099060
  75.5141296  15.7884502  63.7582779  76.7701416  15.1656275  63.1877594
  65.9182129  28.1324196  45.5080681  65.6483688  29.0386276  45.6570816
  66.6812439  28.2010059  44.9342117  41.3854866  70.9130325  88.1869888
  41.1588364  70.0712585  87.7916641  41.8273087  70.6826019  89.0042572
  48.6321030  19.1302700  88.0946732  48.3513527  19.0195827  87.1862869
  47.8976021  19.5726433  88.5201645  80.0576324  51.9053993  44.6931076
  80.2004013  52.4440994  43.9148750  80.7948074  52.1136398  45.2670822
  77.0975113  63.6099472  40.1519547  77.5736160  62.9288979  39.6768417
  77.3619766  63.4947395  41.0646515  64.3059311  62.6119881  83.1357803
  64.0032501  63.5186234  83.0845032  64.4231796  62.4512138  84.0720673
  67.4481125  71.5299301  88.8798599  67.6810074  70.8541031  89.5164566
  66.6275482  71.2230911  88.4941711  25.7342033  41.1535645   6.7311816
  24.8297462  41.3867798   6.5218992  26.1618710  41.9907494   6.9113274
  24.1019974  37.9080620   1.9631293  23.4158936  37.2411156   1.9371592
  23.6627140  38.6907539   2.2957788  58.8688202  50.1494675  31.3781433
  58.6004410  49.5098610  32.0377731  58.0853119  50.6771202  31.2234459
  67.6672592  24.4868488   3.9171691  67.2774048  24.1845436   4.7374496
  67.0222778  24.2596035   3.2473955  84.8589783  32.1229630  77.0807037
  84.9851761  33.0173721  76.7639465  84.9544449  32.1896515  78.0307999
   2.7124228  29.8182373  21.6723518   2.3375933  29.1759109  21.0697327
   2.1692660  30.5982475  21.5592289   6.5905299  59.1428833  38.7591553
   6.4226880  58.3292160  39.2345505   6.7846174  58.8621178  37.8648796
  55.2431145  38.0403976  72.5008621  54.3274841  37.8340187  72.6886368
  55.2577438  38.2334824  71.5634537  56.7097359  39.9678612  14.1805363
  56.6969681  39.1874886  13.6263838  55.8268051  40.3297424  14.1049814
  47.6592331  53.1207390  26.9327374  46.7818069  53.1134911  26.5502396
  47.5686073  53.6424789  27.7301140  75.3530350  22.3299942  47.0621414
  74.4930725  22.5931339  46.7343597  75.9746399  22.8221912  46.5258713
  19.8364601  71.2181091  39.2119904  19.5567932  70.7065277  39.9711342
  20.7745991  71.0431519  39.1376991  19.8035145  21.7094345  72.0338669
  19.1291027  22.3703327  72.1907501  19.4318810  21.1440392  71.3567810
  15.3339071  58.9239311  57.8119583  14.7080946  59.4067116  57.2720375
  15.5892105  59.5439453  58.4950638   5.2043934  47.2860527  61.9676743
   5.5461912  47.7626724  61.2112083   5.2026553  46.3693047  61.6923523
  16.3113098  23.4462929  77.6035995  15.4304457  23.5175476  77.9713364
  16.1786747  23.4786568  76.6561813  50.6475906  47.1742973  48.1754913
  51.0725899  46.7614861  48.9272842  49.7209816  47.2084312  48.4131088
  29.2292309  41.5855446  15.5130482  29.4032955  40.7189140  15.1457787
  28.4268456  41.4729462  16.0226860  34.5795631  18.9663811  34.4111557
  34.5339432  19.8730068  34.7147675  35.5121727  18.8101864  34.2625885
  72.5861893  35.0785637  67.4672775  72.9605331  34.2175331  67.6536331
  71.6733856  35.0084572  67.7467575  12.3098478  39.2919807   1.9424021
  11.5582418  39.7938080   1.6269792  12.0730467  39.0417976   2.8354673
  23.5361671  56.5508881   0.3524577  24.1722565  57.0845718  -0.1237826
  23.0131149  57.1837883   0.8444814  37.0554428  52.9361916  49.3516197
  37.9346886  53.1800690  49.6408997  36.5968590  53.7701988  49.2498093
  36.9921150  51.1215248  33.9875259  37.3223076  51.7327423  33.3290291
  37.5573616  50.3533478  33.9061012  85.4603271  35.4668884  85.5041962
  86.2268677  35.0394630  85.1221619  85.1647873  34.8637047  86.1861496
  19.9850445  40.7917519  62.0512199  20.4260330  40.3701363  61.3136520
  19.7687664  40.0720825  62.6441231  48.6161232  66.9062653  54.9281158
  48.2210693  67.4056549  54.2134285  48.6241074  67.5129776  55.6684303
  30.6331444  11.6377172   6.8396831  30.1597614  12.4146547   6.5421805
  30.0610580  11.2469893   7.5001988  79.3714600  38.9447556  70.2498703
  79.8380432  39.7033310  69.8990173  78.4459381  39.1772537  70.1751862
  37.1018257   8.5366001  52.8691711  37.5115013   7.8589907  52.3313599
  37.4618378   8.3973846  53.7450943   9.9912252  29.9896793  71.1169586
   9.0459862  30.0783043  71.2390213  10.3493900  30.8303566  71.4019394
  20.6286564  66.4692688  30.6072865  21.0972137  65.9055939  29.9916954
  20.5222683  67.2978668  30.1400127  72.3679886   5.1852174  82.8295593
  71.5941391   5.0643234  82.2793121  73.0785599   4.7742615  82.3371811
   8.6699867  58.2457390  37.1367226   8.7924042  59.1944885  37.1032753
   9.2276764  57.9576111  37.8593521  70.8136902  51.1409721  83.2777710
  70.8416367  51.1619225  82.3212128  71.7140656  51.3217850  83.5477066
  76.6178207  10.9869890  11.3855410  75.9044113  10.4206018  11.0914545
  76.4192200  11.1645479  12.3049231  85.0890350  66.0371475  84.9728317
  84.1716156  66.0380402  84.6997452  85.0598679  66.2250748  85.9109497
  57.9673004  47.0371132  16.9710503  57.9495354  46.2892990  17.5682888
  58.8182297  47.4471855  17.1259556  78.0793839   2.6211846   5.3032036
  78.1864777   3.4499474   5.7700167  77.5544891   2.8452272   4.5347490
   5.2218823  18.3802433  86.8113403   5.5674210  18.6211624  85.9518127
   5.8175964  18.7965870  87.4342499  81.2027435  69.9833755   2.9060278
  80.5921936  70.5943146   3.3185863  81.7380142  69.6551666   3.6285193
  19.4539261  14.0769835   2.5787008  20.2135773  13.8173437   3.0999942
  18.9557133  13.2680330   2.4620130  41.5340500  32.2145195  12.3632898
  42.4010582  32.3006439  12.7596598  41.1501274  33.0884361  12.4347830
  60.1038055  24.1772118  51.4165916  60.0707474  23.4803085  50.7612572
  59.3982468  24.7740917  51.1672783  57.8079758  37.5183754  10.3831110
  57.4830933  37.4526901  11.2810907  58.2263184  38.3783379  10.3420601
  56.3929939  19.2138367  69.0136032  56.8444595  18.6996956  69.6829834
  56.0757027  19.9875393  69.4793701  74.0034485  47.1073418  88.8853073
  74.4443741  47.7668610  88.3497238  73.1072540  47.0863495  88.5497055
  50.8021736  -0.0246128  46.3873634  50.2811127   0.6389597  46.8394661
  50.1651268  -0.5188861  45.8715172  49.3860474  63.5317421  42.1547318
  49.3708611  62.7457771  42.7008629  49.1353874  64.2402191  42.7475739
  85.6536636  40.6597633  53.9614906  85.9655304  40.9547501  53.1059456
  85.6757278  41.4451065  54.5082817   9.1266108  50.1033897  10.4856529
   8.3457966  50.4056206  10.0217381   9.4248333  49.3448563   9.9837341
  45.9537201  56.3996162  71.7262726  45.0736809  56.7032509  71.5036392
  46.2582474  55.9494400  70.9383392  53.7190094  71.0847397  37.9636459
  53.3124657  71.1759949  38.8254051  54.0177879  71.9674530  37.7450867
  52.5779152  52.1234055  70.0022736  53.1703987  52.8017273  69.6781235
  53.0856133  51.6604462  70.6687164  26.4034824  33.1280441  15.5026560
  26.9106827  32.5743942  16.0963326  26.6778564  32.8548164  14.6272717
  13.2416782  53.3780823  21.1521950  14.1889429  53.3448868  21.0187035
  13.1053839  54.1421051  21.7124825  51.8288460  71.0914536  40.0730553
  50.9704170  71.5003510  39.9629211  51.6339493  70.1778336  40.2817345
  74.9179382  39.6693878  87.0073013  75.4483566  40.1195564  86.3498535
  74.0607376  39.5664635  86.5939560  32.7180405  52.2976570  20.5841961
  33.3782845  51.8276482  20.0748863  33.0316467  53.2017517  20.6065483
  59.3158226  33.7541046  44.7774696  59.1620331  32.9222107  45.2252769
  58.7232208  33.7347374  44.0260162  31.5467224   0.5794733  80.6420822
  31.7620068   1.4733983  80.3760300  32.2924805   0.3017130  81.1739883
  59.1819839  26.3257828  47.2117195  58.9690552  25.4898148  46.7969322
  58.4422684  26.8944626  46.9980431  56.8656273  24.8539352  64.3724976
  57.7351608  25.2405739  64.2692795  57.0193787  24.0458794  64.8620300
  36.7414742  27.5351925  80.0171661  37.1328430  28.1943016  79.4439011
  37.4722061  27.2117805  80.5441132  85.8038177  16.1897736  55.6099892
  84.9051056  15.9725266  55.8577003  86.0791779  15.4653578  55.0481796
  29.3622227  58.8628349  74.8459473  29.8057899  59.7086868  74.7825699
  28.7653942  58.9603691  75.5879135  51.6809692  33.7101135  69.3465118
  51.2381973  34.4124756  69.8228226  51.8343048  34.0721970  68.4738083
  13.6524134  46.7276039  31.0241089  13.5275993  46.3751640  30.1429501
  12.9196949  46.3750000  31.5291100  56.8092537  14.0985699  27.5221062
  57.4949379  14.6928844  27.8268375  56.0328598  14.3528194  28.0209026
  37.0083199   7.5535841   8.1523781  36.6625061   7.5131073   9.0440092
  37.5689735   8.3293924   8.1479187  69.9505539  62.1704330  58.9119873
  70.5896683  61.6068268  58.4759636  69.1570053  61.6376266  58.9633255
  51.6589432  28.9856586  75.7924500  51.0870476  28.3694267  75.3348160
  51.1661606  29.8061810  75.8043518  71.0933456   1.0357322   8.7172775
  70.8131485   0.4371497   8.0248728  70.6143646   1.8457199   8.5419788
   2.5374272  10.9772472  37.1368599   1.6539954  10.7393303  36.8554802
   2.5521731  11.9334946  37.0967941   9.6204548  69.7930679  68.6573868
   8.9590998  70.4545593  68.4542313  10.2409859  69.8435974  67.9303284
   3.1427274  10.9506445  54.3347054   3.3108525  10.4871550  53.5142517
   3.3967078  10.3293648  55.0171547  65.6243210  43.4721298   3.1913042
  65.1816711  44.1022339   3.7598691  66.1628952  44.0101891   2.6110766
  59.2777214  51.7250938  59.4461441  59.8236046  51.6676979  60.2303314
  59.4057159  50.8862076  59.0032921  13.9233198  42.3273849  78.0257797
  13.2687769  42.1823235  77.3425827  14.5698442  41.6349068  77.8889771
  57.4853592  56.6532707  28.9664116  58.3439560  56.3720436  29.2825661
  57.4283104  57.5754623  29.2164974  54.8302841  70.6693497  49.4929466
  54.7502213  69.8301392  49.0395737  55.7552834  70.9003220  49.4077339
  36.7639465  50.6109581   9.6275120  37.1986694  49.7902794   9.8593206
  37.3084145  51.2908401  10.0244322  48.5646782  68.6766586  12.1041660
  49.1222038  68.4500504  11.3598242  47.6790123  68.6995850  11.7418098
  78.9949112  68.0839844  19.7388039  79.2201767  68.6815796  19.0258064
  79.6819077  68.2199097  20.3913288  53.0195427  50.7046661  72.6353607
  52.3663750  51.1402435  73.1829681  52.5058937  50.1782684  72.0227432
  41.2789650  48.9039726   4.5375624  40.7183533  49.2165985   5.2476406
  42.1695862  49.0043945   4.8736329  12.5452490   9.3806534  34.2896080
  13.3696880   9.0348711  34.6316109  12.2309904   8.7027121  33.6913872
  29.8942108  65.2023163  14.5103836  29.6295986  64.2846985  14.4456568
  29.3191643  65.6611786  13.8980112  66.1407089  69.3910370  77.8081894
  65.7975006  69.1611023  78.6716537  67.0808716  69.2227631  77.8715591
  68.6506805  17.0172863  45.6613426  68.9596405  17.7911797  45.1903191
  68.7352600  16.3029289  45.0298615  50.3065948   8.8891916  24.3276997
  49.3524513   8.8210516  24.3623810  50.5086479   9.6794329  24.8286247
  33.1881447  44.9749908  65.6760712  33.4228058  44.8925858  66.6003952
  33.2067871  44.0776863  65.3433075  31.2868824  13.1522427  75.8593750
  31.0721302  12.8162212  76.7295456  31.0199699  14.0711222  75.8848648
  47.6905403   7.8002582   9.8173037  46.9806442   7.5714207  10.4172287
  48.3418884   8.2315741  10.3704252  78.8722153  16.5179539  13.5628624
  78.7639160  16.0638180  14.3984842  78.1457825  17.1405506  13.5327215
  66.3712921  34.8611870  53.5852280  66.1305313  33.9384079  53.6673927
  66.2580490  35.2176361  54.4663353  17.7477703  21.0426102  65.8719711
  18.2322369  20.2356091  66.0459595  17.8252678  21.5477238  66.6813431
  64.9645767  61.0857353  47.9794960  64.4037933  60.6061058  47.3698120
  64.7767487  60.6972466  48.8339119  72.1113663  24.7924881  26.5354576
  71.4954224  25.4493713  26.8600388  72.9708252  25.1158524  26.8056545
  84.3181458  22.8932781  30.8652000  84.5539703  23.6511955  31.4001579
  84.8261337  22.1714058  31.2354393  32.6870842  59.6638412  68.7670898
  31.8613091  59.8666573  68.3275452  33.0439796  58.9234314  68.2765274
  23.4489670  68.2939453  38.7862244  23.4771042  67.3814392  38.4985199
  24.2723694  68.4220810  39.2571983  77.2475739  63.0523071  19.5164108
  77.6068954  62.8133659  18.6619968  77.5517807  63.9481049  19.6621552
   7.5469475  69.4554672  53.5114708   6.9941845  69.4777832  54.2926140
   7.2463350  70.1955795  52.9841156  66.2903671  45.7542763  14.3526125
  65.3504181  45.8411865  14.5113010  66.5059509  46.4913177  13.7811899
  67.1788559  51.2067146  28.3324547  67.8312378  50.8723526  28.9479504
  66.9225998  52.0556717  28.6927795  57.9928131  49.4849777  52.4388962
  58.8833771  49.1610832  52.5738831  57.5178299  48.7363968  52.0779915
  71.1505203  71.1617432  24.6503506  70.3061752  71.1503143  24.1995907
  71.7518005  70.7297974  24.0436249  42.8702965  60.6524849  67.1376190
  43.7068520  60.9492760  66.7793961  43.0642319  59.7977142  67.5223160
  83.0536118  40.4143143  38.8249817  82.4834137  39.6767921  38.6077995
  83.6737442  40.0583344  39.4613304  30.3328552   8.3841410  13.8415194
  31.0199432   7.7961960  14.1553097  29.9343567   8.7337437  14.6385193
  55.2892418  31.6493759  57.2014771  55.7744522  31.9809341  56.4459190
  55.9207497  31.1048622  57.6715126  20.2860546  67.2117844  26.2763176
  19.6304913  66.9768143  25.6196117  20.9705353  67.6617889  25.7811279
  29.6877861  71.6369934  50.4120293  30.5521507  71.5034027  50.8009491
  29.4604759  70.7867432  50.0356827  17.6681595   9.0592756  16.3573704
  18.4116745   8.8027878  16.9029274  17.7654152   8.5388498  15.5599194
  32.1590004  42.3567734  86.1302338  32.5278244  43.2103920  85.9032211
  32.3538818  41.8029442  85.3742371  62.0974464  65.3330154  70.6021805
  62.3971443  64.7270584  69.9245224  61.1429253  65.2653656  70.5788498
  45.0066833  52.3307953  46.5765266  44.7738571  51.5903931  46.0163231
  45.8052177  52.6852341  46.1854439  68.5132599  28.4892387  78.5205078
  68.4461212  27.5983372  78.8640442  67.9366913  29.0067730  79.0826111
  45.5827446  27.6619034  86.4094543  45.6902847  27.1569004  85.6034546
  45.1090317  27.0747433  86.9985809  76.4812088  62.2999878  13.0163374
  76.0880356  63.0792885  13.4091978  76.5736389  62.5197678  12.0893059
  84.8399200  11.9539976  70.5920410  84.6741943  11.5009470  69.7652893
  84.9878464  11.2511921  71.2248230  28.5051804  38.6592712  71.4553452
  29.0073833  37.8707771  71.2496719  27.7770596  38.6483307  70.8340912
  39.9835091  59.1157494   9.2114086  40.3049927  58.6070976   9.9558220
  39.9890633  58.4988670   8.4795227  49.6855965   0.7513092  39.1263771
  49.3942795   0.3225996  38.3216591  50.1926231   1.5055453  38.8259087
  54.1358871   7.0789895  19.6482754  54.7388344   7.5664520  20.2095814
  54.6096382   6.9725466  18.8233738  78.4985962  39.2411804  64.3563309
  78.4235306  40.1946487  64.3176956  79.3415756  39.0504303  63.9449348
  51.7206917   2.2896404   5.1959672  51.1102295   2.0136652   4.5122938
  51.7811737   1.5351261   5.7818699  35.9769707  33.3046761  80.8130417
  36.2653732  33.1344452  81.7097473  35.0225983  33.3479004  80.8725204
  81.1900024  47.4985847  70.9259338  80.7121735  47.8294220  71.6864929
  81.9458389  48.0804710  70.8462372  76.9141541  15.7561922  44.8851776
  77.0076752  16.5811214  45.3615990  75.9685364  15.6347866  44.7998047
  29.6598568  16.2809658  19.0122623  29.1606083  15.6847610  18.4541225
  29.0388412  16.5529480  19.6879807  72.0654068  48.9262581   3.7090349
  71.4520798  48.8007126   2.9849508  72.4206924  48.0532761   3.8760812
  72.9199524  62.2404747  24.0862675  73.8071518  62.3035240  23.7325211
  72.3511963  62.4485474  23.3450146  25.4845791  15.4983387  72.0513763
  26.1042500  15.2034082  72.7186508  25.0280132  14.7020655  71.7798386
  46.9676552  22.8674850  86.5661850  46.9507713  22.9820709  85.6160202
  47.8890038  22.7094479  86.7720337  11.7464571  42.3853073  53.6014175
  12.2942753  43.0583038  53.1974297  11.1500731  42.8717575  54.1705627
  76.6063690  69.1988754  23.5258274  76.7161865  69.4230957  22.6017628
  75.9518433  68.5004272  23.5266647  82.0733643  56.6374321  62.4382095
  82.7644882  56.3764000  63.0468521  82.4738998  56.5576591  61.5725098
  24.2364922  62.2284546  59.6905403  24.6432171  62.2897758  58.8262253
  24.8374825  62.6946297  60.2716789  45.4732933  33.0550957  86.4238663
  46.1310654  32.4767303  86.8099518  45.8931732  33.9150352  86.4029236
   0.6696041  70.5622635  74.6411743  -0.2091724  70.1831512  74.6572189
   0.6444356  71.2533493  75.3029785  74.9628677  52.1754570  26.5264683
  75.2602463  52.3469582  25.6329441  74.4665070  51.3596077  26.4612598
  57.8562012  40.9542885  64.8624954  58.0749474  41.7621155  64.3979568
  57.5548592  40.3579407  64.1770782  84.7812653  19.3377438  25.6361160
  84.1253128  20.0204163  25.4949589  84.9494019  18.9829674  24.7631359
  81.3570862  69.9987869  64.8448257  81.6145248  70.3118744  65.7119675
  81.1218109  69.0810928  64.9816284  84.7746506  63.9743958  43.9403191
  85.5635681  63.5996742  43.5486183  84.0946655  63.3194160  43.7826653
  56.8699036  65.3134842  33.9470444  56.6072731  65.6951828  34.7846413
  56.2591171  65.6869049  33.3116493  20.9567947  49.0187721  16.4635143
  21.5477333  48.2957535  16.2531166  20.0837040  48.6267090  16.4482327
  70.4083405  55.6995964  80.7434082  71.2698822  55.6655083  81.1591187
  70.5385971  55.2895584  79.8883438  85.7817993   8.4008265  67.0733719
  86.0905075   8.8589430  66.2916718  85.6370544   7.5006342  66.7819366
  79.1297607  61.9815063  38.9858170  78.6136551  61.1918716  38.8235054
  79.5922089  61.8013458  39.8043022  57.6046028  62.4586258  72.5452728
  58.4801025  62.8429947  72.5006104  57.6419449  61.7082024  71.9522324
  38.6796494  44.3264999   9.2202816  37.8743095  44.5792999   9.6716661
  38.3824921  43.9600716   8.3874197  79.8565521  48.3497467  16.2158699
  79.2506256  48.2382507  15.4833040  79.3456268  48.8106422  16.8812771
  84.8418808  60.4718475  26.4289513  84.3475418  60.9967690  25.7994099
  84.1922379  59.8819923  26.8114090  11.5451288  71.6205521  46.2117996
  11.1686306  71.4560699  45.3472633  12.4913845  71.5910492  46.0705109
  81.6367493  63.1391182  77.6811523  82.5518570  63.1332321  77.4004822
  81.1439743  62.8993835  76.8963318  25.8999825  59.8847961  56.3296852
  26.0466805  60.0861740  55.4054794  26.5202389  59.1818504  56.5230293
  61.5451431  25.9571686  61.8006172  60.7738609  26.3506317  62.2087135
  62.0844345  26.7033405  61.5386543   8.9308681  59.7167358  71.0617218
   8.6374998  59.1438560  70.3532181   8.1719837  60.2674179  71.2542648
   5.8129597   9.3388538   1.6851579   5.9199505   8.5154743   2.1614251
   6.6722879   9.5047264   1.2975073  74.4691010  34.0077019  81.3574066
  75.3889999  33.7523232  81.2881927  74.2486649  34.3465500  80.4897537
  13.4706259  41.5457954  72.4210510  13.0059681  40.7226028  72.5716629
  14.2428026  41.4914474  72.9841003  72.8589172  23.2010975  36.7988358
  72.4035797  22.4257584  37.1270828  72.1726761  23.7246189  36.3850403
  25.6377735  28.9012928   6.3334036  24.9862785  28.4568291   5.7909684
  25.2945061  28.8329716   7.2243199  28.7534885  12.4210701  28.4634857
  29.5743027  12.2775307  27.9924335  28.1577549  11.7583189  28.1140671
  67.0419846  38.5116806  49.3826752  67.3396912  37.6048393  49.4550438
  67.0145111  38.6803093  48.4408455  56.3753128  37.3541679  12.8651590
  55.4610138  37.4748039  12.6087637  56.3370667  37.1496239  13.7994671
  78.0826111  71.3456268  48.7467537  78.2954254  72.1975174  49.1278267
  78.9235611  70.8920135  48.6895370  41.6793518  58.7974892  71.0633545
  41.7877579  58.6439209  72.0019150  40.8144760  59.2000542  70.9848557
  44.3243294   1.5093604  65.6843948  43.4314919   1.5560132  65.3424911
  44.6101112   2.4216020  65.7331238  75.2893066  15.7941837  77.5387115
  75.9062271  16.5006199  77.3474197  74.7311249  16.1450157  78.2326736
  60.2205009  66.7682953  76.2072830  59.9070168  66.4629974  75.3559570
  59.8686600  67.6547928  76.2882309  62.9748726  42.9287643  58.9701157
  63.6124840  42.7381706  58.2821045  62.4862671  42.1125832  59.0766220
  50.1936569   4.9001579  24.7271557  49.5821762   4.2867494  25.1346550
  49.6613655   5.3860497  24.0972290  16.4110241  44.1767616  73.2318649
  16.0137653  45.0404587  73.3433990  15.8369522  43.5845490  73.7176208
  64.7374573  36.6140289  63.9335022  64.7492065  36.7715645  64.8775787
  64.0708771  35.9379539  63.8117714  52.7351723  53.8692093  26.7123070
  51.8035011  53.7381668  26.5360928  52.9138069  54.7587738  26.4073524
   8.9944458  37.9702225  24.4138603   9.2394190  37.4112434  23.6764603
   9.5842762  37.7069588  25.1202774  41.4942780  24.5381126  15.0106421
  41.1350899  24.2225704  15.8398876  40.8340225  25.1471500  14.6799326
  79.8850479  48.1860085  48.6354790  79.5528717  49.0761108  48.7521248
  79.7009048  47.9798126  47.7190704  83.5771332  17.7408733  80.1419296
  83.3127594  18.6395226  80.3388290  84.1825256  17.5095100  80.8463440
  42.4369507  62.6476898  49.2640228  41.7299538  63.1609688  48.8729591
  43.1763535  62.7650719  48.6675911  52.9893837  32.3214493  31.1417713
  52.0906982  32.0066299  31.2391815  53.4156075  31.6631584  30.5929413
   5.0655947  11.0007992  84.2470245   5.9988594  11.1887379  84.3466568
   4.6349125  11.8434925  84.3905945  25.5405865  52.8205070  72.9225540
  25.4477921  52.1319618  72.2641296  25.1933289  53.6054420  72.4988556
  56.7683487  11.0198746  48.0962257  56.8038788  11.5678034  48.8802834
  56.9777184  11.6163673  47.3774834  11.3808346   6.1439877   7.1125522
  10.8296204   6.8860917   6.8642054  12.0499210   6.1033645   6.4292483
  70.2894821  67.7746429  22.8690109  70.9004517  67.8939133  22.1418724
  70.1566925  66.8279419  22.9174423   7.1143289  29.9320927  78.0479813
   6.4942575  29.6920605  77.3594131   7.3733015  30.8286858  77.8351746
  24.4312115  54.8755913  20.6439934  24.2132587  55.7314949  21.0129890
  24.8353767  55.0747414  19.7994709  86.1246262  18.5827751  58.1035080
  86.9877090  18.5770645  58.5173721  85.8690948  17.6609306  58.0697289
  40.3586388  10.5286417  11.8785210  41.2656937  10.8251715  11.8040037
  40.0065308  11.0192003  12.6212206  81.5066452  39.3443146   2.6593237
  81.4188614  40.0466843   2.0149636  81.3220978  38.5439339   2.1678250
  72.2401810   1.5356156  78.4498901  72.5009232   1.3885561  77.5407028
  72.5715103   2.4097447  78.6556778  15.6236515  35.8758888   3.1718051
  15.6563911  35.1212006   2.5839236  15.5597973  36.6317101   2.5879476
  12.2114229  55.3810539  55.2610474  11.3000727  55.6734619  55.2480316
  12.6254349  55.9174576  55.9371376   4.6766872  55.7487984  61.0901680
   4.2424173  54.9182587  61.2847137   5.6074533  55.5289192  61.0507050
  44.5824776  19.6041622  24.6457062  44.1514740  20.3889179  24.3071423
  44.0542526  18.8784561  24.3131981  47.8549080  19.2896404  85.4801788
  47.3566322  20.1038170  85.4089813  48.2181129  19.1538067  84.6050415
   6.4823546  28.7109165  85.2726212   6.4603720  29.3314800  86.0010757
   6.6882534  29.2473946  84.5070953  25.2690392  32.2692223  77.5910645
  25.2887440  32.2060738  78.5459747  25.5253639  33.1725883  77.4054260
  34.4400330   1.0972537  54.0147781  34.3513222   1.7404971  54.7180595
  35.2499771   1.3419282  53.5671654   0.9478104  49.3291283  48.9361534
   0.1106726  48.9444847  49.1959229   1.4587802  49.3593407  49.7449989
  42.4991646  47.0352325  25.8521576  42.3071213  46.1511307  25.5395660
  42.1465378  47.0565987  26.7417831  35.8838120  22.0346909  16.2789841
  35.4189873  22.2722588  17.0813141  35.2092857  22.0433712  15.5998878
  51.4647102  36.0152626  63.2734604  51.6418571  35.3930511  63.9789429
  50.5943451  36.3607635  63.4717560  62.6532135  43.4734116  27.4624062
  61.9419174  43.1035767  26.9394207  62.2213707  43.8193550  28.2434731
  24.6382065  37.7376480  76.9841080  24.3443832  38.3510246  77.6576614
  25.4008179  38.1615105  76.5904160  76.3752518  67.9818115  55.5780945
  76.4075089  68.9279022  55.4363174  75.7429199  67.8673477  56.2875175
   5.7155790  42.4967384   8.2386713   6.4115858  42.4699516   7.5820975
   5.5329294  43.4289703   8.3561983  11.5284901   3.7220492  25.8435364
  11.5872345   4.3804703  25.1512489  11.3224640   4.2224150  26.6331062
  84.4284515  39.2707596  67.9530487  84.1892090  38.6426010  67.2715683
  84.4430771  38.7552948  68.7594681  86.9510269  14.2912912  45.9337349
  86.0901947  13.9151773  46.1173935  86.7734680  15.0122728  45.3296738
  67.2932053   0.0373799  31.6253033  67.9120102   0.3303068  32.2942619
  67.8442154  -0.3253247  30.9317150  22.7357559  10.3416634  28.3059597
  21.9012451  10.0483847  28.6717606  22.9084511  11.1760235  28.7421398
  80.1228180  58.6516113  24.3596039  79.2526398  58.9312820  24.6438541
  80.7149124  58.9930038  25.0297604  37.8783340  63.2174110  63.6430893
  38.5713921  62.5740776  63.4946938  37.5985756  63.0642204  64.5455856
  58.2242050   6.9291625  71.7376633  58.7128258   6.6171112  72.4993057
  58.5411720   6.3905492  71.0126343  85.5733261  43.1880302  46.9103317
  86.0483627  42.6795654  47.5676270  84.7516479  42.7126236  46.7876091
  48.7112350  60.8536949  78.4254074  48.1517868  61.2923470  77.7844467
  49.1727486  60.1833687  77.9215164  38.2186279  40.1728287  75.0066605
  37.7192383  39.9464417  74.2220688  37.7292786  40.8941574  75.4021988
  37.6690826  56.3053169  29.0528927  37.2203979  56.7983322  29.7398052
  38.5787315  56.5991058  29.1024532  51.3878593  60.6564674  85.1998978
  50.7866669  60.8914146  84.4930725  52.2509804  60.9134712  84.8755417
  70.0366135  19.9216537  10.3478231  69.0914230  19.9719296  10.4903812
  70.2719955  19.0327835  10.6137791  11.4894629  12.9504108  48.5536880
  11.8124514  12.0677147  48.3726959  12.0000162  13.5157928  47.9741096
  50.7091484  33.0626907  25.7166271  51.1969414  33.1641655  26.5339355
  50.0062790  33.7098160  25.7752686  84.9907761  34.4152145   1.2407632
  85.5062714  34.3243217   2.0421588  84.6875916  35.3230515   1.2526716
  19.6404285  69.8907623  18.3737392  19.0184326  70.3264236  17.7910271
  19.3808498  70.1687927  19.2521191  79.9383926  42.3289108  31.4924431
  79.4329453  41.5271988  31.6266518  79.9707260  42.7391624  32.3566628
  16.3896122  26.1674690  70.7397766  15.4687347  26.4284859  70.7490768
  16.4889622  25.6685104  69.9289780  26.7672977  19.8969498  27.5388870
  26.5135975  19.1251011  27.0328045  26.6052570  19.6502151  28.4494343
  51.5703697  46.9403954  53.9946480  52.1095047  47.3054123  53.2929878
  51.4845734  47.6540756  54.6267319  38.4070587   2.7419827  12.7528801
  39.1436729   3.2348475  12.3913279  37.7763252   3.4122977  13.0157118
  51.0466461  49.1662178  75.6713562  50.4616203  48.5269279  75.2648010
  51.5779953  48.6520157  76.2792206  40.3602982  59.2139778  68.2941895
  40.9950790  59.6096573  67.6969223  40.0447350  58.4390526  67.8292770
  42.2040482  70.6893616  52.8367004  42.7061195  70.6018829  52.0264511
  42.6344872  71.4017258  53.3094559   9.8191404  63.7391090  61.2775574
   9.2301750  64.3718338  61.6886711   9.3269320  63.4061890  60.5271416
  15.5719767   3.3779094  78.1223831  14.7503204   3.7619970  78.4283066
  16.1980038   4.1016335  78.1457443  79.2195816  67.3134232  29.5456982
  79.2548752  67.5871201  28.6291428  79.4934082  68.0875854  30.0375538
  64.5981064  47.4983406  59.9584160  63.9273949  46.8507614  59.7415848
  64.9978104  47.1688614  60.7633438  60.2222977  59.9810410  64.5640106
  60.0770874  59.0511475  64.7385025  60.8795891  59.9943924  63.8682938
  44.4008255  58.7383575  23.5757790  45.0343857  58.1431885  23.9765358
  44.8510246  59.0837173  22.8048840  19.0300007  49.3291321  10.8819075
  19.0632343  48.9193230  11.7463055  18.2802525  48.9187737  10.4509592
  41.6857109   7.8611183  88.5075607  40.7886238   8.1787815  88.4048157
  42.2334251   8.6091490  88.2694626  39.4958687  34.2703362   7.0857811
  38.9655495  33.5781784   6.6909246  39.0739594  35.0833549   6.8078895
   9.5776749  50.5664864  18.7929287  10.3286285  51.1123543  19.0260048
   9.9552774  49.7071762  18.6052074  10.5408688   6.3106918  83.9155502
  10.2266245   7.1703081  84.1958008   9.7485571   5.7788963  83.8402634
  83.7310715  66.7388687  30.4843636  84.0093460  67.5211563  30.0081081
  83.5299301  67.0538406  31.3655930   2.9488626  44.5198250   3.3948298
   2.5901308  43.6750031   3.6665251   2.4553010  44.7473717   2.6068885
  84.6953201  48.8758812  52.3200684  84.9858780  48.5048370  51.4869232
  85.3464737  49.5474052  52.5232697  56.2466354  20.5996437  32.4505577
  55.5168266  20.9891834  32.9320908  56.7094269  21.3468399  32.0714111
  44.6353416  59.2259178  82.2220078  45.3077087  59.0298958  82.8744888
  44.4877701  60.1679611  82.3057251  34.9996376  40.6757927  79.4200439
  34.4685287  40.0027618  79.8457031  34.6527710  40.7268410  78.5293655
  72.6242599  64.1107559   4.1857796  73.5139618  63.8901405   4.4614372
  72.6835175  64.2004700   3.2346375  65.2242889  18.0691738  23.2822723
  65.4103775  18.5033054  22.4497261  66.0332870  18.1598988  23.7857800
  10.0956717  37.8791504  70.9874420  10.5745211  37.0817223  70.7615204
   9.3004618  37.5668373  71.4191055  33.4054565  38.0789795  76.4083557
  32.7955856  38.0296478  77.1444626  33.4203796  37.1915970  76.0497971
   4.6063433  42.0186348  77.9573822   4.7824116  42.2136841  78.8778076
   4.8190041  42.8297386  77.4957352  79.9988861  26.2392673  23.0568466
  79.2659149  26.8548279  23.0650730  80.4097672  26.3446083  23.9149342
  10.2044783  22.4197102   8.2390480  10.0539989  21.7245502   7.5984707
  11.1516285  22.4170265   8.3773613  75.8782425  12.0929031   4.3498292
  75.5493851  12.6776962   5.0325437  75.1031647  11.6214609   4.0444927
   5.5932827  54.9200058  70.5174637   4.8273325  54.6717186  69.9998627
   5.4338350  54.5369949  71.3800812   6.6471133  48.5825882  25.1064491
   6.9262552  48.0204659  24.3837261   5.7411761  48.3236542  25.2751579
  36.6909599  70.7171631  77.3635483  36.1871452  69.9488068  77.6319199
  36.9264870  71.1480865  78.1851654  21.5240974  25.5433712   6.8270187
  20.9817410  24.7681217   6.6818652  22.3086586  25.2088699   7.2615347
  53.6822052  49.1415863  21.4555054  53.4845543  49.7605476  20.7526169
  53.8921700  48.3245583  21.0031624  58.5102921   9.7155895  24.2696533
  58.7802544  10.6327944  24.3153610  57.9001884   9.6088362  24.9994526
   1.4908128   1.5511640  19.1855869   2.1997833   2.1087933  19.5059662
   0.6909155   1.9963441  19.4652500  52.3834801  42.8390388   5.2117295
  52.3088188  43.2687035   4.3596482  53.0542564  42.1682777   5.0837784
   0.9387981  41.7493629  40.1760406   0.2934574  41.8484802  40.8759995
   1.3244462  42.6202393  40.0807419  76.7780991  49.7418900  22.4260197
  76.9560623  49.8540230  23.3598232  76.0533066  50.3408508  22.2467098
  58.7321625  31.0278740  31.4647675  59.0216064  31.7948456  30.9705925
  57.8351479  31.2358971  31.7261581  67.5339279  63.0438347  69.5348129
  66.8838120  62.4674530  69.9365234  67.9182739  62.5188026  68.8327866
  68.0276031  24.7599640  31.8628197  68.9772644  24.7837811  31.7453690
  67.8973312  24.2403393  32.6560745  48.1629715  27.1412029  59.8899918
  48.3666115  27.0584221  58.9583740  48.0511856  26.2397175  60.1917496
  32.0605278   0.3463201  39.0890236  31.1500854   0.5314188  39.3193779
  32.5124016   0.2831801  39.9304848   9.5821810  57.4721298  30.2984715
   8.6870270  57.1335831  30.2806549  10.1294250  56.7129173  30.0975952
  29.8197041  33.0447693   0.3660649  29.7805748  33.9240265  -0.0102459
  29.2548332  33.0890732   1.1375494  60.4582748   2.1125879  80.8288956
  60.0756912   2.8316264  80.3260574  59.7135849   1.7098480  81.2755203
  70.5221405  18.9317570  51.6474075  70.4854889  19.0396137  50.6970100
  70.5591736  19.8253117  51.9886131  64.1595612  29.9284115  80.6168289
  64.4205856  30.8034000  80.3296127  63.6741829  30.0775394  81.4282455
  36.8926277  53.4128647  23.0968800  37.5029373  53.9548836  22.5969105
  37.4048958  53.1013603  23.8430557  69.4659882  14.7475929  14.6043568
  68.7545319  14.5877419  13.9842710  69.3743439  14.0543051  15.2579508
  42.9208183  61.9638023  17.0986786  43.3162460  62.6728439  17.6057568
  43.5210457  61.2264595  17.2095089   2.5495570  21.8695049  42.9678574
   1.9253345  22.5595322  42.7432671   2.7344975  21.4337711  42.1358910
  16.8999271  11.9194469  85.2878342  17.3297234  12.2119226  84.4841156
  17.5355225  12.1027565  85.9796829   2.4121158  14.5771761  18.6367798
   2.7082431  13.8217163  18.1290188   2.2140815  15.2445755  17.9798241
  49.8725777  63.3819733  80.6253204  50.5041046  62.6970100  80.8449249
  49.4446487  63.0668831  79.8291855  78.9326630  68.2100525  33.3835564
  78.7622147  68.8746567  32.7161140  79.8801651  68.2409744  33.5158730
  86.2629395   1.0782915  71.3238373  85.6017609   1.0880603  72.0159149
  87.0035553   0.6080935  71.7067566  53.9770966  16.9293480  59.1865273
  53.4812317  17.3845787  59.8670502  54.3501625  17.6305923  58.6523819
  38.3884354   5.6853266  43.4518242  37.4996262   5.8992786  43.7354965
  38.9134750   5.7358613  44.2505798  12.8028669  21.6328506  26.7879353
  13.5652828  21.5721245  26.2123775  12.4234743  22.4898243  26.5932789
  11.5298786  29.9209900  36.9346619  10.7519245  29.3891563  37.1025085
  11.2639809  30.5211487  36.2379990  78.8878708  63.5537872  68.4218216
  79.7610092  63.9421349  68.4770279  79.0195465  62.7354393  67.9430695
   1.7566487  60.1767845   7.3444176   1.6390536  59.4116554   7.9074306
   1.2055107  60.8521271   7.7398810  65.8374176   9.1943541  68.8242874
  66.2009735   9.1825876  69.7096786  64.9547501   8.8374510  68.9230499
  81.9553604   2.4473364  79.2768097  82.2629623   3.1371169  78.6887436
  81.5137939   2.9157956  79.9851837  81.8565140  30.0208206   6.0015841
  81.8839722  30.8888683   6.4040380  81.5357895  29.4450302   6.6957269
  43.4715958  61.9563560  54.0922813  42.5830879  62.1317291  53.7823944
  43.3498726  61.5407867  54.9459305  76.3726883  58.5550499  62.2810898
  77.0613403  59.1632729  62.5495338  75.7092438  59.1101532  61.8712997
  45.4356041   0.5033154  56.5221977  45.6779099  -0.2075267  57.1156807
  45.3219185   1.2634351  57.0927429  84.4602051   3.5740864  47.8052254
  85.1339645   3.7995629  47.1637840  83.6930695   3.3504369  47.2782402
  12.0359926   7.4240956  85.8245850  12.9900846   7.4080071  85.8999634
  11.8331671   6.7263651  85.2014771  63.0077705  10.9940968  85.8351669
  63.5206184  11.2097406  86.6140823  63.4886093  10.2763987  85.4229355
  70.9073715  48.9618797   9.2723446  71.6623688  48.6568680   9.7755136
  71.2617493  49.6379776   8.6948137  70.1798096  67.5173645  57.2341919
  69.5432510  68.1399002  57.5855904  69.9785233  66.6931381  57.6773300
  11.1872349  45.2283897   6.4589429  11.7334156  45.4667511   7.2080097
  10.2894974  45.3286934   6.7755470  24.9143925  52.3644981  34.4335098
  24.8493328  53.0765076  35.0699348  24.2106018  52.5371819  33.8081360
  80.7609253  29.6400509  75.9363937  81.3055954  30.1034565  75.3001404
  80.4173965  28.8876381  75.4546280  38.6071014  43.2319679  75.2721024
  39.2121162  43.9736748  75.2644043  39.0092049  42.6010666  75.8691864
  27.2498322  58.2372932  48.0780907  27.6346321  58.9457474  47.5620918
  27.9122791  57.5464325  48.0678749  62.5911255  24.2279339  59.6537743
  62.2054672  24.7443829  60.3614349  61.8874779  23.6426620  59.3734665
  15.7578268  25.5157299  73.6258163  16.1629467  25.9744091  72.8898010
  16.2332134  25.8300705  74.3948593  55.0301323  40.8670731  44.5540009
  54.5086670  40.3185234  45.1400032  54.9783592  40.4275436  43.7052574
  20.8551025   2.9185002  30.0574932  20.9880009   3.8557394  29.9155350
  20.3473892   2.8685544  30.8674107  38.5192909  66.4146881  47.4942970
  38.8383751  67.3170395  47.5080605  37.6050568  66.4796982  47.7703171
  46.3784332  16.3215561  64.3156815  45.8856926  15.9477701  63.5851173
  47.0576096  15.6735716  64.5029449  20.6259193  43.3038826   6.7828298
  20.5197010  43.4427567   7.7239270  19.9863491  43.8914032   6.3803363
  55.4917145   3.2065833  62.3333664  55.3920364   4.1220245  62.5946388
  54.7984772   3.0646327  61.6887703  14.7191763   8.3278608  75.1813736
  15.2016068   8.7740049  75.8773956  14.8120222   8.9009171  74.4203110
  28.6760483  65.4002075  38.4582214  28.6139088  64.7631989  39.1699753
  27.7698936  65.5431595  38.1849442  65.2341232  68.6894836  58.5125542
  64.6312561  67.9508057  58.5970078  65.4560318  68.7123260  57.5817108
  57.4070396  48.5755997  33.0925484  57.3484650  49.3215637  33.6894875
  56.5388107  48.1739235  33.1252480  58.2671547  16.4476147  79.8241119
  57.4726868  16.7807331  80.2413406  58.9348068  16.4946289  80.5084076
  51.4042282  19.9804688  83.5532837  51.4205055  20.8046055  83.0667038
  50.4784660  19.7392349  83.5848999  40.3903656   6.4068546  76.7624283
  40.9403763   6.6908145  76.0323029  40.6940002   6.9260273  77.5070724
  11.7065248   7.2673635  32.9735527  10.7733345   7.3946266  32.8026924
  11.8679361   6.3505259  32.7508698  47.9107857  52.9361038  71.5191345
  47.7482033  53.4671211  72.2987595  48.8453217  52.7328148  71.5584183
  14.4789543  71.6999664  57.3818321  13.8370571  71.2431183  56.8382454
  15.3206825  71.3217773  57.1274757  77.7779617  53.9741402  75.6174545
  78.5551529  54.2708244  75.1439667  77.0825272  53.9734917  74.9597321
  50.1423759  24.7144508  22.0539570  49.7383423  25.3506184  21.4638023
  51.0835762  24.8356762  21.9287434  25.2095356  51.8665085  82.6278610
  25.5966473  52.3208847  83.3761368  25.6477833  52.2443085  81.8653412
  76.2896347  40.1411896  31.4875813  76.9515533  40.1728363  32.1782951
  76.6805038  39.5943108  30.8061333  23.3943138  30.6013527  17.0612926
  23.6141777  30.0705738  17.8269062  23.2922421  31.4884243  17.4061394
  31.5499210  67.1912308   0.0437569  30.8907337  67.2394562   0.7361282
  32.3770905  67.0660095   0.5088812  60.1375847  12.0108452   1.7100941
  61.0715256  11.8358736   1.8257220  60.0160637  12.8972740   2.0502541
  85.7649307  19.1431389  45.4328995  85.5288467  18.2201176  45.3405609
  86.5413971  19.2479248  44.8830299  53.0588531  50.1513748  38.6401939
  52.2499008  50.4635124  39.0456543  53.5811501  49.8210068  39.3711472
   2.8276374   9.0926514   0.6705676   3.5666192   9.6344471   0.3938079
   2.0643895   9.5026903   0.2636860  63.3341103  15.2230806  60.7840195
  62.6617393  14.6773767  61.1918907  63.8661613  14.6092300  60.2777176
  80.1202393  15.8952351  80.4848480  80.3043365  15.5856771  79.5979919
  79.5725479  15.2104521  80.8686905   6.4542227  39.2635269  18.4746628
   5.8010583  39.9116783  18.7383041   6.3992720  38.5819702  19.1445103
  17.4216919  66.0370941  52.2037849  16.9648170  65.9037476  53.0342751
  18.2926502  65.6669235  52.3474274  46.6659393  50.9071999  64.7541656
  45.9675140  51.0172882  65.3993912  47.3091621  50.3484802  65.1904297
  70.7276230  68.0055695  60.4808769  70.3795853  67.7881775  59.6160965
  70.6269989  68.9551163  60.5477791  63.1884613  66.2973862  61.3456383
  62.3073692  65.9556580  61.1935463  63.5866089  66.3288803  60.4757423
  25.5498676  41.6060181  19.0165462  25.3171062  40.8878212  19.6049709
  25.0489807  42.3540535  19.3418045  78.3530426  62.9124565  26.6305046
  78.7512054  63.4929657  27.2791252  78.4013519  63.4019165  25.8093300
  45.0601120  49.4876175  62.6076469  45.8325424  49.8666840  63.0270424
  44.6117554  50.2347717  62.2114601  65.1005325   7.5982914  72.3182068
  65.8229065   8.2001400  72.1388092  65.2409973   7.3183956  73.2227325
  28.6808624  21.1341858  81.9258957  28.7215977  20.8891182  81.0014954
  28.5255814  20.3091850  82.3857803  52.3008499  36.8281288  77.3393402
  51.7999039  37.6277161  77.5004044  52.4796181  36.8428078  76.3990936
  65.6454391  28.1429768   7.7345538  66.1014099  27.9604511   6.9129672
  64.7178421  28.1448860   7.4983654  83.9565506  11.2234488  87.0207443
  83.5587845  11.1982107  87.8910217  84.0822525  10.3035030  86.7880859
  50.7751465  71.1153641   8.9064732  50.2522545  71.8675613   8.6289511
  50.8708267  71.2260971   9.8524199  40.2228012  26.5438576   5.5397959
  40.9461784  26.0987015   5.9811463  40.5721741  27.4070721   5.3183713
   0.2592334  47.5719223  30.3729019   0.4674228  48.0620232  31.1683197
  -0.6959299  47.5095139  30.3731308  54.2459831   3.2020226  69.5787125
  54.5714684   4.0966139  69.4787292  53.9731331   2.9465346  68.6975174
  66.2638245  71.5975876  74.4926453  65.4780045  71.8740158  74.0211487
  66.0426788  70.7339325  74.8411102   5.3819852  28.7374725  68.5898056
   5.1001029  28.9705257  67.7052383   5.6877923  29.5615978  68.9686584
  19.9637852   8.8495884  18.0885773  20.5159054   9.4211874  17.5550346
  20.1995335   7.9637008  17.8131561  22.7277050  45.2651367  65.6846695
  22.4735184  44.3545952  65.5345459  22.7962894  45.3408623  66.6364059
  86.2099991  31.5448437  40.7384720  85.3585892  31.8807774  41.0186043
  86.8463593  32.0765953  41.2165070   3.5012012  69.5673370  12.6414127
   4.0193286  68.9453278  13.1521769   3.6321518  70.4068909  13.0821276
  12.6203470  67.4801712  38.4824104  13.1984634  67.1064835  39.1475182
  12.0525990  68.0789108  38.9676018  42.9261513  26.4375629  70.0023804
  42.0481300  26.5889168  70.3522491  43.5094337  26.8783474  70.6202164
  40.2142029   0.5909566  78.3744507  39.5035172   0.4490481  78.9997635
  41.0127563   0.4585247  78.8853378  55.7315407   5.7051759  63.9457626
  56.3970451   6.3926892  63.9200325  56.0114212   5.1273608  64.6557159
  48.0130081  65.8004608  36.9854889  47.1101608  65.4978714  36.8878326
  48.3504677  65.8400421  36.0906219  38.9902229  15.6550169  77.4292297
  39.7821198  16.0790386  77.7598953  39.2862167  15.1544523  76.6689301
  72.7343063  27.2083607   1.8530750  72.4803772  26.5839424   2.5326734
  72.2697754  26.9123993   1.0702276  10.5167980  58.6099091  59.3549232
  11.1688309  58.2517891  59.9572792  10.8435564  59.4835701  59.1400337
  42.3139458  25.0350952  11.6509504  41.6353035  25.5713291  12.0609856
  43.1370201  25.4055748  11.9695797  44.2012444  13.7628288  16.1219425
  43.3969345  13.3473272  16.4328747  44.4661179  14.3386412  16.8392372
   2.4377837  19.6486931  21.0941715   3.1761072  20.1772346  20.7912636
   1.7137793  20.2701397  21.1706715  44.0526962  65.5251617  60.8247910
  43.3372574  65.4499588  61.4562378  44.8378487  65.6247406  61.3631706
   9.5561886  48.4883194  31.9348125   9.9133730  48.9094849  31.1529732
   8.6720352  48.8458138  32.0166931  58.0773010  40.3908882  81.0452423
  58.8688812  39.9799080  80.6977844  57.7490273  40.9268227  80.3232727
  32.5339622  49.9717102  33.6900063  32.6241608  50.2154579  34.6112442
  33.2435875  50.4381065  33.2482605  62.7680588  70.5859070  40.1196327
  62.0966263  70.7111206  40.7902489  62.2984390  70.6770859  39.2905502
  67.2312012  38.9369354  36.7090263  67.2894745  38.7651405  35.7691765
  67.2498474  39.8913460  36.7796593  71.7393799   4.7739120  21.7556210
  71.7098541   5.2264471  20.9126663  72.3025513   4.0155697  21.6007576
  37.1575813   4.2898102  28.6171703  36.8807373   4.2055283  27.7047634
  37.8715706   4.9268827  28.5929527  37.1914444  46.6922913   4.2978268
  36.9097099  47.3576393   3.6699979  37.3360252  47.1762047   5.1109419
  29.2696037  45.2096786  68.7057190  29.9181690  45.8489799  69.0004883
  29.7824612  44.4316216  68.4870071  61.6955833  38.9942017  26.3122292
  62.5236359  38.7898598  26.7467442  61.0322418  38.8725204  26.9914989
  81.5513611  23.2068291  34.2309265  80.8141708  22.9641380  34.7911797
  81.1535873  23.3999748  33.3819847   8.3225994   6.8130150  35.3226509
   7.5562310   7.2289977  35.7174568   8.0237541   6.5321922  34.4577446
   5.9628921  48.7450829   9.6576176   5.6190367  48.6741753   8.7671299
   6.2951055  49.6409187   9.7154570  21.0022526   3.2872970  21.9689198
  21.3725815   2.4061663  21.9169846  21.3025608   3.7207854  21.1700859
  31.2789192  47.2431335  69.5906372  30.6305084  47.5598984  70.2194901
  31.8485813  47.9962654  69.4340897  45.1997948   4.7034593  72.0587006
  45.0143852   5.4200525  71.4517822  44.3839111   4.5841646  72.5448380
  70.3135376  14.4394035  78.7386932  70.9829941  14.1601629  79.3632584
  70.1855164  13.6805124  78.1695480  26.3319740  13.4303837  52.0537949
  25.6776848  12.8403683  52.4279861  27.1380882  13.2254667  52.5275269
  18.8978233  71.3742905  55.0659447  19.3413849  70.6247025  55.4629326
  19.2922459  71.4535446  54.1973915  14.9235601  54.7211533  25.2926178
  14.9121418  53.9432602  25.8502769  14.1093769  54.6689453  24.7920074
  80.4087601  38.3889580  27.0456657  79.8295975  38.5850601  27.7821102
  79.8257523  38.3440437  26.2878265  22.4930305  62.4010048  38.4208832
  22.6575909  62.0859070  37.5321388  21.5696049  62.2037773  38.5777855
   0.8337664  13.3684416  26.4734001   0.6328249  14.3014803  26.4006462
   1.7220460  13.3417606  26.8290386  63.3671837  43.5420609  34.2475433
  63.3065262  44.3213310  33.6950111  63.9749756  43.7893105  34.9444580
   3.3754091   3.7056453  71.9637451   2.9526751   4.3081036  71.3517227
   4.1936150   4.1414433  72.2021790  51.9464455  23.3736954  14.1109610
  52.5533028  23.4697189  14.8449459  52.4999466  23.4374790  13.3326311
  20.6931229  61.5007896  10.4784040  20.4152355  61.7165146   9.5881939
  20.0322189  61.9054108  11.0402975  33.6232338  12.5074368  86.0253448
  33.6424026  13.3625336  85.5956039  33.0813408  12.6421862  86.8027878
  31.3868275  64.4296799  47.2025757  32.0952263  64.2047806  46.5993996
  30.6006355  64.4369659  46.6566048   4.3996687  21.3631363  19.5249481
   4.3749537  22.3165169  19.4431782   5.2883992  21.1713791  19.8243122
  32.0237465  42.7694588   4.4088650  31.5188408  42.5977249   3.6139996
  31.4846058  42.4155922   5.1162114   0.7158328   4.1731091  52.9874382
  -0.1684815   4.5376101  53.0242996   1.2554791   4.8875952  52.6490250
  23.5084763   8.1987772  16.2899551  23.4560261   8.6910391  17.1091976
  24.4385147   7.9944439  16.1924343   7.3200912  51.0914917   8.7706223
   7.4843245  50.5222130   8.0188360   7.1839285  51.9587517   8.3891115
  15.2086134  35.3659973  75.8443146  15.7163019  34.6741905  76.2684402
  14.6395655  34.9028893  75.2295380  53.0148659  36.8445625  25.7103119
  52.3678894  36.9228096  26.4114037  52.4993973  36.8742638  24.9043083
  76.7119827  29.5120926  19.2028160  77.2319717  28.8528862  18.7431526
  77.0003357  29.4522552  20.1135864  13.5727634   5.1324682  18.7987022
  14.4260044   4.7089415  18.8927021  13.5370121   5.3977914  17.8797035
   1.7820380  42.3199120   3.8688810   1.9129102  41.3717155   3.8637147
   0.8922699  42.4370766   4.2017732  71.6742783   1.3351215  49.1099854
  71.9824982   2.2133749  49.3333740  71.6037903   1.3416215  48.1554070
  63.3088112  31.5992985  29.3627968  62.4580231  31.2374172  29.6106548
  63.3999939  32.3863297  29.8999195   3.5880075  -0.0927657  60.3172569
   3.2896259   0.7740304  60.5926933   4.5047498   0.0357047  60.0737190
  13.0448675  45.3763466   8.3978529  13.9954643  45.4873352   8.3811417
  12.8627415  45.0002785   9.2590361  31.4878998  32.1583557   4.3194284
  31.9616661  31.5686741   3.7328687  31.4836674  31.7051220   5.1625133
  83.3644638  22.0625725  28.4491425  83.0224075  21.1832275  28.6103287
  83.7921906  22.3073254  29.2697392  28.5629997  48.7350273  46.3264313
  28.4962120  48.9826164  45.4042206  27.6882095  48.8938751  46.6810303
  49.4817238   4.0198770  45.8866348  49.0619392   3.5417576  45.1715012
  49.4739304   4.9334359  45.6010094  35.8297882  14.7488623  42.8984756
  36.3516541  15.4291315  42.4728889  36.4582901  14.2648020  43.4341125
  17.5816383  65.0692825  63.2553520  17.9218655  64.1771240  63.1879959
  16.8835335  65.1093826  62.6016922  62.2778816  17.9222202  23.8746223
  62.3505478  17.0185184  24.1816597  63.1802444  18.1886692  23.6986179
  62.6873894  40.9506454  33.8923454  63.0556717  41.7666512  34.2310638
  62.2535019  41.2037354  33.0775337  49.1722527  25.4039898   8.6800861
  48.3581581  25.6004791   8.2165432  49.7995186  26.0444260   8.3445082
  41.1651993  11.7480850  66.8345871  40.8003464  12.4419107  66.2853012
  42.1005745  11.7486334  66.6313629  37.0056610  54.6561852  17.7778988
  37.0488243  55.6124115  17.7774315  37.4789734  54.3954506  18.5679760
  81.9057236  35.1106110  82.2018433  81.8518524  36.0530396  82.3604431
  81.7294540  34.7137108  83.0548553  59.5452423  47.4868050  29.8288784
  60.4791565  47.6763954  29.7388973  59.1939964  48.2360954  30.3099422
  59.4284821   6.3810220  12.3651896  59.0911293   6.2748661  11.4757204
  58.7636452   6.9045000  12.8126202  56.0329781  68.4183578  66.0238113
  55.4915695  68.7008972  65.2867355  55.5030479  68.6099930  66.7975616
  63.3663559  56.2603073  25.4062481  64.2040634  55.9782028  25.7735214
  63.1752052  55.6169014  24.7238102  65.9108047  58.2260056  35.4792938
  66.4427261  58.9004860  35.0569534  65.2354660  58.7138405  35.9506378
   6.5345554  71.4731293   9.9544525   6.3792787  71.2099380  10.8615627
   5.7183995  71.2624359   9.5008764  27.3515606   8.8258553  40.3388443
  27.8744583   9.3207006  39.7080193  26.5851612   9.3765163  40.4989586
  22.4623680  56.2581406  73.4553757  22.0080261  55.7192154  74.1029587
  22.3653240  57.1538467  73.7786789  67.3792801   3.9311152  83.8954620
  66.5542374   3.7697227  83.4377594  67.6683884   4.7851415  83.5740738
  39.4404907   5.2191463  31.3038521  38.8414993   5.9502568  31.1524773
  39.1577797   4.5458169  30.6850376  54.8573036  66.6814117  32.2174034
  54.1632500  66.8157806  32.8627434  54.7378502  67.3908157  31.5859680
  13.5047016  16.6948338  61.9995461  13.9759579  15.8774471  62.1608734
  12.5898266  16.4293728  61.9059219  40.7554092   2.2882495   4.5009255
  40.4502678   1.6655701   5.1607676  40.4760590   3.1424470   4.8303823
  73.4129715  46.8581085  11.8046112  73.9471817  46.1611557  12.1855431
  72.6792450  46.4003944  11.3942862   5.9631166  56.6809006  39.4311066
   6.6113725  56.1083984  39.0209389   6.0189815  56.4759369  40.3644333
  21.9256573   4.9040861  37.1921921  22.6553268   5.1285214  36.6147461
  21.2135887   4.6679940  36.5976753  80.4178543  35.2182808  49.3778915
  80.3507385  35.8528328  50.0913849  80.2424622  34.3731537  49.7916908
  25.3567810  61.3013153  14.1781235  25.1346703  61.4857178  15.0907536
  25.8732033  62.0576630  13.8997726  24.7013493  61.3389091  19.0692806
  24.3336868  62.2025681  19.2567501  25.0704575  61.0494690  19.9036770
  10.5655622  12.2072277  33.1891785  11.3997869  11.8454046  33.4881516
  10.2694273  12.7573242  33.9143867  44.1257744   2.8703983  61.4746857
  44.8539810   3.2219341  60.9624672  44.5396385   2.4893041  62.2490997
  61.8992577  12.3315945  71.4340134  62.7038498  12.8440695  71.5129700
  61.2501907  12.9538450  71.1057587  17.8993530  55.5106125  54.3298607
  18.0930691  55.2912521  55.2412262  17.9321060  54.6720276  53.8694992
   5.6483083  41.9326172  27.0357800   6.5710797  41.7257996  26.8876247
   5.3417830  42.2749939  26.1961060  13.2614708   5.0494161  12.9395342
  14.0892076   5.3667822  13.3005924  12.6039619   5.6574636  13.2774572
  76.1415024  21.3523903  29.8359470  75.9316025  22.2367229  30.1361618
  75.8129196  21.3201618  28.9374886  10.0380611  48.6068954  24.6287060
  10.7823706  48.7869873  25.2029896   9.3185205  49.1155472  25.0025558
  66.8324890  20.3734188  74.0531387  66.0619278  19.9843178  73.6395340
  67.0177765  21.1527119  73.5291061  70.1756973  24.8446903  75.9958038
  70.1882706  24.9023609  76.9511795  70.6352234  24.0283794  75.7990646
  13.9044847  14.0505114  19.2790012  13.0990248  14.5645390  19.2220612
  13.6054144  13.1448526  19.3600616   5.7395172  48.6298561  79.8888474
   6.6211491  48.4293633  79.5745850   5.8642335  48.8921394  80.8009262
  73.8385391  41.6978264   3.8163559  73.6842422  42.3381920   3.1218386
  74.0614014  40.8906288   3.3526814  46.4989548  37.8124542  80.6126251
  47.1659241  37.2079086  80.9380646  45.7074356  37.2791595  80.5396652
  71.0288239  13.2835073  86.9542160  70.8364258  12.9974794  86.0612411
  71.3599167  12.4987526  87.3909836  54.8891602  40.3162346  31.7350540
  54.8940163  41.1186600  31.2132053  55.7521286  39.9292908  31.5874233
  82.9660034  59.3614159  58.1059608  82.4595261  58.6687241  58.5300903
  83.3060608  58.9555130  57.3085632  51.5838852  10.7154875  84.5605011
  52.4417038  10.5869522  84.1557083  50.9747047  10.2575922  83.9813080
  11.1206665  61.0562210  48.3976364  11.1658983  61.6140022  49.1742134
  10.8246098  60.2082939  48.7286911  34.3434143  20.1302090  18.4708767
  33.5698662  19.7735195  18.9074879  33.9956551  20.7816658  17.8618622
  54.1267166  57.0639229  11.2624006  54.1578827  57.4594154  10.3912821
  53.8535957  56.1600418  11.1054420  59.9517326  45.3642426  25.7028275
  59.7180099  45.5959740  24.8039913  60.1667633  44.4324150  25.6617432
   2.6905670  27.7295666  85.3345490   2.2506967  28.5036850  84.9831467
   2.1270208  27.4386425  86.0514984  67.8047714  13.3282719  32.7461090
  66.9810028  13.6254330  33.1325417  67.8625259  12.4036703  32.9869576
  77.5724640  40.5042534   8.3499966  77.2317657  39.8713036   7.7179122
  78.3722534  40.1000175   8.6863976  10.5016432  38.6136055  84.6524353
  11.3537664  38.2020149  84.5085144  10.2983723  39.0407600  83.8202972
  75.2512665  53.3491249  36.3666573  75.3797531  54.0182953  37.0389175
  74.5317078  52.8118248  36.6979752  49.8194771  57.1680641  22.9113560
  50.7214127  57.3478851  22.6460152  49.3038788  57.3070374  22.1169529
  83.5396118   4.2775035  50.5068665  83.3390961   3.6739666  49.7914848
  84.4768143   4.4508576  50.4183998  35.3341789  52.7597771  76.9659348
  36.2042007  52.3985100  77.1355896  34.7631607  51.9935074  76.9111557
  19.5666275  69.4090118   1.0131836  18.6203194  69.3926392   1.1562381
  19.7988892  70.3367462   1.0531579  84.3688965  51.2863312  24.4557819
  84.3986969  52.1965103  24.7506027  83.4753952  51.1681099  24.1334343
  12.0572624  24.6590481  58.6321373  12.3189383  23.8178749  58.2577248
  11.9930639  25.2467175  57.8793068  26.2743435   5.6843762  24.1558323
  27.2024155   5.8390198  24.3319054  26.1154842   4.7950439  24.4721928
  44.7313156   8.8989229  32.1759682  44.7729492   8.1808290  31.5444317
  45.0475121   8.5166025  32.9945564  61.7884064  21.0508194  31.8004684
  61.5007973  20.2544041  32.2468262  61.0353241  21.3142262  31.2715816
  43.5020981   2.9129188  40.7833328  42.9297791   3.3235655  40.1352196
  43.2756844   3.3416560  41.6086540  38.6872673  48.8163185  24.4642963
  38.4905357  48.6847992  23.5368118  38.9239159  47.9459381  24.7847099
  76.1221619  26.0596275  78.1829529  75.8326187  25.2338676  78.5709152
  75.7387238  26.7347450  78.7427902   8.9961910  21.0660076  29.0433502
   9.4929304  20.5930595  29.7110329   8.4019461  20.4106312  28.6778545
  69.4643402  10.9355736  81.1894913  68.6967926  11.1105719  80.6449966
  69.7079926  11.7914352  81.5421524  76.2107315  26.1264839   9.7696705
  75.4623795  25.6465397   9.4149055  75.9839325  26.2798080  10.6868877
   2.0361185  59.0283852  38.0613480   1.4372482  59.1982994  38.7884750
   2.7087843  58.4579811  38.4333572   7.2546597  27.3530121  59.0388412
   8.0585651  27.0382519  59.4522324   7.0315514  26.6745529  58.4015427
  26.3371716  58.8685646  27.7269745  27.0349140  58.2837486  27.4313793
  26.6197128  59.1594276  28.5940380  59.1549492   4.2709522  41.9847336
  59.3238258   3.9248383  42.8610420  58.2649155   3.9835260  41.7811127
  79.5504456  65.2102890   3.4613993  80.2363815  65.2046585   4.1289992
  80.0239105  65.1588593   2.6310866  21.8281841  60.1156197   6.6696281
  21.0492554  59.5829544   6.8301611  21.5713978  61.0001030   6.9303589
  12.3652229   9.1282682  18.4687920  11.6365242   8.7403898  17.9842491
  12.3894987   8.6432772  19.2936707  29.7422733  36.1197243  86.3028488
  29.5703888  36.8275528  86.9238739  30.4729881  35.6357155  86.6875916
  25.2817173  55.7579842  83.7347565  24.4346867  55.8376350  84.1734161
  25.5814400  56.6606369  83.6269684  78.7153320  42.2307510  69.6614304
  78.7296143  43.0349464  69.1424866  79.6101608  41.8951416  69.6077576
  36.4059258  46.6934395  86.5641251  37.2101974  46.4389915  86.1117554
  36.1385155  45.9061394  87.0383301  85.1791611  32.8460999  83.7070312
  84.4274368  32.2781982  83.5378342  85.0219498  33.6193428  83.1651764
  16.8766460  47.7273254  77.7109985  16.0780392  48.1022148  77.3396301
  16.6712799  46.8006020  77.8344574  30.5297661  46.6432228  74.8777847
  30.1566906  46.2955513  74.0677414  30.0052319  46.2458839  75.5729218
  44.8930054  59.8308792   1.7075086  44.5847435  60.4530487   1.0486338
  45.8465309  59.9118156   1.6857753  79.1453857   3.9961045   2.7470756
  79.5826950   3.2838960   2.2804353  79.8582611   4.4914742   3.1503801
  82.5328522  13.3295059  15.0909157  81.9694901  13.3026628  15.8643103
  83.2982407  12.8085861  15.3339272  77.7944412  54.1697884  57.0672226
  77.1791382  54.2527122  57.7957573  77.2953568  54.4481659  56.2993355
  11.9925089  70.8288879  42.9598656  12.2980328  71.5410080  42.3979301
  11.8698902  70.0896072  42.3643227  52.2524414  19.9730053  53.7826157
  52.0029182  19.9530773  52.8587227  52.5507355  19.0828590  53.9694023
  81.2180252  52.7580338  63.8050575  81.0917053  53.4475250  64.4568863
  80.6831207  53.0318832  63.0600014  73.9131470  40.8681831  56.2760162
  73.8331375  41.7340088  56.6762390  74.2243118  40.3046837  56.9844437
  40.7723579  34.7406960   2.1764112  41.5156670  35.2175026   2.5457039
  40.2545967  34.4776878   2.9373212  69.4577408  25.4675941  56.4816818
  68.5345764  25.5007896  56.7324638  69.4482040  25.1710014  55.5716438
  60.6077156  42.5567436  26.0656586  60.6306419  42.1161995  25.2161732
  60.1169662  41.9606628  26.6314240  73.9029312  21.0253582  69.1644135
  73.9919891  20.1007442  69.3954697  73.7761002  21.4704742  70.0022812
  54.2668076  54.6276169  23.4761696  55.0194511  54.0431061  23.3860989
  53.5299568  54.1244392  23.1296253  14.6349182  61.4780312   0.9743853
  14.8075581  61.2539902   1.8888431  14.2156372  60.6977348   0.6116619
  37.9539452  63.8765335  55.5862045  38.6772003  63.7034187  56.1888390
  38.0321846  63.1969604  54.9166603  18.2458286  29.7405128  75.3622284
  18.4578018  29.8103752  74.4314117  19.0272446  30.0637150  75.8107376
  83.1458282  13.0548668  23.8655014  83.0084000  12.2898474  23.3068504
  82.7136383  12.8304224  24.6895580  76.0359879  11.6213341  84.6700211
  76.7912140  11.2493382  85.1255341  75.8560410  12.4394541  85.1331940
  74.0382309  30.2363548   4.7001333  73.2172699  30.3185577   4.2148485
  74.0149460  30.9536991   5.3334632  58.4297829  71.6709213  63.8211594
  57.4785690  71.6033173  63.7383499  58.6728249  70.9424667  64.3925781
   7.1564498  62.1507454  21.7117424   7.6563673  61.4642754  22.1534119
   6.5497770  62.4720726  22.3787727  14.7824478  35.4356003  83.8349152
  14.7834120  34.8712845  83.0617523  15.4635782  36.0846024  83.6585922
  85.1691742   4.3796668  29.0735893  84.8133163   4.9777851  29.7307453
  84.4369431   4.2127728  28.4801121  79.6921234  67.2480927  26.6639729
  79.1353226  66.8400726  26.0008621  79.9962997  68.0586014  26.2555771
  77.1972198  24.2073536  28.5943069  76.5963516  23.8952637  27.9177055
  77.8448563  23.5078239  28.6806717  65.0933075  58.1245842  16.4010277
  64.8703690  59.0249062  16.6375637  66.0271225  58.1558075  16.1930676
   4.8062124  66.3938217  84.5726700   4.7189412  65.8548126  83.7864914
   3.9606814  66.3124771  85.0139084  36.1209984  65.7195663  14.7284622
  36.6160507  66.5058975  14.9583321  35.2041321  65.9771423  14.8245773
  10.9312267  70.3009415  11.6860447  10.6097918  69.9519806  12.5173912
  10.9151402  69.5522919  11.0898056  15.4086351  37.5229187  10.5002584
  15.7490053  36.6560593  10.2790565  14.6581802  37.6413078   9.9179916
  67.1638489  43.3321266  46.3295479  66.8270111  44.1920471  46.5811501
  67.9173660  43.5240097  45.7713165  73.0390472   7.1431565  62.6888466
  72.4658432   6.5792565  62.1695366  72.8961945   6.8624983  63.5927582
  57.6544991  11.0496492  64.9141235  56.9941559  10.4416571  64.5816727
  58.4551315  10.5277920  64.9678345  38.7876167  27.3318672   8.7220478
  39.1678009  26.4612083   8.6052389  39.5198822  27.9331665   8.5861883
  72.5425034   7.3058424  27.7315121  72.2221375   6.8663049  28.5191708
  71.7901611   7.3154507  27.1398048  61.7937813  26.1226597  33.1789360
  61.1706429  25.6492786  33.7301521  61.7666168  25.6645756  32.3389053
  56.0674248   6.9270735  34.0838928  55.7207260   7.7200866  34.4927444
  56.0202255   7.1019258  33.1439819  71.6362839  18.0450020  59.8918495
  71.6417007  17.1837234  60.3094673  72.5306091  18.3688736  59.9992256
  76.0742645  17.9202461   2.7655399  76.0413284  17.4665070   1.9233594
  76.2081604  18.8400593   2.5369611  77.5905228  24.1263828  24.6208725
  76.8837585  23.5114079  24.4245930  77.6718140  24.6583977  23.8293018
  31.1194439  68.3794556  15.3730621  30.8001881  68.9192505  16.0962048
  30.9660034  67.4793243  15.6601925  28.6882324  62.7863312  29.6753387
  29.1441784  62.2654495  29.0142593  29.2904282  63.5038834  29.8720913
  75.9582672  15.5183802  16.4379330  76.1784058  15.7808304  17.3317413
  75.4094315  14.7414608  16.5447350  43.1107483  30.4425392   3.8212342
  42.7967300  31.1784782   3.2958598  43.9798126  30.2504101   3.4690366
  30.4532795  60.8784103  66.9692688  29.9304581  61.3364296  67.6273804
  31.0028839  61.5602760  66.5829773  13.0009890   7.0933275  63.7297554
  13.8411942   6.7406030  63.4367142  13.0133343   8.0076981  63.4469032
   2.6506743   5.2679996  63.1782684   3.2549179   4.6393337  63.5731125
   2.0908282   5.5491242  63.9019890  80.4609528  62.7296181  48.5353470
  80.2365417  63.0551414  47.6636200  80.5670471  63.5192375  49.0658913
  10.1512089  52.2590294  28.5166855  10.3428850  53.0476418  29.0242138
   9.3199339  52.4499664  28.0822239  45.5507622  61.0538521  66.7051697
  45.9593163  61.3180542  67.5294952  45.2992287  60.1408386  66.8443451
  78.2568970  11.7841539  72.2710114  78.0055389  11.1626091  71.5878296
  78.4856644  11.2356930  73.0214005  47.0316277  56.6844063  37.6520729
  47.7836685  57.2697525  37.7417336  46.2862625  57.2704620  37.5209274
  68.9780807  59.5062675  31.7038097  68.9927063  59.4373817  30.7492046
  69.7723541  59.0544052  31.9887486  15.3037205  14.1729288   2.7743120
  14.6959724  13.9346590   3.4743843  15.8207922  14.8906660   3.1399937
  72.7382431  13.3130140  57.7860718  72.1615143  12.8650732  58.4049149
  73.4891205  12.7269983  57.6912003  71.4705658  22.3720703  69.2820206
  72.2482910  21.8201733  69.1996613  71.2206039  22.2977943  70.2030182
  38.0627441  26.1779957  20.9457684  37.3454514  26.5610886  21.4507122
  37.7140007  26.0966034  20.0580845  34.6318550  51.8079185  69.3023148
  34.1578598  52.1085892  68.5269699  34.8318558  50.8898315  69.1197052
  59.8204460  55.7878876  20.3800964  59.8253975  54.9815216  19.8643627
  60.5943298  56.2667313  20.0833759  18.3930683  15.7922525  46.6246452
  17.9389801  15.7301769  45.7842979  18.2532406  16.6963482  46.9062347
  22.7180500  52.0623055  78.7407608  22.1987419  51.7290077  78.0090027
  23.6264725  51.9439659  78.4632797  86.0151596  40.5731087  32.5195618
  85.8376083  39.7666626  32.0354614  85.2293015  40.7133293  33.0477715
  46.3038559  17.6871052   2.9492853  46.6498680  17.0573826   3.5817087
  46.5556946  17.3330002   2.0963964  24.8611774   6.5879364  39.2612534
  24.0002213   6.1738677  39.2017860  24.7512341   7.2759538  39.9175873
  83.4432297  59.5358620  80.0632782  83.3629456  60.4409561  80.3642654
  84.3744812  59.3345528  80.1553268  48.0911064  54.1688919  20.9716587
  47.4713631  53.4665871  20.7743778  47.7675056  54.5518456  21.7870483
  52.4937744  20.1456757  67.0979309  52.0465088  20.7132931  67.7256165
  53.1366158  20.7153969  66.6755524   8.6861696  44.6035004  31.0857964
   7.8823490  45.1141968  31.1822052   8.8036547  44.1790657  31.9356689
  73.8004227  22.9644127  30.6705704  73.1642990  23.0353985  31.3822861
  73.2699661  22.9695644  29.8738136  52.7475243  23.1274166  30.1153011
  51.9515419  22.9994373  30.6313114  52.4489288  23.1097908  29.2060356
  25.0980759  70.1299286  16.1449432  25.9958439  70.3652954  15.9107456
  25.0259476  69.2032928  15.9160957  61.8010483   9.8832130  42.0025635
  61.2692375   9.5427961  41.2831688  61.5822487  10.8142166  42.0424461
  59.0052834  44.3719673  82.5170898  59.5198936  43.8164711  81.9315720
  58.2771759  44.6793518  81.9770813  42.6981201   7.4314718  80.9712753
  42.3917465   7.6303968  81.8560333  41.9065933   7.4521608  80.4334183
  27.6677704  29.7767487  73.7665024  28.3852520  29.5041904  74.3384857
  26.8866405  29.3882732  74.1604080  41.3555374  22.2889767  18.5803413
  40.9304619  22.2708321  19.4377880  41.8075790  23.1323280  18.5549088
  17.4582939  61.4953651  69.5687180  16.9124432  60.8138084  69.9608383
  17.4369583  62.2130356  70.2017441  38.2175102  36.4787750  65.8435593
  38.6062164  36.6860237  66.6933746  38.2518005  35.5236320  65.7910385
  60.5779991  30.3778152  77.1924591  61.0307808  30.9866905  76.6089401
  61.2754211  29.9874611  77.7192001  21.4346943  50.8423462  40.1333427
  21.3209896  49.9304008  39.8656502  22.0780849  50.8057671  40.8411140
  22.5350685  51.8941574  83.1305695  22.5807266  52.5896873  82.4745255
  23.4406605  51.6013870  83.2326584  54.2394943   8.4839430   2.9736080
  54.7142792   7.7222662   2.6409497  53.3285446   8.3251295   2.7262666
  16.1310558  65.4591675  23.5156727  15.3123636  65.8880234  23.7647839
  15.9000683  64.5343704  23.4283104  50.8062782  51.5395279  74.0864105
  51.0237160  50.7947388  74.6469803  50.0088272  51.2710724  73.6300812
  53.8039246   7.3929052  62.9683151  53.1624603   6.8742270  63.4538345
  54.4894180   6.7674208  62.7335854  19.3365841  63.0738182  66.8288879
  19.1333847  62.1385384  66.8151093  18.4847031  63.5028381  66.9093399
  46.4434128   4.0528212  31.7968025  46.9595070   4.0715489  32.6027336
  46.9522629   3.5049262  31.1992111  73.8063431  15.9481382   0.3244143
  74.6878815  16.3207893   0.3404887  73.8848572  15.1262960   0.8088132
  44.0336533  11.3735991   5.7000117  43.4362717  11.5043926   6.4363923
  44.6740875  10.7387362   6.0209880  27.8072872  29.9037685  21.9766998
  27.2749405  30.2590866  22.6884499  27.6709003  28.9575634  22.0249424
  61.8186798  10.5337782  51.9041328  61.1105156  10.8394690  51.3373146
  62.3323402   9.9461775  51.3499565  13.7071981  18.9624481  23.6793861
  14.1882315  18.2738590  23.2203827  14.3519802  19.6573334  23.8121338
  14.2332239  66.0052795  76.5653839  13.5863743  65.8390045  75.8796921
  14.1174803  66.9297943  76.7847290   5.6716623  62.2992592  45.0670700
   4.7885900  61.9551926  44.9327888   6.2472844  61.6385040  44.6819839
  33.5889931  61.5458336  29.4670238  33.7064667  61.1968727  30.3505707
  33.9921303  62.4134941  29.4966354  67.4886169  36.9914780  18.9417400
  68.0872421  36.8971825  19.6826782  66.6182327  37.0193825  19.3390808
  63.6153145  65.3883286  35.1684341  64.4169998  65.1069336  35.6092758
  62.9089546  65.0035172  35.6872864  59.3585701  58.8341103   9.3193083
  59.8215981  58.7053757   8.4915009  59.5243912  59.7489929   9.5467310
   4.1967349  20.3695946  44.5113831   4.2522511  20.9813099  45.2455139
   3.5648422  20.7693596  43.9137764  70.6523895  54.8614388  66.5084534
  70.5192261  55.3940201  67.2925797  69.8717041  54.3098679  66.4581299
  54.6311531  30.7693672  26.4428768  54.3708038  29.8582020  26.3078613
  55.5816154  30.7334690  26.5504131  84.3750458  42.1810150  13.7230120
  83.4245987  42.0848732  13.7834044  84.5941849  41.8517227  12.8513603
  75.6882477  45.7438087  49.1838989  75.3191147  46.6032982  49.3870010
  74.9257431  45.1764793  49.0700836  43.8141022  67.6057053  82.6457596
  43.8187790  67.4681854  81.6985016  44.7100945  67.4108963  82.9204941
  71.0455170  42.3637848   9.5938969  70.2223969  42.1633339  10.0394583
  70.8234558  43.0696068   8.9866600  45.7218208  48.9458466   5.0826111
  45.7693367  49.8968239   4.9845490  45.7247353  48.6121140   4.1854796
   0.3062315  69.3543549  44.2687950   0.2180611  68.4373703  44.5287819
   1.2507160  69.4943848  44.2011719  25.8475780  31.1120949   4.5578961
  26.6872807  31.5632229   4.6451588  25.8893528  30.4022064   5.1986327
  71.6271973   4.0231071  36.9905396  71.2344666   4.3433247  36.1784706
  70.9130859   4.0466619  37.6275024  36.4180679  19.8426704  72.3568954
  35.9453888  20.6579075  72.1889801  37.2630882  19.9621143  71.9234085
  77.3463593  61.9549599   2.8302779  77.3750229  62.7544670   3.3558254
  77.9037399  61.3371773   3.3034639   7.3977265  69.2971191  23.3863392
   6.4894609  68.9986267  23.3395748   7.8954701  68.5138855  23.6208992
  76.8368683   9.7961140  82.3218994  76.7650604  10.7288036  82.5247955
  77.6147308   9.7307024  81.7679291  29.6866512  68.9747009  26.4158592
  30.1920185  69.6359558  26.8887024  30.3471851  68.4185638  26.0027752
  78.1448212  44.2438087  12.3449783  78.7650986  43.5555229  12.1046705
  78.6938095  45.0025406  12.5429039   2.8162737  56.0936699  69.3892288
   2.3226075  56.6550331  68.7914047   3.0910823  56.6787605  70.0951920
   8.7237415   9.0451984   5.3519287   9.3947449   9.0522270   6.0345240
   7.9624529   9.4575138   5.7601781  78.6985397  27.0804424  70.9316406
  79.3186874  26.3795929  71.1327896  79.1603317  27.8844395  71.1694794
  23.4030457  30.5504837  69.9673080  23.5719910  29.9562683  70.6984634
  24.1638641  31.1310692  69.9497910  75.1079102  52.9689140  42.2606239
  75.4157486  52.0629883  42.2882881  75.8114090  53.4735069  42.6689072
  83.7083206  25.8879719  71.0504532  84.1185532  25.7335567  71.9013901
  84.4234848  26.1915722  70.4913483  60.3239288  14.3117418   2.8937278
  60.7561455  15.1645498   2.8474803  60.3872490  14.0607929   3.8152738
  72.6352615  11.0127029  88.1521378  72.3343201  11.2772083  89.0214539
  72.6281357  10.0558538  88.1770859  68.0481339  45.0668793  54.4531364
  68.3998795  44.1840973  54.5680542  67.5788879  45.0311050  53.6196136
  77.7848816  23.7712727  16.5819874  78.3734131  23.1198635  16.9634743
  77.0459137  23.2612858  16.2502251  75.4063568  38.7075081  84.2191162
  75.3840866  37.8413506  83.8122864  74.4905167  38.9848595  84.2422867
  50.3101540   8.2327690  74.9777222  50.7643127   7.3905516  75.0030441
  50.0097313   8.3157625  74.0726852  64.0831604   5.8684249  83.5055695
  64.3584518   5.0543923  83.0839081  64.2567291   6.5468063  82.8529587
   6.2618642  49.6442642  46.8319283   6.3018889  48.7010498  46.9899673
   5.8686786  50.0038795  47.6271095  79.9752121  12.1111002  38.4833298
  80.5452881  12.1863356  39.2485619  80.3851700  11.4341660  37.9448776
  42.5944061  52.9958878  76.9741135  42.1222000  53.8284416  76.9639206
  41.9137306  52.3330307  76.8577576   6.4637532  11.0413008  42.7115364
   6.5861826  10.1256943  42.4607201   7.2990303  11.2959948  43.1035500
  67.1670303  45.7116013  39.5966110  67.0115509  45.0311813  40.2516594
  67.8237839  46.2824249  39.9954376  19.9997044  52.3460388  71.8484879
  19.5364876  51.9350319  71.1185989  20.8165359  51.8524818  71.9221191
  78.0861893  13.0649710  20.5718250  78.0313492  12.3697386  21.2274742
  79.0240097  13.2318439  20.4775505  50.1790199  10.4347496   5.4471588
  50.1733170  10.1422386   4.5357666  50.1897774   9.6255550   5.9583530
   7.4858928   7.1367784  85.8988190   7.3162603   6.4070435  86.4945908
   8.4344120   7.1258297  85.7706604  36.8413391  53.7137566  62.7743530
  37.3442459  52.9326515  62.5437164  37.2102852  53.9978752  63.6106453
  13.7180071  51.4972878  72.1834641  13.2323141  52.3060951  72.0217209
  14.4897900  51.7758636  72.6763916  51.6200714  11.4382620  76.6233902
  51.1972580  10.6749306  77.0168152  50.9414635  12.1133327  76.6211472
  49.4045029   4.2284760  52.7594833  49.6344147   4.5043001  51.8721886
  50.1403923   4.5183101  53.2986450  86.0821686  47.6097641  81.3376694
  86.5316620  48.2292442  80.7628403  86.5478287  47.6754150  82.1713867
  60.2549171  42.6538353  81.2726898  60.7615013  42.5203323  80.4715805
  60.6749306  42.0863380  81.9190445  29.2095032  56.0868149  69.6083832
  30.1264687  55.9293709  69.8333664  29.1269684  57.0403252  69.5930405
  61.9995689  37.5469856  31.2278709  61.1611938  37.7902565  30.8352108
  62.2410049  36.7305450  30.7904167  77.7957535  62.1261559   0.0837708
  77.2014313  62.8664131  -0.0388386  77.7434921  61.9294090   1.0190732
  26.3957710  71.2682343  23.6383820  26.9563255  71.2398529  22.8630085
  27.0040226  71.2167053  24.3756790  68.4294128   5.4140863  26.0401707
  68.9021912   4.6970358  26.4627228  69.1004333   6.0745039  25.8675175
  24.4998055  54.5009499  36.0549622  24.6196327  55.4376335  35.8984451
  23.6096897  54.4275932  36.3992653  37.3364601  52.8201103  84.1916580
  37.6274338  53.0651093  85.0700378  37.9020500  53.3207169  83.6036682
   8.7534208  60.6000366  56.0688515   9.3585939  61.3059502  56.2961884
   8.5489731  60.1812706  56.9049530  50.9963417  10.6928377  20.7942867
  51.4767265  10.2139874  20.1188889  51.4399376  11.5392685  20.8491364
  75.4180832  71.2631607  65.3327332  74.5592117  71.6800232  65.2634277
  75.2421646  70.3303223  65.2098541  57.3108826  30.4771786  86.3391037
  57.3936539  30.5752029  85.3905411  57.6007729  31.3179913  86.6929779
  48.8037415  62.5321884  85.3090973  49.4168854  62.5321007  86.0441360
  49.2771301  62.0934296  84.6022568  55.3481216  46.5316391  34.2035980
  55.5979729  45.6793251  34.5604744  55.3117790  46.3936577  33.2570953
  66.5170135  13.5112057  70.8625259  67.3756180  13.1249857  70.6897202
  66.3062363  13.9938622  70.0632477  40.0307999  37.7919388  78.4092178
  39.5555420  37.0031700  78.1480560  40.6934395  37.4793816  79.0252075
  74.3174820  47.8316422  44.8079948  75.2534256  47.6311264  44.8135376
  74.2662430  48.7265205  44.4721336  22.1663208  33.7974129  15.8116741
  22.8838577  33.5980568  16.4130287  22.4957161  34.5196953  15.2768459
  37.5911140   5.5139060  36.8925667  36.9336548   4.8199425  36.8436470
  37.1109505   6.2764149  37.2154541   0.0546506  29.5856419   3.4857962
   0.9570442  29.5377560   3.8014293  -0.4671620  29.2084370   4.1940761
  50.1294479   6.8413568  45.3087463  50.9081154   7.3980479  45.3079872
  49.4474983   7.3839426  45.7046967  47.4575615  20.9744625  72.0734024
  46.7880478  20.6716652  71.4599686  47.0411644  21.6953926  72.5457458
  35.4939041  66.7834702  48.4958725  35.3754883  67.0803375  49.3981361
  35.4540138  65.8286743  48.5506935  74.6637802  56.4983253  10.2796202
  75.0493088  57.1755714  10.8354464  73.7462387  56.7558022  10.1898451
  23.2428474  70.2687378  33.2939453  24.1234760  70.6438522  33.2977028
  23.3723202  69.3512115  33.5339813  38.5468941  36.3489418   5.6715465
  39.2241364  36.4127693   4.9981217  37.8002777  35.9514236   5.2234640
  18.0094624   3.2750838  25.8224888  17.3761730   2.5902383  26.0373478
  18.6659756   2.8336909  25.2836056  52.2137489  43.0199966  53.9888992
  52.9750366  42.4953499  54.2367210  51.7237511  43.1308327  54.8036728
  78.2066803  38.0146523  88.0454102  78.0217896  37.3020973  87.4335938
  77.5393753  37.9253349  88.7258148  40.0116348  57.2472115  66.2924500
  40.7011375  57.6941490  65.8014679  39.2723694  57.2081490  65.6856689
  48.7429771  70.6760101  54.9693565  48.2101173  70.5705414  55.7574997
  48.1994514  71.2002411  54.3811455  15.0387068  58.8833427  36.3743286
  14.9585829  58.2113342  35.6974068  15.5450850  58.4636040  37.0697632
  66.9488449   4.0712538  77.7224808  66.4242630   3.4559989  78.2348328
  66.7099686   3.8904796  76.8133621  70.2158356  54.9023743  31.1625519
  70.5340958  54.3200455  30.4727421  69.4374084  54.4638138  31.5059910
  48.6231651  44.6198349  40.5939636  48.1493263  45.0275078  39.8690414
  47.9819641  44.0380440  41.0021515  48.2464676   2.1687453  86.8769989
  49.0384369   2.7058768  86.8995132  47.5288811   2.8013546  86.8437347
   9.1301889  69.3648987  41.6939316   9.8313942  69.3432846  41.0427208
   8.8368645  68.4561691  41.7603073  50.3952942  53.6683807  61.0516319
  50.6897888  53.9271507  61.9248695  49.6502762  54.2414284  60.8705292
  53.1589050  59.8775063   5.3549232  52.3326874  59.6996765   5.8043394
  53.8077698  59.9261818   6.0569453  75.5403519  49.9400063  82.2627487
  75.8826370  49.1650429  82.7082901  75.1778870  49.6043816  81.4428711
  24.7530594  17.6153469  82.8297272  24.1244602  17.1317730  82.2937698
  25.4730434  17.8162231  82.2318115  81.4486084  36.6127014  14.4955215
  81.5721588  37.0062599  15.3592787  82.2918777  36.7271767  14.0573158
  77.6026459  60.3239098   7.5665827  78.5356140  60.3046303   7.3534322
  77.2181015  59.6377869   7.0210590  18.7950516   3.7521482  13.0074396
  19.3730621   4.2889743  13.5496140  19.1160660   2.8583837  13.1273003
   7.4893265  53.4287758   7.4569545   7.0562372  53.6873550   6.6434422
   7.3562222  54.1716309   8.0457506  35.9335670   9.7792730  11.0194435
  36.4652901  10.5751915  11.0236464  36.5695992   9.0660305  11.0740299
  21.7393665  26.9523773  21.5235062  21.6367626  26.1022148  21.0958042
  21.1001320  27.5174809  21.0896034  67.4125519  11.2285032  78.9798050
  67.4538956  11.8899660  78.2891617  66.9368515  10.4982872  78.5839157
   0.5591351  52.2349129  47.4467850   0.6167551  51.6753807  48.2212791
   1.3599058  52.0485992  46.9565964  19.7174835   0.0121620  74.3078613
  19.9124184   0.3772096  73.4447479  20.4405117   0.3070410  74.8614960
  62.1505165  37.5388832  62.4197426  62.6605415  38.1994057  61.9508972
  62.4235382  37.6290359  63.3327408  24.6032066  68.1722031  52.1835899
  25.2159977  67.6817093  51.6357422  25.0218277  68.2017136  53.0438881
  45.2071457  22.1873322   1.7698143  44.2758293  22.1123047   1.5618521
  45.3107910  23.0855293   2.0840268  75.8404770  37.9501724  26.0988274
  75.6169128  37.9532700  27.0295486  76.1772995  38.8301964  25.9304771
  34.2649460  63.2029305  86.4153290  33.4692574  63.6577377  86.6914825
  34.9243050  63.4613991  87.0592804  31.4918156   0.4988103  87.9383316
  31.9180355   0.4115744  87.0857162  31.9839115   1.1892601  88.3825760
  78.5709686  39.8771667  32.8305130  79.4701538  39.6766663  33.0903206
  78.1950684  40.3203659  33.5911102  32.9790840  17.3700142   3.6929774
  32.8460770  18.3047028   3.5351865  33.9238052  17.2441711   3.6041393
  30.7669697  12.3213377  78.4436874  30.3231106  13.0357447  78.9006882
  30.7606907  11.5965757  79.0689240   9.7280731  10.6151600  67.8967972
   9.8038082  10.1088886  67.0879745   8.7860708  10.7355232  68.0167007
  86.3563919  41.1544724  69.3280945  86.0663986  41.5812531  70.1343155
  85.5652161  40.7482529  68.9741745  67.0748520  35.5977974  76.0053101
  67.9733810  35.6825600  75.6864319  66.5658035  36.1843529  75.4458008
  15.3724165  53.6739197   8.6531239  16.1497974  53.6090698   9.2078362
  15.5440540  53.0719986   7.9289255  35.2633553  10.1083918  18.8303185
  35.7262688  10.7726574  19.3409023  35.6965599  10.1174212  17.9768028
  68.8079910   2.4206314  56.2952805  68.5472794   3.0526276  55.6253204
  68.2154846   2.5899267  57.0277481  55.8592224  16.1670361  61.9387932
  55.8902435  15.5861616  61.1786270  56.5450516  16.8141003  61.7739258
   6.8475142  35.9406662  48.9855042   6.1451535  35.3980064  48.6271172
   6.5679965  36.1339378  49.8803482  21.7430115  70.0961227  67.7544098
  21.7383862  69.1799164  68.0314789  21.4601936  70.0713425  66.8402786
  48.3970451  59.8850288  19.5694199  48.6218147  60.2664871  18.7207737
  48.8898354  59.0650558  19.6015167  41.9279060  70.6052704  46.7383881
  41.5583305  69.8118286  47.1258163  41.2051544  70.9880066  46.2410240
  58.2864151  21.8658028  78.6930389  58.5586700  20.9656258  78.8713379
  59.0971107  22.3732815  78.7314148   1.4204295  31.7943745  35.2697411
   1.8785212  31.3438396  35.9792519   2.0928555  31.9383717  34.6039047
  72.2453232  18.1174202  16.9466457  71.7044678  18.7574310  17.4093456
  71.6217346  17.6022930  16.4347725  68.1678925   9.6268663  50.8299522
  68.0901642  10.3507423  50.2085075  67.2723618   9.4718847  51.1303520
  79.3892517  28.8825989  35.3391342  80.1825867  28.5264549  34.9391174
  79.6998596  29.3417168  36.1194992  68.4062347  44.1526031  30.0696278
  67.7080536  44.2209930  29.4183998  68.2559204  43.3079491  30.4941216
  62.5764046   5.6463418  44.9911461  63.4156151   5.3016477  45.2963486
  62.7691307   6.5455475  44.7255936  79.9344788  58.1084175  63.1955338
  80.7169876  57.5776062  63.0466766  80.1810608  58.7058067  63.9016190
  14.0210457  69.7188721  27.9783363  13.4533987  70.2899704  27.4607887
  14.3937206  70.2936935  28.6468601  34.0738144  45.4412003  42.1153145
  33.6538467  44.5835724  42.0495224  33.3622055  46.0395164  42.3430443
  51.0670319  55.4877014  89.0903702  50.9189339  54.6361389  88.6791077
  51.7786674  55.8781662  88.5830765  16.8835430  48.3355217  38.4096069
  17.3724728  48.4523125  37.5950279  17.1193619  47.4566460  38.7065887
  22.8056374  42.2449722  34.1760063  23.4639664  42.9182205  34.0040474
  22.0155296  42.7351265  34.4034119   4.6935668  35.4102478  70.7151260
   4.5791111  36.3588066  70.6571350   5.5715041  35.2532387  70.3675537
  66.8629227  12.6726847  65.3217926  66.6095200  11.8312511  65.7012787
  66.1921616  13.2842083  65.6257019  66.8358078  67.3621979  51.7458878
  67.6492691  66.9913101  52.0878830  66.5890579  66.7780075  51.0289040
  12.0022659  11.4691353  81.2381058  12.7190838  11.7338209  80.6616058
  12.3872795  11.4690142  82.1144562  36.3134079  62.5807991  69.6654282
  36.0294151  63.1567650  68.9556046  37.2691002  62.5885086  69.6122971
  46.4280396  63.5256157  38.7731018  47.0719528  63.4506569  38.0688362
  46.6138344  62.7828484  39.3475647  28.2295818  61.0411606  79.1671906
  28.8284740  61.5716858  79.6926422  27.4261417  61.0021172  79.6860275
  51.3054848  25.4882336  77.6468506  50.8897972  25.1154499  76.8693771
  50.5985146  25.9487343  78.0989227  62.3160591  26.4333954  65.1118164
  62.6854630  26.3484478  64.2328644  62.5295219  25.6055756  65.5423737
  30.4218407  62.3052635  80.3496017  30.7464218  61.9579773  79.5187759
  30.6144543  63.2420158  80.3092346  77.9780960   2.7369163  22.4904461
  78.7239914   2.1948390  22.2335014  78.3384552   3.3536842  23.1276054
  51.9534111  21.8818779  86.5023346  52.1822548  21.4546490  85.6769028
  52.6364937  22.5404263  86.6286011  17.3974018  34.6150398   0.5954249
  16.7542686  34.9854240  -0.0090795  17.8836269  33.9806976   0.0687144
  18.6209774  67.1457291  21.9181156  19.1417656  67.8905106  22.2186394
  17.7555904  67.5144806  21.7410336  31.3769188  61.8174286  34.8248825
  31.0964165  60.9622040  35.1506729  31.1271935  62.4307098  35.5160828
  33.9863510   4.3689742  24.0876637  33.6683273   4.3229237  23.1860142
  33.6388550   5.1957245  24.4222717  74.8387451   4.7128811  69.3439865
  75.5744247   4.3927402  68.8219604  74.6868668   5.6020694  69.0238190
  53.2176094  65.1941757  39.0541687  53.5981598  64.5640488  38.4423294
  52.4971581  65.5950699  38.5678940  38.4046631  51.1224556  15.4514923
  37.5537529  51.5498123  15.3537683  38.2417221  50.2083626  15.2188616
  74.7037354  30.9839954  71.8982544  75.4435196  31.5469303  71.6700974
  74.0652390  31.5766048  72.2949524  60.2036629  35.1772232  28.8411980
  60.6746826  35.1913109  28.0080280  59.8745384  36.0699997  28.9453945
  22.9610615  39.9920921   8.3174114  22.3851051  39.2975502   7.9978480
  22.6989746  40.1200447   9.2290974  64.7272491  36.4209862  84.9330368
  65.6462097  36.6888428  84.9313736  64.7184830  35.5981941  85.4220810
  21.9972935  51.1200790   1.7343950  22.7212276  51.2677231   1.1258296
  22.0934963  50.2066727   2.0039568  24.0599804  48.5465889  86.6989975
  24.3883820  48.2561836  85.8480911  24.3270206  49.4638596  86.7584381
  20.7046795  58.8491287  82.9074402  20.1324692  59.5334969  82.5603867
  21.5500603  59.0080338  82.4875488  38.2322159  68.6815796  66.4207764
  39.1738853  68.8529129  66.4089966  38.1066971  67.9887543  65.7723465
  73.0463486   4.4629836  54.8544235  73.3764648   3.5770473  55.0040054
  73.7430267   5.0355506  55.1754303  82.7935791  60.7149048  21.5793514
  82.6155319  59.8168068  21.8585548  82.9244232  61.1979103  22.3953266
  84.1214447  41.4679909  88.6126938  83.9629288  41.9899635  87.8261490
  84.7095184  42.0060310  89.1427155   9.4171152  44.8263092  78.4466858
   9.6702328  44.5019951  77.5823975   9.9491386  45.6119537  78.5729523
   1.6769694  33.0453033  22.0721855   1.1047374  33.7357712  22.4069004
   1.4054497  32.9296532  21.1616173  50.0368004  68.6972046  16.0615616
  49.0972672  68.6843033  15.8789673  50.2552757  69.6268158  16.1272907
  80.8906860  60.3982277  16.0834408  81.0166855  60.0845947  15.1878996
  81.4650345  61.1607857  16.1531906  71.7911758  43.7103004  25.0217590
  72.1181488  44.3967896  24.4403381  70.8936768  43.5546951  24.7276192
   9.9184475  47.3215332  71.9417648  10.0063372  47.4658127  72.8839417
  10.3232927  46.4672813  71.7914810  37.8823814  60.7893105  48.5374298
  36.9759369  60.9005318  48.2506866  38.3554420  60.5381432  47.7441063
  41.7512779  43.9135971   3.9577501  41.1119194  44.4001999   4.4780068
  42.5984764  44.1558304   4.3316622  33.6663971  55.5046082  24.8387680
  33.8434639  54.5774078  24.6800842  33.7288551  55.6011658  25.7890339
   3.5065613  52.2282944  53.7363205   2.7384946  52.1039276  54.2938499
   3.8903949  53.0517883  54.0375900  62.4479256  16.0755596  86.6557159
  62.9799156  15.5302439  86.0761948  62.4197502  16.9287243  86.2226486
  74.3937912   5.2523265  86.8194962  75.3164215   5.5052500  86.7876434
  74.2879791   4.6401539  86.0912933  69.6768417   5.0634899   2.1184397
  69.9094849   5.3301105   3.0078344  68.7200470   5.0357752   2.1192491
   1.8572907  46.9651604  36.3236275   2.7752020  47.1336632  36.1108398
   1.8407652  46.9004288  37.2784920  40.5039787  39.0499420   3.3532653
  40.0553207  39.8403091   3.0528369  39.8341713  38.3669548   3.3198624
  51.8859901  56.6642380   2.2708011  51.3943214  56.3826904   1.4992924
  51.7402611  57.6091995   2.3159828  54.4317818  45.7190742  41.7227898
  53.6255951  45.3336945  42.0659714  54.9569168  45.9079475  42.5004730
  67.6557388   4.9312887  65.0904846  68.5564575   4.7969298  64.7957306
  67.2100754   4.1105976  64.8805161  12.6632776  62.4284439  13.7287579
  12.7816277  61.8895798  14.5109682  13.0055237  61.8915558  13.0140209
   7.8057632  27.2245255  16.6763191   8.2613707  28.0002632  16.3493862
   6.9044991  27.5162144  16.8136940   1.6973928  36.6028862  51.8358192
   0.8928866  36.2969971  52.2546692   2.2025611  36.9972801  52.5467987
  78.5340576  13.8772612  81.4490128  78.2941513  13.7872934  82.3712845
  77.7421799  14.2104511  81.0269470  68.9348679  39.2978745  68.2014389
  69.5247879  39.9709053  67.8619461  69.3988113  38.9299545  68.9535141
  22.1061382  41.1296158  79.8196564  21.2540627  41.5136604  79.6129990
  21.9158974  40.4689484  80.4856567  78.3426971  32.2541733  79.5414200
  78.4272385  32.8480721  78.7955170  78.2212219  31.3903961  79.1472626
  85.9398193  17.2505474  81.9463654  85.9021530  18.0307293  82.4996567
  86.8752365  17.0902977  81.8216553  34.1747513  32.2680588  78.6301956
  34.9566765  32.6134758  79.0609131  34.5093575  31.6203804  78.0098877
  43.8214951   9.0741320  61.3636894  43.7302895   9.4150076  62.2534752
  43.6788254   8.1317911  61.4524155  53.4384613  38.1813240  49.6660538
  54.2355270  37.6815758  49.8426094  53.6323395  39.0623589  49.9860802
  46.0838356  14.8449516  24.6589565  45.5251846  14.6322193  23.9113712
  46.5233727  15.6568184  24.4061489  82.4666824  58.0270920  82.9780960
  82.1021118  58.4761353  82.2154160  83.1084595  58.6417618  83.3338165
  23.2959213  29.4651184  82.8320694  24.1994858  29.6743908  82.5954132
  23.1277084  28.6213875  82.4124756  55.4486084  64.9676361   5.6714735
  55.3298187  65.5723343   4.9390440  54.6221809  64.4873199   5.7219720
  13.7987537  64.0888901  25.2879620  13.0363884  63.9898491  25.8582458
  13.8801193  65.0338364  25.1588249  32.5432129  13.6498346  72.6424942
  33.1772919  14.0953035  73.2043991  32.9142456  13.7168236  71.7626801
  71.0549164  52.4613380  16.8638477  71.9826355  52.2271118  16.8372002
  70.5948715  51.6231766  16.8182812   3.0353749  34.9445381  50.1593857
   2.4506586  35.5979233  50.5433502   2.4972651  34.1565323  50.0837708
  65.9490128  67.6881638  88.0006714  65.9029846  68.6390152  88.1006775
  65.0667267  67.3822250  88.2109222  78.0550919  60.6866035  49.4539337
  77.1686096  60.4340782  49.1958160  78.4206696  59.8991280  49.8570023
  44.9565315  47.5371056  65.2620926  45.3288345  46.8122673  64.7598648
  44.1880455  47.8070450  64.7593079   3.2782190  61.3013077  72.0316315
   3.4698117  62.1211014  72.4871140   3.1715636  60.6575050  72.7319031
  76.7465363  52.2007027  73.4744034  76.8252792  52.9025383  72.8282928
  76.0645905  51.6277733  73.1237869  16.1578751  58.3601952  42.0956421
  16.0602074  57.4080734  42.1081619  15.8135395  58.6250916  41.2427101
  55.3554306   9.7573929  10.1212893  55.1552773   8.8314419  10.2583437
  54.8517227   9.9988155   9.3439703  10.7322531   1.7931424  77.8380508
  11.5844688   1.8368187  77.4044037  10.6943712   2.5865476  78.3721924
  77.1025009  28.4883289  81.1038361  77.7559128  28.2142410  80.4602814
  77.5552444  29.1361046  81.6438675  19.5457211  59.2330284  37.9134827
  19.3768063  60.1278458  37.6185226  20.0846653  58.8503418  37.2211533
  59.9452896  19.7947788  36.5171127  60.4886780  19.0204582  36.3708725
  60.1734810  20.0841503  37.4005280  14.1197805  49.8641472  14.8144264
  14.8623505  49.5013847  15.2973595  13.9402580  50.7005005  15.2439823
   2.2830458   3.4762874   3.9226303   1.8759352   3.1758492   4.7351756
   1.7329451   3.1108649   3.2297468  56.9809685  47.1011467  28.9370632
  56.6206360  47.3981247  28.1014824  57.7171669  47.6899071  29.1032181
  63.6967773  66.7910538  44.5562973  63.8329010  67.5946808  44.0544128
  63.2312851  66.2093201  43.9553566  71.8951263  20.9993420  47.5686607
  71.6716614  20.3527927  48.2381897  72.5795746  20.5785713  47.0483551
  69.3890305  36.1066628  62.0610733  68.6518555  36.1960487  62.6650696
  70.1640320  36.2304001  62.6090698  72.0408096  41.4369354  76.3427353
  72.4132538  41.7708855  75.5266495  72.8011780  41.2004128  76.8738861
  85.3808899  48.0474739  49.4910164  84.4447861  48.0008202  49.2966957
  85.7724762  47.3626862  48.9488335  86.3669281   1.8934360  27.1781349
  86.1601028   2.0177171  28.1044235  86.1994247   0.9647380  27.0178356
  12.8407927  32.8508034   7.7997699  13.1197138  31.9399567   7.7060146
  13.5744734  33.2820778   8.2378902   9.3435373  63.5420265  30.2941551
  10.2557621  63.8299294  30.2596588   9.3334570  62.7190857  29.8053818
  51.3784904   3.0706310  83.5014267  50.8071709   2.3492897  83.7650528
  51.8379860   2.7421098  82.7286606  85.0080643   6.9996595  83.1406708
  85.8975067   7.1590633  82.8248901  84.6602707   6.3316545  82.5498734
  78.6796722   8.1746426   2.6733241  78.3342133   7.5396414   3.3007524
  78.0024338   8.8487654   2.6173050  21.2540417  30.1794128  28.8228130
  21.5193653  30.8470478  28.1902809  21.1711807  29.3785286  28.3051758
  33.5359726  66.7806091  11.8337431  33.6069489  65.9599686  12.3213320
  34.2933998  66.7777481  11.2484818  63.8550301  27.5156879  61.1564751
  64.4015884  26.9461231  61.6978645  64.3360443  28.3423119  61.1170502
  84.9744568  40.0184097  19.7688274  84.6019135  40.3381996  18.9471321
  85.8834686  40.3178291  19.7522430   1.5629778  49.8195152   6.5257607
   1.5394191  50.1101799   5.6140642   0.8498051  49.1846428   6.5932465
  47.8611488  60.7872849  59.9894218  47.4512138  61.6500893  60.0507164
  48.7538490  60.9666824  59.6942368  62.2884750  43.5624123  55.6074715
  61.9825897  43.9679604  54.7961807  62.8287239  44.2348175  56.0224876
  75.1940155  64.7222214  49.0599747  76.0067062  65.1085434  49.3863564
  74.5535049  65.4315796  49.1127625  86.5685959  40.3304939  14.8558645
  86.0352936  41.0316315  14.4813938  87.1400146  40.0552483  14.1389580
  19.6356277  44.2697678  85.6377335  19.0482025  44.2800026  84.8820496
  19.0905628  44.5608673  86.3687592  48.8779259  23.2638588  19.4999599
  48.3692627  23.8738518  20.0341892  49.2695465  22.6610432  20.1320019
  71.6677551   5.1886363  29.2195454  71.0933228   4.8628225  29.9124374
  71.2279053   4.9393144  28.4067745  37.8148117   1.0697210  49.6870804
  37.2359734   0.9883450  48.9290848  38.3763580   0.2957531  49.6438065
  56.8484764  70.6147461  32.8567352  56.5082283  70.1828537  33.6402740
  56.3344040  71.4189148  32.7841682  36.4983902  70.6948090  70.2231140
  35.5433121  70.7246857  70.1668472  36.7041779  71.1438141  71.0430374
  70.9726486  40.3070869  17.2837067  70.3453751  40.6232567  16.6334743
  71.8177490  40.6419258  16.9838409  23.4261723  17.1347103  23.5471344
  24.3389816  16.8693676  23.4348640  22.9293594  16.3196087  23.4763031
   0.4084890  44.0003548  44.4729080  -0.0563347  43.7062378  45.2562752
   0.0659990  43.4484596  43.7698135  30.2543983  64.9964371  81.3150482
  29.8989086  65.8550186  81.0854874  29.5114803  64.5213470  81.6873398
  35.3978157  18.4166241  16.8581619  35.8518639  17.7144871  17.3240776
  35.0341759  18.9678135  17.5511189  73.8368683   6.9221039  79.9651184
  74.5689621   6.9692645  79.3502655  73.6653366   7.8331051  80.2036285
   7.8901486   0.1862982  67.9183502   7.4076285   0.1347302  67.0932770
   7.3179193   0.6872829  68.4995575  66.4449234  40.2318802  58.7662544
  67.2210236  40.5175705  59.2482109  66.5372314  39.2810783  58.7055435
   6.7943573  54.5291824  58.5152817   6.9847832  54.8690567  59.3896141
   7.6548958  54.3853683  58.1215553   4.4216685  58.5927315  73.5947723
   4.9037404  57.8218727  73.8941269   5.0813890  59.2847252  73.5484543
  23.9583225   6.3392310  85.7858353  23.5092602   7.1803751  85.8698044
  24.8159447   6.5607548  85.4230042  69.0516129  64.9342117  66.8119965
  69.4894943  65.3411255  66.0643921  69.7600555  64.7299805  67.4224319
  24.2362328  21.6115417   9.1964798  24.4457207  20.9861088   9.8901520
  25.0379963  22.1222496   9.0843105  22.8501110  71.3576355  73.0651016
  23.0950966  72.2689209  72.9045334  22.5335140  71.0420303  72.2187042
  66.0694427  61.9868317  33.7093925  65.1930847  61.9167137  33.3308144
  66.1369247  62.8995743  33.9897118  37.0106773   4.7749496  45.7586670
  36.0752907   4.8750386  45.9354782  37.4195175   4.7762918  46.6241608
  74.0698471  16.3474903   6.4823251  74.6895599  17.0311279   6.7369499
  73.4820328  16.2652855   7.2332878  21.1531506  52.1092491  48.4204636
  21.1159821  52.9307823  48.9102974  20.6180515  51.5015755  48.9309845
  82.7872620  57.7849236  44.8724823  82.5735703  57.0795631  45.4832497
  83.1571121  58.4748650  45.4233208  69.7693710   9.8646870  12.9023342
  70.3133087  10.5101719  12.4509859  69.8268585  10.1072788  13.8264961
  54.8087273  15.2948627  79.4674606  54.4634705  16.1598568  79.6884003
  54.9420433  14.8669977  80.3132706   2.3629529  51.2113991  76.4876785
   1.8867798  50.7738113  75.7819824   2.4523611  50.5428047  77.1668091
  14.2950144  12.9889078  68.7355270  13.6251383  12.6289253  68.1542206
  15.1162310  12.8668766  68.2591400  27.6958294  58.0555229  56.8555374
  28.4546185  58.2502861  56.3055038  27.6462021  57.0996628  56.8654251
  63.0155296  32.2121277  59.8271904  63.6122551  31.6717167  59.3094025
  62.3325081  31.6064167  60.1149826  10.8834820   4.0664439  79.8304977
  10.3693886   4.8737097  79.8142929  10.3121462   3.4271445  80.2560577
  31.1424732  66.2772827  66.0060349  30.3634014  65.8616486  65.6365433
  31.3458786  65.7567673  66.7831573  70.6851959  39.0891457  30.9716663
  71.3559341  38.4204292  31.1100960  70.0239105  38.9068947  31.6392879
   7.2583919  23.0453339  72.7526703   6.9465013  23.4156284  73.5784073
   6.7122841  23.4581280  72.0836411   4.2812796   3.6990232  79.1778717
   4.2582870   4.6162572  78.9051361   3.5110936   3.5959713  79.7368240
  81.7330170  16.2982407  44.8262749  82.2067413  15.4980993  44.5991364
  81.6596756  16.7758961  44.0000191  86.3581085  36.9067001  10.5907469
  86.8597870  36.1446648  10.8803282  85.5144958  36.5476570  10.3157234
   2.1459060  51.8320312  40.3504105   1.2508045  52.1706123  40.3307228
   2.2295079  51.3288269  39.5404549  18.1064129  27.4195843  84.6099701
  17.8086452  26.5098801  84.6116180  17.7846394  27.7754250  83.7816772
   3.5127902  46.0058289  14.8184690   3.2869096  45.4194031  15.5404911
   3.1196728  46.8446960  15.0592842  55.2989922  58.5925827  78.8256683
  55.0431976  57.7142181  78.5441055  56.2355881  58.5217285  79.0100632
  -0.1739276  50.4419861  72.2181778  -0.3348961  50.1246643  71.3295670
   0.7040894  50.8214340  72.1816254  74.8079147  25.8483791  49.4775352
  74.4884262  26.2123070  50.3031998  74.2477188  25.0888252  49.3178902
  24.6511707  42.1794434   9.9468155  25.1231346  42.8073921   9.3998585
  25.3377571  41.6402931  10.3394327  83.1711578  37.5667801  54.5152283
  82.3744888  37.9344025  54.8978500  83.4028091  38.1753578  53.8136559
  35.0098686   4.7472887   2.7138605  35.4594574   4.3684168   1.9585096
  35.7097473   5.1342068   3.2398789   2.0141239   1.5663191  84.2591858
   1.5509785   2.4039998  84.2635880   1.4280665   0.9710654  83.7918091
  10.4118919  62.3436012  79.5073929   9.8064137  62.1331940  78.7965088
  10.0353003  63.1205101  79.9206924  40.2135086  28.6194496  72.2329712
  41.0992889  28.9396706  72.4035263  39.6632805  29.4013863  72.2782822
  81.9946213  10.8134851  80.8078308  82.3278809   9.9184637  80.8719482
  81.5680923  10.9711609  81.6501160  29.4776058  39.6298943  82.8634491
  28.7989159  38.9675827  82.7332230  29.5371513  40.0806465  82.0211258
  69.0774841  12.4770422   9.8851709  69.8609543  11.9857216  10.1321507
  69.1325073  13.2866278  10.3928881  47.3849106  60.4588394  15.9046249
  46.7001038  59.9249077  16.3073483  46.9107323  61.1636848  15.4635181
  66.4813766  28.3318844  32.4480934  66.8408737  28.1444683  33.3152008
  67.2374344  28.2948570  31.8622360  15.1230965  70.9973297  30.0572491
  15.1232986  70.1082458  30.4118729  15.7027283  71.4878006  30.6400871
  17.6870747  64.5837708  21.0118618  17.1579475  64.4097061  21.7902966
  17.9331131  65.5054474  21.0906849   6.4729366  35.0456848  35.9938278
   7.4076686  35.2498970  36.0221825   6.0931654  35.7366829  35.4511261
  27.0631237  54.1213608  61.4408607  26.9828796  53.9900093  60.4961205
  27.8967266  54.5792122  61.5490723  85.7025909  30.5285244   7.6947861
  84.8417969  30.7111816   8.0714760  86.0946884  31.3918152   7.5635610
  85.9283981  63.1056137  21.2879715  85.3926926  62.6723938  20.6234646
  86.6545105  62.5011597  21.4416809  58.8976364  16.7728310  85.7485199
  58.4392242  16.7815704  84.9082794  58.7778702  15.8819370  86.0774460
  14.9244862  46.8419762  39.9301033  15.4678421  47.3254814  39.3078346
  14.3725414  46.2835121  39.3826485  46.7155647  67.9094849  67.7785873
  45.8260689  67.5742645  67.8911133  46.8805923  67.8398666  66.8382950
  35.4115601  47.8778229  35.4001045  35.4468918  48.8227272  35.5488968
  36.3243523  47.6219254  35.2676010  35.7063789  62.9032249  81.2189331
  35.5066528  63.0355072  82.1456680  36.5821800  63.2730751  81.1075058
  38.9334221  43.9538116  69.2126083  39.2583771  43.0695801  69.0429840
  38.1545448  43.8231087  69.7534409  10.3770533  56.2292252  70.7929916
  10.5279865  56.8164673  71.5336685   9.8457289  55.5197144  71.1542740
  12.6134777  51.9631767  63.7963791  11.7933130  52.2963142  64.1604919
  12.3556509  51.1916771  63.2918510  70.1170273  37.1260605  54.8529396
  70.0668106  36.4034042  55.4786224  70.6278076  37.7983093  55.3039589
  49.0191650  42.4001846  61.3175659  48.1149597  42.5998383  61.0751038
  49.0429688  41.4459190  61.3885498  65.3170624   1.9971343  23.8869381
  65.6074753   1.6394887  24.7259750  65.6551819   2.8925877  23.8783588
  45.5402031   6.6834130  81.9235687  45.6217957   7.2143025  82.7158661
  46.1898384   7.0484009  81.3227386  61.9685745  46.0248146  48.1263046
  62.4049301  45.2784996  48.5372047  61.0799980  46.0082054  48.4818230
  78.0767593  35.5815773  61.4334946  77.6969757  35.4693794  60.5620537
  77.8086472  36.4608994  61.7002106  86.6812515  54.5874405   7.0926623
  86.3644333  55.4874992   7.0168304  86.4635849  54.3316193   7.9889936
  68.8263397  52.5188255  75.9103470  68.3754044  52.5594673  75.0669937
  68.5937119  53.3387299  76.3460846  63.3857384  34.6075706  52.7654839
  64.2754517  34.3691025  52.5051384  63.5049248  35.2437592  53.4706726
  53.9520035  63.1013222  16.3961067  54.0201149  62.3566399  16.9936390
  53.2335243  62.8708687  15.8071175  48.7071724   7.8104219  32.2417488
  49.2684097   7.3393168  32.8576241  48.9725990   7.4875336  31.3806305
  69.7066727  59.9115372   5.7122445  68.8742523  59.7117310   6.1404929
  69.8481674  60.8421173   5.8861260  42.0426254  17.2509937  80.7106476
  41.2617493  17.6494465  81.0949631  42.4928474  16.8440037  81.4508438
  40.2955360  64.1166687  17.1091328  40.2023087  65.0646133  17.0145626
  39.4203453  63.7712059  16.9332638  61.5417938  45.0353584  38.4479561
  62.0041656  45.7718620  38.0479431  61.3397865  44.4531097  37.7155571
  86.3539734  53.1863213   4.9534202  86.1916122  53.8367271   4.2701631
  86.3592224  53.6901207   5.7672930  61.4768295  55.1713028   0.3062723
  62.4174042  55.0025978   0.2506918  61.3893929  56.1053696   0.1162598
  31.6306992  21.3545380   5.6860299  31.3583889  21.0148716   6.5385003
  30.8266582  21.6993790   5.2976542  78.0472107   0.3556998  46.1510582
  78.9844513   0.2095409  46.0228424  77.8460007  -0.0885194  46.9747200
  48.2896576  70.7565765  36.8154755  48.7286034  69.9059830  36.8094063
  47.3566246  70.5444336  36.8414612  72.4843063  32.5667305  52.5639038
  71.9090347  32.8440666  53.2769089  72.5586014  33.3382378  52.0022202
  59.8803902  27.5211678  17.9708004  60.0832138  28.0615463  18.7344036
  60.6932297  27.0497932  17.7882442  15.2403946  19.5217094  52.6048470
  15.3982391  18.7949600  53.2074661  14.5506973  20.0356522  53.0248642
  45.4093857  10.1864309  11.7742233  46.0747185  10.7380409  11.3627701
  45.6110039  10.2250061  12.7091541  78.1898499  68.6197433  78.8274536
  77.4945755  68.1777496  79.3147507  78.1699066  68.2141647  77.9606552
  47.0774078  36.9555435  31.1449051  47.4211121  36.8684769  32.0340157
  46.4246483  37.6528206  31.2076702  85.1769104  68.7173615  60.8763733
  84.6460724  68.1121140  60.3585739  84.6026306  68.9864731  61.5933189
  17.2767029  63.9289474  35.9717636  16.9461231  63.0311852  36.0029221
  17.3285332  64.1328201  35.0379639  74.2990265  50.7116623  60.1174622
  74.5634537  51.1654663  59.3172302  74.8523560  51.0894928  60.8010597
  14.8545961   2.6383896   2.7322593  15.4542494   3.1478095   2.1871543
  14.5933161   1.9029409   2.1781111  11.9799395  28.7052631  18.4777260
  11.0853882  28.5703812  18.1649704  11.8944407  28.7658501  19.4291725
  64.2639999  57.4585686   1.7140590  64.3716583  58.0089188   0.9383287
  63.4653664  57.7838364   2.1295323  67.0062027  38.3541832  27.7343597
  67.0745087  37.7172737  28.4456348  67.7736130  38.1858253  27.1875820
  49.7113266  36.2141533  58.4531212  48.8896332  36.5531731  58.8082504
  49.5236511  36.0513535  57.5287247  25.7724972  20.6490669   2.1076958
  26.2503929  19.8674927   1.8302311  25.4264812  20.4242134   2.9713769
   0.7776601  34.3342972  57.6926956   0.8489470  34.0614357  58.6074066
   1.2216634  33.6431961  57.2012978  49.4849319  41.6635704  12.0023956
  49.2269325  40.9977913  12.6398973  48.7616768  42.2905731  12.0048809
  22.2407169  30.2235184  85.2543945  21.3938980  29.7790356  85.2148438
  22.6677971  29.9992104  84.4276428  21.1450996   8.4616528  49.0547256
  20.8097153   9.3483810  48.9225807  21.7253628   8.3113632  48.3084412
  74.0032501  38.8990593  69.9791870  74.7215652  38.5092468  69.4808807
  73.2122879  38.6166382  69.5200043  54.9599380   0.2056660   7.1744270
  55.7219772  -0.0073540   6.6357732  55.1817894   1.0423670   7.5830154
  80.4101410  33.3821335  22.6712570  81.0024567  32.8072357  22.1865959
  80.9052658  33.6338234  23.4508324  38.4262924  58.6308784  12.1149082
  39.3823395  58.5892792  12.0930786  38.1797485  58.0843582  12.8610725
  13.5305557  61.0871010  63.9691277  13.9299145  61.6579323  64.6255569
  13.3500051  60.2724495  64.4381409  75.1217117  58.6691132  43.8336258
  75.5587692  58.8990974  44.6535721  74.8870163  57.7469902  43.9377670
  55.3417854  25.2990723  13.6634216  55.4362335  25.7129173  14.5213518
  55.5620880  24.3800278  13.8152695  47.1595268   7.9547858  86.1988525
  47.8134537   7.2557945  86.2035294  47.4432297   8.5528097  86.8903122
  70.0074615  69.4816437  79.9567719  69.5809937  69.1708527  79.1581726
  69.8712082  70.4290619  79.9479065  83.9446716  35.3272858  13.8597317
  83.8432617  35.2175980  14.8052034  84.5379105  36.0727844  13.7673674
   1.1521642   9.6858873  33.2594223   0.6420448   8.9159698  33.5108948
   0.6475242  10.4272804  33.5939484  43.5786743  51.1129150  83.2326813
  43.1364517  51.0267448  84.0772171  44.1980476  51.8317223  83.3588791
  77.6614456  50.4106064  11.4616051  78.1518631  49.6008148  11.3203173
  76.9145432  50.1475677  11.9993610  81.1153183  37.8060913  17.1631947
  81.5768814  37.8915749  17.9973888  81.7302551  38.1461792  16.5132599
  57.1620750  54.7006874  25.5032730  56.6897583  55.3208160  24.9477615
  58.0854797  54.9141388  25.3691387  83.9101028  31.3867035  30.4677181
  83.4436951  32.1846428  30.2187462  83.3058548  30.9284229  31.0517502
  53.8769951  61.6388702  18.9169712  54.0044632  60.7089539  18.7292442
  53.3847809  61.6522331  19.7378120  55.3390007  48.3827515  16.7449036
  54.8401680  47.6840858  17.1683044  56.2201500  48.0220604  16.6463757
  53.6858902  30.6373863  22.9732742  53.7524681  31.3794117  23.5742702
  54.0486374  30.9630680  22.1495152   2.2858238  66.2373428   4.0299888
   2.4424915  65.7271423   3.2353923   3.0034232  65.9953156   4.6154008
  36.3041191  13.3384056  13.4022026  37.0126305  13.7824907  13.8680696
  35.5722656  13.9544268  13.4359074  73.6034012  21.3978138  39.7685356
  73.3761902  20.7546692  40.4400826  73.6191711  22.2342987  40.2335892
  70.8681412   4.4168997  15.3078594  70.4524384   4.8493767  16.0537758
  70.2147903   3.7883303  15.0008345  54.0545082  60.8939934  35.5020790
  53.5764771  60.4186668  36.1816254  53.8952789  60.3929176  34.7022057
  48.2771797  69.3590698  22.3352032  48.8279495  69.0615005  21.6110897
  47.6412582  68.6542130  22.4577713  23.6021366  62.3306160  79.2600784
  22.7740326  62.3496933  79.7397766  24.2034817  61.8620071  79.8388824
  30.8264618   1.2061733  77.0269928  30.5595131   0.3672101  77.4026413
  31.7829075   1.1699792  77.0155334  31.3123436   6.5697808   4.8861203
  31.1453667   7.4851437   5.1107554  31.0212650   6.0778093   5.6538887
  26.7808876  25.2959061  20.2524738  27.1099777  24.4932842  19.8478394
  25.8327122  25.1716518  20.2943745   1.1908104  18.4791374  23.3293896
   0.8829428  19.1614933  23.9259148   1.7569587  18.9399014  22.7101936
   0.8848656   4.6946397  28.4894257   1.2616953   3.8178220  28.5630627
  -0.0130976   4.5967908  28.8061600  79.1155090  33.4993706  41.7762489
  79.3800430  34.2908821  42.2450371  79.5693665  32.7892418  42.2300797
  28.4378738  47.5872002  59.8114204  27.6576653  47.0524445  59.9581909
  28.8265533  47.6873436  60.6804008   5.8596029  69.9366455  83.5706711
   6.3665214  70.1514664  82.7876511   6.3963842  69.2941818  84.0347137
  65.1487732  44.0221901  85.1285553  64.2915726  43.7217941  84.8265457
  65.7751007  43.4781189  84.6511307  -0.1508808  18.7733574  42.1277504
   0.2700054  18.8423252  41.2708206   0.4538713  19.2102089  42.7274742
  11.9125051   5.7216206  61.3066254  12.5392570   5.0787058  60.9748497
  12.3841343   6.1786213  62.0030098  60.3911324  43.1303291  43.7232208
  59.5674019  43.1900139  43.2393456  60.1908340  42.5635147  44.4680901
  45.8815079  23.7337856  25.8904285  45.7551727  24.3413448  26.6192245
  46.8304825  23.6975403  25.7705708  23.5313587  23.4742012  48.1607246
  24.2382355  23.3365631  48.7912903  22.8389969  22.8764668  48.4428253
   3.4628463   8.7848177  33.9928169   2.8607864   8.2078514  34.4627800
   2.9005127   9.2922411  33.4075508   4.6734190  17.6547565  21.9715786
   3.8758130  17.1266460  21.9375706   4.3785968  18.5148773  22.2707462
   9.3243628  67.3152542  30.0076370   9.3215342  66.9195328  30.8792057
  10.2493086  67.4751892  29.8202095  84.7547226   4.8293538  53.1785889
  84.2076492   4.7571630  52.3964577  84.1622543   4.6328244  53.9042587
  14.3502350  12.0295448  86.3463135  14.1981688  12.4920130  87.1704712
  15.1979618  12.3540077  86.0424805  29.5130978  55.0504303  28.1703892
  30.4223347  54.8321648  28.3750362  29.0830479  55.1092224  29.0235195
  57.3034019  60.5223732  11.2532339  56.6344833  60.9359436  11.7988873
  57.6996536  59.8607979  11.8202744  40.5849876  41.8143730  80.7332077
  40.5496292  42.7698135  80.7791977  39.7677002  41.5246582  81.1385956
  60.1393471  34.9844055  88.3814011  59.9791603  34.5119247  89.1983109
  61.0806427  35.1581078  88.3857956  54.2544060  16.6332493  44.7751312
  54.0619392  16.4896412  45.7017212  53.4958649  16.2745018  44.3145447
   2.7379119  25.9334278  39.1048317   2.4203050  25.6493092  38.2477226
   1.9835700  26.3612309  39.5100288  18.0913372  32.5673027  16.2902756
  18.4258289  33.1061897  17.0071774  17.5525646  31.9035301  16.7208118
  48.8267593  66.7661514   8.2593517  49.0796700  67.5591049   8.7320986
  48.3608665  67.0861740   7.4868484   7.3561783  53.8161278  80.7902679
   8.2513990  54.0043793  81.0719986   7.4564619  53.1765060  80.0852432
  73.3794861  23.2798157  45.2033958  74.0622559  22.9266090  44.6330338
  72.5891953  22.7993031  44.9568710  52.7663040  63.8071976  58.3291512
  52.8424225  63.7549629  59.2818909  53.2337265  63.0357246  58.0088768
  38.5158005  15.4037752  84.3049393  39.4120560  15.0684261  84.3272781
  37.9695206  14.6397228  84.4894180  36.6960831  11.5868120   2.3374882
  36.5288773  10.8574018   1.7406352  36.8657150  11.1706734   3.1826422
  72.4680405  13.5311289  55.1760178  72.5432587  13.5958071  56.1280632
  71.7650146  14.1399269  54.9493980  33.3577423  53.3735352  67.3248749
  32.6473351  52.7691498  67.5399780  33.5817757  53.1666069  66.4175568
  26.0177765  62.2725143   4.3371897  26.9497910  62.0758324   4.2428627
  25.5935421  61.4148865   4.3642006  57.6656837  24.7460461  33.5666962
  58.5252876  24.7454662  33.9877815  57.7360191  24.0852566  32.8777504
  48.6765213  60.7920876   6.6789422  47.9245224  60.8988800   6.0964274
  48.5000572  61.3853722   7.4090848  70.9313660  21.4625702  80.5723419
  70.3967209  21.5313168  81.3633270  71.5877762  22.1528988  80.6661835
  25.6271935  35.4567375  80.9956894  25.0917950  35.7728996  81.7234344
  25.7032375  36.2096329  80.4095154  78.4528732  11.2236462  78.7068405
  78.3900757  12.1492920  78.4713211  78.4359512  11.2183256  79.6638718
  28.1893730  17.2761097  21.1386948  28.8585682  17.7746334  21.6076145
  27.6307144  16.9175072  21.8282871  61.0268669  36.9173584  39.5399742
  60.4388008  36.2049408  39.7907295  61.9037514  36.5792923  39.7216797
  16.0441647  20.2931252  88.6340027  15.3039684  19.8078613  88.9985046
  15.7050714  20.6745243  87.8241959  22.8454304  37.2122078  16.4268970
  22.5154037  37.8580933  15.8022757  23.3160286  36.5764275  15.8878689
  81.8453979  66.0720215  32.8531380  81.9326935  67.0186920  32.9645805
  81.3338928  65.7878418  33.6106567  46.1936302   0.9075845  82.1468048
  47.0664825   0.5147225  82.1421280  45.7379761   0.4874750  81.4173431
  80.9375534  64.1441040  65.4835434  81.3900452  64.2980347  66.3128738
  81.1663971  63.2447014  65.2491760  43.2367020  20.1392403  17.7896385
  43.9580803  20.7683659  17.7965679  42.4580460  20.6656685  17.9707470
  72.0276108  30.6178093  76.4556732  72.2165527  31.5135136  76.7353973
  71.1016159  30.4923916  76.6631317  25.7328510  31.9380493  19.8220310
  25.2067890  31.1926460  20.1116219  26.6379375  31.6351528  19.8948612
  54.1473312  12.5970440  14.8695545  54.4465714  12.0643768  14.1327009
  54.6434402  12.2687855  15.6194572  84.1770782  71.5863266  46.3683815
  83.2812576  71.9070206  46.2640495  84.1029053  70.6359711  46.2814522
  60.0379906  68.2652359  22.8192749  59.7487640  68.4348831  21.9227257
  59.3478508  67.7180099  23.1940842  12.1642179  43.0234413  10.5489521
  12.2301092  42.7023048   9.6496401  12.0999537  42.2310829  11.0821180
  78.4403687  38.7213402  20.1217289  78.1291656  38.2985268  20.9221115
  78.7148666  39.5941124  20.4030724  85.0239868  13.4122639  56.4749985
  84.1483459  13.1737776  56.7793198  85.1091080  12.9779825  55.6262436
  48.1842117  44.3489494  22.0514107  48.0003662  44.5015755  22.9783077
  48.0686188  45.2055092  21.6400986  63.3991508  71.1350937  18.1164742
  62.6598969  71.2753220  18.7081432  64.1190720  70.8734894  18.6904984
  39.8220367  57.8315315  25.3524094  39.0962791  58.2241402  24.8672619
  39.7382050  58.1863098  26.2374744  85.9686203  50.3091202  86.4923172
  85.8237457  49.6041222  87.1233673  85.5930405  51.0846214  86.9091721
  71.7103271  68.5731583  32.4900131  71.8783188  69.5149384  32.4575386
  71.9911575  68.3098526  33.3663902  83.3481140  11.5748377   8.7061472
  82.7808304  11.8893719   8.0022345  82.8505859  11.7406721   9.5068970
  62.5734253  68.8069611  73.3685989  61.9415436  68.1107483  73.5481644
  62.9848595  68.5500183  72.5434113  24.5090179   3.0839112  16.0303955
  24.1702805   2.4680674  16.6801834  25.3280907   3.4042699  16.4081821
  15.3810701  13.6039333  88.7747879  15.6453419  13.9281569  89.6357574
  14.8117542  14.2893887  88.4251328  83.7412567  60.3035393  51.4669151
  83.7885284  59.3480301  51.4352341  84.6259155  60.5945702  51.2457504
  56.6818695  69.8098679  29.8451614  55.9395370  69.4661713  30.3422031
  57.4333725  69.6948471  30.4267483  69.3313980  59.8643990  48.1218796
  69.4347076  60.5135803  48.8176689  70.2197342  59.5500374  47.9537773
  71.2645187  71.3643265  45.6374550  71.8735809  70.7853546  46.0957794
  70.6368790  70.7721252  45.2232132  59.0854836  15.0614395  21.5791416
  58.3691940  14.5083303  21.8909645  58.7248497  15.9480591  21.5881863
  45.4578934  57.6148262  29.7509556  45.7135048  58.3920670  30.2477398
  46.2864113  57.2305717  29.4643536   8.1256685  70.2608871  60.4038544
   7.7223754  69.6736679  59.7645111   8.9861584  70.4612961  60.0355835
  53.0371132   4.0108514  15.1156950  53.4314003   4.5938106  15.7644863
  53.7159004   3.8992491  14.4500933  28.5940113  65.3081207  51.9065208
  28.8873997  66.2188492  51.9335670  28.4216671  65.1394196  50.9802017
  78.5887070  24.3214970  79.1501923  78.4825211  23.6071301  79.7783890
  78.5045471  23.9019718  78.2939529  38.9269142  37.3400993  26.0777855
  39.6116943  37.8222198  25.6142464  38.6274300  36.6844292  25.4479942
  15.9397802  53.7592850  16.2741451  15.2270451  53.4387512  16.8268642
  16.7115097  53.2808304  16.5770416  29.1562958  21.3055801  74.4418488
  28.6121197  20.6926117  73.9475021  28.5635757  22.0216751  74.6701508
  82.6362610  55.9888153  28.8533211  81.9497986  56.5151634  28.4434929
  82.7640762  55.2533875  28.2541199  34.7216301  40.6254005  42.1914787
  34.2139130  40.0359802  42.7491913  35.2392426  40.0427094  41.6357994
  62.3590698  60.6919518  15.5329494  61.4361534  60.8817825  15.7015362
  62.3443489  59.9983788  14.8734226  71.1707840  19.5098190  43.5654907
  71.4487534  20.3808994  43.8486633  70.2514114  19.4552364  43.8262634
  41.8084755  16.3295345  27.9676933  42.1152458  16.2172527  28.8674240
  42.4747658  15.8990631  27.4319839  63.1510963  68.4318008  47.1896629
  62.6138992  69.0769348  46.7298279  62.5184975  67.8425903  47.6006241
   0.9031460  34.3124962   7.6287832   1.7588546  33.9216766   7.8055739
   1.0057708  35.2330399   7.8702435   3.9602983  15.4658203  39.1675110
   4.2174840  14.7287436  38.6136093   3.7558918  15.0691652  40.0143356
  77.0830994  46.8756485  44.7036133  77.0910034  46.4367332  45.5542145
  77.6737595  46.3545685  44.1597137  22.7891407  71.1498642  80.6939545
  22.8194008  72.0469818  80.3615417  22.8772449  70.6022720  79.9138260
  70.6663666   2.2368436  70.3982849  70.8866577   1.3095195  70.3101120
  69.7109985   2.2622004  70.3448486  79.8827057  29.5844002  71.4243088
  80.7851334  29.2672482  71.3885651  79.7094727  29.9137611  70.5424118
  41.5643768   9.6760836  59.4923134  41.8672104  10.5253506  59.1709557
  42.1914940   9.4413338  60.1763077  73.1273041  60.3809700  36.3148155
  73.7508163  61.0797844  36.5125961  72.2733765  60.7518616  36.5372505
  72.1036682  49.3133698  33.9021835  71.7597809  48.7714081  33.1920776
  71.6414490  50.1467934  33.8127975  33.9186211   7.2164845  24.9655380
  34.8400192   7.2735057  24.7125416  33.4376221   7.4626122  24.1754150
  47.0271873  33.7227402  80.6954346  47.8226166  33.2414970  80.4675598
  46.9903870  33.6857300  81.6512070  61.4974976  17.0791092  76.3995667
  60.8294106  17.1249199  75.7156143  62.2822876  17.4463482  75.9927750
  49.5525551  31.0226593  13.8385992  48.9146423  30.3096371  13.8086166
  49.9247589  30.9741669  14.7191362  79.0460358  48.9793549  64.3619080
  79.2015381  49.8424644  64.7454300  79.1126785  48.3736954  65.1001282
  85.3389206  30.0163536  28.7841034  85.5167694  30.6991329  28.1372566
  84.6720123  30.3961983  29.3561077  38.1804733  41.0024681   4.4000387
  37.6407967  41.0942879   3.6148319  37.5501633  40.9304276   5.1168041
  23.3942337  11.1907206  11.2408733  22.9314899  11.9034185  10.8002357
  23.6868649  10.6198225  10.5304689  52.5080566  53.0891075  85.2468872
  52.3556442  53.9721832  84.9104691  52.2108040  52.5106316  84.5445862
   4.6647635  62.2776604  34.9546852   4.3492241  61.5456657  35.4846382
   4.9642649  61.8725204  34.1408081  54.8940773  21.0179749  60.2861977
  55.1246948  21.2812729  61.1771088  55.0729980  21.7928867  59.7535324
  70.6328125  38.5141335  64.3296127  70.6987610  37.5595436  64.3549118
  71.4084473  38.7950249  63.8441048   6.4755020  19.3227634  55.1671066
   6.4553642  18.3662567  55.1367683   6.4201941  19.5340538  56.0990562
  34.3697205  62.1673546  71.7592163  34.9797592  62.5251732  71.1141968
  33.5700607  61.9943542  71.2623825  85.8479309  54.5944557   2.6659460
  86.6663589  54.7946663   2.2117281  85.3892441  55.4332275   2.7139225
  10.1439123  59.8147697  74.7155457  10.8367043  60.3433380  75.1116409
   9.3506775  60.0662308  75.1885986  33.7440796  55.5423393  68.9773026
  33.5125694  54.8800430  68.3261566  34.6992531  55.5053711  69.0273895
  74.3582993  51.6211395  75.6221924  74.6454239  52.3963394  76.1047440
  73.5127411  51.8706665  75.2493591   4.2430863  47.9237022  36.2761497
   3.9342036  48.2173996  37.1332169   5.1258206  48.2864494  36.2024841
  18.6680202  11.1666689  44.7215195  19.4595795  11.6834650  44.8718147
  18.5715160  10.6400967  45.5150185  16.4653320  25.9675083   7.9487619
  17.3572521  25.8014946   8.2539701  16.5764103  26.3276005   7.0688596
  75.7966385  42.3184624  43.6293259  75.4841232  41.7708359  42.9091377
  76.2133408  43.0651169  43.1990929  64.0490112  12.6792545  75.5884476
  64.2478561  12.9411459  74.6894989  64.3206940  13.4265795  76.1212921
  33.9850960   2.8358355  44.7763710  33.9093666   1.9196708  45.0430908
  33.9352112   3.3286514  45.5954399  71.3261337  25.9998379  88.8324966
  71.0297394  25.2976589  88.2534180  70.6789780  26.6954556  88.7161407
  59.9191170  45.7043724  41.2874336  60.0759811  45.7358589  40.3437004
  59.7356377  44.7826576  41.4691162  75.7089767  55.7136459  31.4473095
  75.1950226  55.5148659  32.2299805  75.6959610  56.6689453  31.3884659
  14.6611166  58.6731796  54.4641266  14.5091877  58.5149689  53.5323982
  13.9131184  59.2016525  54.7424202  16.9636536  39.3750114  71.7471542
  17.2529736  40.2553177  71.5071793  17.4866238  38.7925301  71.1962967
  22.5866241  31.4136677   6.3933821  23.2092419  32.0090714   6.8106031
  21.7489014  31.8747959   6.4359546  25.6780815  43.6864395  70.8728333
  24.9096756  43.3902855  70.3849030  26.0541534  44.3792915  70.3299103
  51.0762024  17.6570587  67.7063370  51.8546944  18.2060604  67.6126099
  51.2769356  16.8687115  67.2019043  53.6614761  27.7442741  55.0154533
  53.1051178  28.4665756  55.3069572  53.5728226  27.7432308  54.0623665
  34.0670166  12.4786453  20.9710045  33.2538109  12.4788170  21.4759121
  34.5264015  11.6891232  21.2570992  10.1411152  22.9988384  26.8776932
   9.4982719  23.6350098  27.1911755  10.2521448  22.3905888  27.6084042
  57.1220779   6.8872781  53.8664894  57.8933525   7.3185463  53.4985580
  57.3493271   5.9574947  53.8761253  61.0066376  54.9441872  59.7042656
  60.3852425  54.6243134  59.0502205  61.5823708  55.5350456  59.2188301
  46.6845627  70.8737411  72.2301483  46.2797356  70.8064651  73.0949173
  46.3126717  70.1443863  71.7341995   6.1800475  52.8029747  85.4062653
   6.7139020  53.1151886  86.1368484   6.1172566  51.8575821  85.5423508
  13.3454494   6.0352340  16.3721981  14.1326723   5.5861387  16.0642624
  13.3752747   6.8911428  15.9446907  71.5861664  37.6768265  17.0478363
  71.4285660  38.6200943  17.0883541  71.5053558  37.4601746  16.1189861
  60.9723396  13.7621746  20.0608006  60.3015404  14.1330967  20.6341019
  60.4805336  13.3688726  19.3399181  55.7967186  15.6459751  34.5025406
  55.9766121  15.8878632  35.4110336  55.6916924  16.4820061  34.0483894
  49.2847404  15.3871889  78.3851547  49.6214409  16.2659550  78.2101288
  49.8627090  15.0401945  79.0646973  76.4853821  43.9025154  40.8700523
  77.4274673  44.0718117  40.8770447  76.0927353  44.7430496  40.6343422
   0.3364991  49.6234856  59.3989830  -0.2037004  48.9475288  58.9897156
  -0.0465358  49.7425499  60.2680855  60.5007286  55.3050690  79.1817322
  60.7467613  56.2200508  79.3177872  61.1488113  54.8062744  79.6791458
  78.2398071  64.6463013  65.9779892  79.0407486  64.8689499  65.5034790
  78.5336838  64.4597473  66.8696518  73.7039261  19.9479179  46.1256180
  74.4007645  20.4819641  45.7442513  73.7978439  19.0942440  45.7029457
  85.0006409   9.2353716  79.3877411  84.9420700  10.1071043  78.9967346
  85.8160706   9.2518950  79.8887711  67.1828079  19.6042538  67.7055817
  68.0490265  19.4600811  68.0865173  67.3444138  19.6807976  66.7652359
   1.5857296  25.9135685  33.9096870   2.4889212  25.8594131  34.2220078
   1.2317110  26.6946812  34.3348541   3.2327192  69.6493912  67.6579590
   3.1925347  70.3519440  68.3068314   2.9065790  68.8773499  68.1203537
  29.7814789   1.7662487  53.8830910  29.0540390   1.8650515  53.2688446
  30.5655575   1.8246980  53.3371620  30.7238293  23.1357460  78.9223709
  30.0553017  22.9694920  78.2577896  30.4071789  23.9067707  79.3929901
  13.3982744  68.8120728  60.5519295  13.3068113  68.4777374  61.4441681
  13.4389963  68.0274658  60.0051498  47.5340385   9.7218151  28.9920368
  47.7728386   9.8427477  29.9110489  46.5832787   9.8313789  28.9752045
  50.7363739  11.6579895  54.0843506  51.3880768  12.2566719  54.4491692
  51.1831474  10.8123407  54.0455666  44.2853622  39.2397156  88.7370987
  43.7941551  39.9682350  88.3573532  43.9210396  39.1376915  89.6163483
  73.3152618   3.9069777  16.6318607  72.5851364   3.6524191  16.0676327
  73.3884048   4.8543353  16.5161228  37.7909584  61.7769012   5.7291098
  37.6801262  61.7790833   6.6798692  38.5423546  61.2037849   5.5768824
  84.7133636  68.9235611  29.0671062  84.1550980  68.9244766  28.2895660
  84.3900528  69.6536789  29.5949574  25.2710018  49.4719353  68.9922638
  25.1397095  48.5832443  68.6617737  24.9311085  50.0378838  68.2991486
  54.0542297  68.1583023  37.3398590  53.1466255  68.0000229  37.5995407
  54.0862312  69.0936279  37.1389275  53.6362076  28.0873432  67.6531601
  54.4359665  28.5937271  67.5110626  53.6721077  27.3932266  66.9950180
  85.6520309  58.1655807  74.8649521  86.3106155  58.5544472  75.4405289
  85.6346207  58.7393112  74.0989456  57.1193733   1.6531732  50.2440414
  57.2442474   0.9986916  50.9312744  58.0065308   1.9208208  50.0041351
   5.8059378  37.4726524  72.6165924   6.5785499  36.9076195  72.6228714
   6.1048331  38.2825050  72.2030411  63.0311966  32.6493301  11.9153509
  62.4245987  32.2183266  11.3132668  62.5603180  32.6806297  12.7481327
  53.3602715  51.3968201  79.1056442  52.7697372  51.9606705  79.6052170
  53.7080307  51.9641037  78.4175415  68.8434753  48.3255005  72.4797134
  68.0194092  48.6070976  72.8770294  69.5211639  48.7142639  73.0327301
  17.7917538  23.7727871  13.2290993  18.1539249  24.1053371  14.0503626
  18.2319202  22.9333210  13.0957546   8.1936388  29.3815155  39.0228424
   7.7937422  30.0701180  38.4916725   8.6805830  28.8473282  38.3953400
  66.8922424  11.6168098  24.0996513  66.0980453  11.2253656  23.7359753
  66.6918945  11.7479382  25.0264206  83.0513077  71.0466003  60.4692650
  82.5243301  71.4629593  61.1513023  83.9453278  71.3402100  60.6446495
  59.0373650  44.4215431  68.7895050  59.8358040  44.0044136  69.1131287
  58.8377419  43.9580269  67.9761581  33.5373955  57.4663277  29.6201935
  32.7259789  57.6852837  30.0783367  34.0620842  57.0008278  30.2715302
  18.8778000  16.7402153   8.8833876  19.0022621  17.5917454   8.4643002
  18.0766048  16.8410358   9.3973465   7.0934682  42.7129860   5.5343556
   7.6119061  42.0291634   5.1102791   6.3050704  42.7842522   4.9962273
  24.4832497  57.8371925  16.6303616  24.1429291  56.9684181  16.8440189
  25.3901863  57.6810608  16.3670712  59.1574593  33.0902100  26.0153637
  59.9195633  33.4833107  26.4406910  59.5103378  32.6734772  25.2292080
  23.9604416  58.3454514  52.3303871  24.6068726  57.7246590  52.6665039
  24.4779091  59.0969696  52.0411110  71.5503311  13.6491013  46.7091827
  71.9280930  13.1102152  47.4042625  71.0121613  13.0420303  46.2011757
  73.3836288  45.4945641  34.6333275  72.4552841  45.2722435  34.5626717
  73.5492325  46.0712852  33.8875427  56.8772545   8.8865623  44.3673248
  56.0534515   9.0104513  43.8959045  57.5446472   9.2431240  43.7810822
  40.4762306  51.1872978  60.3269539  40.2712936  50.3112526  60.6537170
  39.7953339  51.3663979  59.6784630  76.0015030  70.3655319  30.7096825
  75.0640106  70.1921692  30.7950668  76.0826797  70.8420792  29.8835182
  41.0092545  61.0384026  15.4481554  41.6461220  61.3489380  16.0917397
  40.1676254  61.0865059  15.9015646  66.0349960  49.4207878  62.2686501
  66.4202271  50.0957603  62.8274422  66.5275955  49.4777985  61.4499130
  41.3960495  65.6164703  11.2977200  41.0488396  65.6441727  12.1892967
  40.7579994  65.0973129  10.8082333  67.3455353   3.4882922  29.9494629
  67.8587875   2.9548888  29.3425980  66.7791748   4.0148816  29.3853970
  13.5347261  49.5011215  34.7742348  13.9343948  49.5314941  33.9049950
  12.6262989  49.7658005  34.6295433  16.2264671  56.5415764  16.7585278
  16.1084576  55.6084175  16.5809975  16.9173279  56.8147240  16.1549244
  79.0119858  41.9995117   3.7673078  79.2097321  41.1791801   4.2191730
  78.5833435  41.7284851   2.9554932  62.2938004   2.1951530  41.2086067
  62.0882454   1.2975454  40.9473038  62.4651031   2.1376948  42.1486015
  37.3372765  13.1333647  27.1995792  37.0466843  12.5246811  27.8787651
  38.2443695  12.8823652  27.0251865  83.8988495  24.9443226  79.6088486
  83.0427246  24.5744972  79.3931580  83.7504807  25.4369335  80.4160385
  15.6479254   7.6270151  30.1486416  15.4677677   7.9766603  29.2759876
  16.4775505   8.0315790  30.4021797  26.8378391  10.3443871  48.1404610
  27.3649311   9.8299990  48.7518616  26.2962151   9.6975718  47.6882401
  80.5308228  21.1964016   9.3630314  80.0214157  20.7637463  10.0482626
  80.6291733  22.0975151   9.6705313   5.8897395   2.2436056  80.6447906
   5.5800285   2.7828856  79.9171371   5.1341300   2.1713948  81.2279510
   2.6508429  39.5944939  67.8606415   2.9579005  39.1472664  67.0720139
   2.1084137  40.3120041  67.5332565  53.4050064  15.9835911  22.5899887
  52.5093575  16.3060322  22.4896374  53.9559479  16.7381973  22.3819828
  10.0350657  52.7176285  78.3268204   9.1014442  52.6096992  78.1453400
  10.1048346  53.5913048  78.7115936  83.9398270  35.8002396  38.5767250
  84.8251114  35.8272057  38.9397507  83.8043976  34.8817711  38.3436890
  65.6872025  31.2337036  86.7973328  65.6500931  32.1517258  86.5288467
  64.7748260  30.9443817  86.7880936  13.9639778  50.1202621  50.2122803
  13.3988438  49.4972534  50.6691360  13.6502590  50.9795380  50.4941711
  34.2821808  44.8058014   9.1513214  33.8172493  43.9842033   8.9930639
  34.8681679  44.6122971   9.8830395  73.1160965   1.0659360  65.1438065
  73.2081985   2.0174758  65.0956345  72.1842194   0.9236055  65.3098679
  54.8199768  56.3978882  36.1910553  54.4647141  56.8449974  36.9592400
  54.2623558  55.6274033  36.0831718  47.7413025  46.9681358  22.6923599
  48.4825134  47.1760979  23.2612076  47.3075676  47.8089714  22.5470943
  77.4446869  24.2515831  51.4826660  77.4239883  25.0466347  52.0152969
  77.1569748  23.5580215  52.0763245  30.9302044  65.0629883  61.2395325
  31.4154358  65.1290512  62.0619774  31.4687462  64.4948654  60.6886826
  21.6038837  13.3489847   4.7067156  21.6513329  14.2866573   4.5203018
  22.4998798  13.0349531   4.5850291  75.7300262  42.0549126  63.0505791
  75.5479050  42.0575333  62.1108704  75.1867599  42.7604141  63.4018059
   7.5488529  32.9833031  19.2597637   7.0086722  33.7734222  19.2475853
   8.4036617  33.2823296  19.5697899  79.5583878  41.5158119  43.8791962
  79.5201950  40.5795174  44.0744476  79.6998596  41.5576706  42.9334335
  38.9787102  14.1386175  20.9508667  39.8799248  14.4093695  20.7755470
  38.5799026  14.8963432  21.3786907  34.8279381  21.3263474  35.8253174
  34.9450684  21.1400833  36.7568817  34.1633072  22.0147362  35.8004227
  82.7287827  36.3546028  86.1832886  83.3672714  36.2400322  85.4794159
  82.7987595  37.2789040  86.4220352  20.8222008   0.8651097  78.7148743
  21.5239525   1.4545350  78.9912033  21.2701797   0.0517695  78.4824448
  36.4913597  59.7447586  76.8102493  36.2124710  59.0597267  77.4178543
  36.8632355  60.4254913  77.3710938   6.2518916  39.9746323  36.9232330
   6.3726530  39.6427574  37.8129005   5.3026958  39.9923134  36.8009796
  25.1122227   2.0554700  50.7927399  25.5548344   1.5195976  51.4508934
  25.8227310   2.4359035  50.2763290  56.1010551  70.7156982  23.4727268
  56.0862160  69.7820358  23.2623005  56.1722832  71.1515121  22.6234798
  67.9686050  56.1545067  36.3071632  67.2457886  56.7199059  36.0349617
  68.6644135  56.7608032  36.5611038  21.1167908  65.8646622  46.6061935
  21.5676746  65.0956497  46.2575493  21.7829418  66.5520172  46.6091423
  23.7959480  62.4245224  74.9874420  23.7855339  61.6954460  75.6075821
  23.5145187  63.1808548  75.5022202  19.4423618  32.1709824   9.8805113
  20.2915058  31.9934158  10.2850571  19.6463737  32.3437195   8.9613972
  25.1425972  35.1309814   1.7505187  25.0504780  35.5562706   2.6030869
  25.7902489  35.6617851   1.2868079  71.9483566  39.6972084  12.2390356
  71.8002548  39.0580025  11.5421038  71.7359161  39.2264252  13.0449276
   7.7376513  10.9709339  39.8055840   7.7960854  10.2388554  39.1916771
   7.3816056  10.5846767  40.6057510  50.8059196  31.3712196  81.8018036
  51.4312057  31.8771267  82.3207550  50.6747475  30.5662346  82.3028259
  21.7555714  32.5550957  18.9235287  20.8086491  32.6935883  18.9432602
  21.8696518  31.6420994  19.1874599  17.2125778  70.0972214   3.0612249
  17.4695473  69.1757355   3.0938148  16.8110161  70.2641907   3.9139271
  49.6580925  58.6101189  16.3073330  48.7548523  58.9242897  16.3483982
  49.9345779  58.7926636  15.4092999  64.6786194  12.2830610  15.7804270
  64.5784760  11.9012966  16.6524696  63.9448624  11.9287319  15.2781467
  11.4518871  50.8034058  76.8442154  11.0143261  51.2546158  77.5661469
  10.8443871  50.1075211  76.5933762  37.1208992  40.7196655  68.4523926
  37.9778099  40.9268494  68.8252258  37.0188522  41.3376694  67.7285919
  30.5481453  62.6544113  55.3506851  30.6075058  62.9757271  54.4509850
  30.9461498  63.3463821  55.8788910   8.0593014  38.4396133  85.4966736
   8.9260845  38.3484383  85.1009369   7.8510776  37.5637093  85.8217316
  65.4096146  50.8961906  10.7676315  65.9050217  51.2998619  11.4802685
  66.0098038  50.9078712  10.0220680  -0.0672716  19.5864429  74.6520462
   0.7236392  19.9888020  74.2931595  -0.0430021  18.6843243  74.3329468
  81.1951294  51.9383965  22.6322937  81.6920776  52.7278023  22.4175491
  80.3103714  52.2546730  22.8150749  51.1705818  11.8317385  30.7245731
  51.0434685  12.5921984  30.1573200  50.2848778  11.5691824  30.9752216
  23.3907661  40.5011864  24.3387051  22.6655025  41.0821228  24.1090660
  23.3074474  40.3762093  25.2840462  11.5658960  70.8323593  62.3111229
  12.5148039  70.9535522  62.3445702  11.2608175  71.4991531  61.6958618
  84.1386490  65.0788574  72.0269547  84.3901901  64.3412476  71.4711761
  83.6535797  65.6632385  71.4443359  83.0722427  27.0735435  45.1025963
  83.0512161  27.3308411  46.0243263  83.4190903  26.1814346  45.1108055
  26.9952393  26.0192852   9.3340197  27.5314751  25.5431118   9.9680071
  27.4213848  26.8725376   9.2528181  55.1882629  64.6703796  87.3814926
  55.4716797  65.3200226  88.0248108  55.8746834  64.6785965  86.7144165
  44.5933876  23.2749424  87.3006210  44.4966011  22.5723171  87.9434128
  45.5080833  23.2218056  87.0236053  18.1553154  36.1843452  21.5856781
  17.7080193  36.4063606  22.4022980  18.9959145  35.8209305  21.8641663
  85.0326843  49.4547119  65.8489151  85.7657776  48.9389496  65.5130539
  84.2533569  48.9896622  65.5446014  16.4485073   9.5747681   2.3507166
  16.2585392   8.6367598   2.3338535  15.9700184   9.9023933   3.1122563
  79.7169647  68.9972229   0.7490063  80.3998795  69.1751328   1.3957014
  78.8979111  69.0733948   1.2384673  52.1447563  39.4159050   4.6148863
  52.9520264  39.8521843   4.8873024  51.6829643  40.0713577   4.0920486
   7.4346957  21.6023788  37.9100876   8.0762587  20.9004669  38.0194016
   7.2368064  21.8870773  38.8022881  39.7466469  62.5912552  29.4288197
  39.5387459  62.4538460  28.5046291  39.0829964  62.0883713  29.9009495
  75.6267471  16.3587265  52.3283043  75.1633835  16.3893986  51.4912987
  75.5902252  17.2575722  52.6553726  27.6292038   9.2282400  72.7233887
  27.3771324   9.1330328  71.8048935  28.1989136   8.4782896  72.8943787
  53.4482727   7.4113507  10.8125296  52.7822876   6.8032684  10.4917040
  53.8774300   6.9411941  11.5273781  18.9795380  17.8221226  24.6968212
  18.2294979  18.0750065  24.1585617  19.1004753  18.5561905  25.2991085
  55.6450424  34.5144539   2.8985329  54.9846153  33.9169426   2.5477557
  55.2950935  34.7869797   3.7467644  55.9389076   4.4258599  16.1056061
  55.8055763   3.5041814  16.3268833  55.9264565   4.4466729  15.1487131
  78.3524704   7.5013604  62.5643959  77.9173584   6.7162995  62.2318497
  79.2355804   7.4593258  62.1975441  31.0742760  51.8146973   5.7243509
  30.5187206  51.0723648   5.4865890  30.5254650  52.3509827   6.2965727
  71.8695755  67.8123398  14.3331728  71.0976334  67.7297058  14.8930893
  71.5946884  68.4030151  13.6319113  62.3500710  70.9578857  45.5115051
  62.8809547  70.7923203  44.7324104  61.5875244  70.3888092  45.4071007
  83.4833755  27.5703392  60.3916245  84.4400177  27.6021271  60.3996201
  83.2257309  27.8947086  61.2545471  30.1160030  42.8140869  67.8809433
  30.9419041  42.3516006  67.7387238  29.6440964  42.2725296  68.5135956
  69.5749969  70.7374191  49.8773499  68.9959641  70.8980026  50.6224480
  70.0656891  71.5529099  49.7752342  59.0102272  37.0794754  48.0970955
  58.5002747  36.2698364  48.0713768  58.8209457  37.5083694  47.2625618
  82.7988968  48.0402679  64.8846970  82.4261856  47.8024902  64.0357056
  82.9638519  47.2023354  65.3170013   4.0193214  25.7681370  15.7163906
   4.6747699  25.1353493  16.0099869   4.3240108  26.6067963  16.0628681
  54.7989082  30.5825462  78.5416336  54.1830101  31.1120777  79.0480881
  54.3631592  30.4476299  77.7001114  65.5817490  25.6212006  32.1429024
  65.8059235  26.5511150  32.1780891  66.3418732  25.2068672  31.7345371
  57.8396721  20.9590111  61.3181190  58.0040359  21.8668518  61.5731506
  57.4363136  21.0227032  60.4523964  86.3702850  35.8480453  73.0816422
  87.2275467  35.8951569  73.5048676  86.5666428  35.8214684  72.1451721
  69.4961395   6.0678520  35.7409325  68.7529678   6.0464969  36.3438225
  69.7695007   6.9851241  35.7301216  17.4411068  52.2672157  55.8231049
  18.3016129  52.0725021  55.4518242  16.8229084  52.0318451  55.1312485
  69.7282028  41.9552689  85.6045609  69.4407806  42.7684059  86.0198059
  70.5736618  41.7646713  86.0108871  45.8278732  69.2025146   2.4072902
  46.1630554  70.0244980   2.7653639  46.5960922  68.6340942   2.3527548
  27.0312843  36.0709496   7.2819433  26.7865429  36.9300766   6.9380922
  26.6188011  36.0319443   8.1448269  72.6343613  35.1750107  50.9634590
  73.1286545  35.2302933  50.1456223  72.0206070  35.9083939  50.9224129
   8.4808550   3.4043691   0.5513096   8.8597307   3.8107629   1.3307514
   7.7673821   3.9902675   0.2985023  14.9528704  18.0287094  86.3034363
  15.5626068  17.3442383  86.0278397  15.0897865  18.1054344  87.2476807
  66.1067963  38.4715958  70.5294952  65.3116760  39.0026932  70.4853592
  66.7603760  39.0509720  70.9211426  66.7675247  15.9613562  12.4789248
  66.7388916  15.1859970  13.0394869  66.1469116  16.5698605  12.8799114
  60.2085190  34.7965202  69.7386856  59.6745911  35.3072128  69.1301270
  59.7040367  33.9966469  69.8867874  15.1260214  29.0368233  85.7868118
  14.8617105  28.1632671  85.4982529  14.3248415  29.4258137  86.1375732
  47.4370766  50.2577286  27.0029602  48.1015091  50.0647850  26.3414955
  47.4828491  51.2068024  27.1187000  60.8941612  32.1119194  35.2304802
  60.6664963  33.0292969  35.0794029  61.8226585  32.0552788  35.0048332
  70.0425110  53.4522552  45.3446198  69.1400986  53.3329239  45.6406670
  70.1610489  54.4015999  45.3142052  75.9263840   8.7326860  42.8703117
  76.8708496   8.6467533  43.0000648  75.7762451   9.6767797  42.8215675
   7.6895189  42.1654282   2.3115556   7.7319036  41.2778473   1.9556991
   6.8243513  42.4850616   2.0555263  16.0627766  13.9889956  32.9073524
  15.3436346  13.9599237  32.2763062  16.8174095  13.6493292  32.4263229
  17.6111717  42.3044891  75.6670227  18.3244877  42.9198036  75.4973068
  17.9740753  41.6860962  76.3011551  15.5827694  40.6708946   3.8898602
  16.5169086  40.8796577   3.8957524  15.5444574  39.7381706   4.1015086
  72.6228333  15.1075029  70.7725449  72.2843628  15.5056067  71.5745316
  73.5572128  14.9862108  70.9412308  30.7128372  27.2560482  88.5556946
  30.0411911  26.9817982  87.9312668  30.6694717  28.2122459  88.5495300
  11.0746670  33.5837212   9.7110605  10.8272972  33.0662460  10.4773903
  11.7730446  33.0777893   9.2956915   4.9234056  55.8737183  57.3157501
   4.0875077  55.5006638  57.5956421   5.5812106  55.3867226  57.8120995
  52.1454697  60.1488495  78.5369949  51.5490074  59.6382751  77.9894791
  52.8650322  60.3850174  77.9516068  86.6762619  66.5611649  44.7044334
  86.3834915  66.4876862  45.6127930  86.0238266  66.0729218  44.2022629
  47.1487007  60.7486191  53.4400330  47.2560844  60.3996391  54.3248596
  46.4802933  61.4278679  53.5299492  37.2206230  69.3466415  80.3206940
  37.9605331  68.9044266  80.7368774  36.9781761  68.7743225  79.5927505
  65.3675919  65.1965485  53.2965736  65.8409882  64.5274353  53.7909622
  65.6397934  66.0243759  53.6926003  37.0287704  40.0656891  38.3320236
  37.1892853  40.9697189  38.0614662  36.1390648  39.8801575  38.0316277
  47.9503670  45.0680923  24.8356590  48.5000343  45.6482582  25.3624458
  47.0589409  45.3845863  24.9820366  66.6240616  68.4985199  62.2493248
  67.1549454  67.7565002  61.9598465  66.9219513  68.6722641  63.1422424
  60.3024101  49.7655983  80.8981094  61.0535927  49.9315796  80.3285370
  60.1624298  48.8204384  80.8405685   7.3505421   1.2068546  83.8212509
   6.6197124   1.7426366  84.1295700   6.9661927   0.6390158  83.1533737
  19.0466557  59.4006004  62.7761230  19.3834152  59.8903389  62.0258026
  18.0994682  59.3756943  62.6403008  38.8052864   8.7416563  10.7465944
  39.2493401   9.4332447  11.2372627  39.4681473   8.4169302  10.1371651
  18.2106724  13.2066956  83.5294037  18.8456631  12.6908932  83.0324478
  18.2792606  14.0884171  83.1632156   0.7811463  28.3688164  34.8706589
   1.4699866  28.7807655  35.3922195   0.0241393  28.9451313  34.9756966
  69.2551651  70.0037460  35.6445236  69.3587112  69.0575867  35.7459564
  68.3088150  70.1452026  35.6699104  28.7868443   2.6584072  15.8506804
  29.2406406   1.9055380  16.2294788  28.9446220   2.5844676  14.9094734
  26.7884293  58.9845848  39.8607826  27.7282753  58.9589348  40.0404053
  26.6106415  59.9001427  39.6454201  63.4902306  36.2466125   9.2603636
  63.6670265  36.0200233  10.1733990  62.7825356  36.8895187   9.3058510
  11.0213156  54.1535950  16.7011032  10.5634747  53.7847137  15.9457617
  11.3715649  54.9866295  16.3854961  78.6121521  25.1291065  87.0737152
  78.2330017  24.3478279  87.4763031  78.8149948  24.8621197  86.1771622
  75.3807220  70.2294540  75.2962265  75.7664261  71.1020050  75.2180557
  76.0955048  69.6312332  75.0783920  64.7725677   1.4535215  85.6989212
  64.5594177   0.7478951  86.3095627  65.3729477   1.0529505  85.0701675
  22.5470600  39.6053886  15.0763893  22.1235313  40.3208847  15.5506477
  23.4123650  39.9467735  14.8506937  11.7845879  38.0181465  34.6286430
  11.6038160  37.1176300  34.8981361  12.1670160  38.4281387  35.4044533
  31.9395046  30.8010731  29.4510689  31.0809956  30.6097355  29.8286705
  32.0171509  30.1956940  28.7136955  12.7580347   5.5503712  42.6480751
  13.1292143   5.0604620  43.3818626  11.8287191   5.6340756  42.8616104
  11.1322374  64.2059250  26.3516445  11.3647642  65.0995789  26.6037483
  10.2812920  64.2920380  25.9218693   8.2262812   1.4773002  64.3821030
   8.6672878   1.6782622  63.5566597   8.9236536   1.4979233  65.0374527
  12.2936659  57.9071579  78.5323715  12.2340250  58.5914688  79.1989975
  13.2307987  57.8269005  78.3546829  78.6872330  30.0591354  82.8410568
  79.4423447  29.7048664  83.3106613  78.9566040  30.9413090  82.5852356
  35.1698608  51.1529884  71.7588120  34.3476677  50.8909798  72.1730270
  34.9236488  51.3850327  70.8633957  74.7396851  26.0406303  28.4258823
  75.2837982  25.3244610  28.7534046  74.4414597  26.4946194  29.2140388
  34.4755669  66.7215042  89.2366104  34.4215126  67.6630859  89.4001007
  35.2257309  66.6228943  88.6502991  85.5422363  12.0103197  25.4796047
  85.0861282  12.6553698  24.9391346  86.2479019  12.5039616  25.8974304
  62.0350151  30.6830788   2.7637670  62.9551086  30.4253235   2.7069826
  62.0048714  31.3046989   3.4910295   6.7156816  32.0065689  -0.1514657
   6.1753588  32.0403137   0.6379292   6.6940947  31.0872974  -0.4173703
   1.4422505  61.6437149  22.8087234   1.2724495  60.7484894  22.5155220
   2.3361018  61.8253441  22.5184269  66.2348480  12.7987232  83.3732452
  67.1132126  13.1328697  83.1914597  66.3287506  11.8467798  83.3383560
  40.3925056  45.0973473  28.4959068  40.2711678  45.2310791  29.4359207
  40.8983574  45.8576851  28.2091446  30.3982124  16.1752777   3.6442387
  30.0551777  16.7558365   4.3235850  31.3226337  16.4125233   3.5708060
  25.9215527  71.1152267  88.0467758  26.1525249  70.7438889  88.8982391
  26.2496052  72.0138321  88.0804291  54.6468658  39.4431419  41.8728905
  55.0061760  39.1525345  41.0346298  54.7345123  38.6826973  42.4475822
  83.1321640  45.1530418   0.3771969  82.2696152  44.7648125   0.5239176
  83.4710159  44.6991196  -0.3943987  65.2784805   1.3501813  60.8970604
  64.6239166   0.6642345  61.0284424  64.8119431   2.0388939  60.4235115
  36.2358475  14.5162191  55.1268730  36.0758476  13.6799994  55.5643311
  36.1574059  14.3172998  54.1938629  65.0112457  62.3193398  85.8452606
  65.9496841  62.2937279  86.0321198  64.8035049  63.2520599  85.7894974
   8.9366589  52.5123787  75.1214905   9.5494995  52.5078697  74.3862076
   8.0817194  52.3527794  74.7216949  81.4056320  66.4971466  48.0446663
  82.0063095  65.8207550  47.7317543  81.7834854  66.7876205  48.8747787
  81.6127853  37.7096252  69.4330368  82.0778351  38.4229813  69.8701630
  80.6882553  37.9469376  69.5048828  30.1246014  39.4707909  85.8580933
  30.2520123  40.2344513  86.4209671  30.1569672  39.8212776  84.9679565
  19.5788593   0.7667861  86.5374527  19.6960945   1.6490537  86.1851807
  18.7458706   0.8052711  87.0074310  37.0485992  69.1418457  73.9667664
  36.3626938  69.3805389  74.5903015  37.2804413  68.2424927  74.1984024
   5.8491559   5.2652640  58.1963806   6.7955356   5.1386766  58.2640038
   5.4831986   4.7068105  58.8822670  47.2019157  40.4183846  69.7736588
  47.3638115  39.5632095  69.3752899  48.0119209  40.9073639  69.6286545
  53.8011932   3.7894928  24.1164761  53.1112099   4.2170081  24.6238079
  53.3985977   2.9816704  23.7977715   8.7274227  51.8986282  60.1353378
   9.2282209  51.8221130  59.3231926   9.3342819  52.3058929  60.7534714
  78.7727661  25.4634571  58.1220856  79.3498840  24.9732399  57.5365448
  77.9919662  25.6391277  57.5969887  67.6706009  23.8801918  44.1745720
  68.1675644  24.6418209  43.8759384  68.3367462  23.2213326  44.3704872
  83.1922226   8.6347342  12.1340103  83.6287613   7.8719201  11.7548256
  82.8355103   9.1055527  11.3808041  79.5056839  43.0754013  53.8193359
  79.2712708  42.6650124  52.9869537  80.4511032  42.9449768  53.8928185
   4.1406779  68.3700790  46.7160263   4.2087169  69.0186462  47.4167175
   3.9741511  67.5438690  47.1697540  54.4975014  11.0406704  62.2707253
  54.3031654  11.1902781  63.1959724  55.4527054  10.9931431  62.2312546
  77.3603210  17.2843552  54.7795944  76.6306305  17.1986122  54.1660500
  78.0156174  17.7936916  54.3027382  51.7350197  63.4304237  10.6266222
  52.4442978  63.7019997  11.2092037  50.9677505  63.9054680  10.9457817
  15.2767925   3.8668303  84.8565445  14.9601145   4.7485013  85.0530243
  14.5353670   3.4350681  84.4321671  83.3215790  45.3172455  50.8232498
  82.4032211  45.5239220  50.9968147  83.2931137  44.5018501  50.3226929
  55.0299683  52.3035851   6.4225116  54.9829063  52.2640572   5.4672866
  54.5340347  51.5402718   6.7185392  83.7199326   9.7997637  51.7663116
  84.4658203  10.3780632  51.6067886  84.0803070   9.0822382  52.2873802
  62.7698593  24.3833427  88.5069427  63.3609047  25.1162682  88.6793137
  63.2945938  23.6041660  88.6907043  49.5995293  29.0331402  83.3346710
  49.2945061  28.5870342  84.1247253  49.2225380  28.5284653  82.6139679
  78.9417648  56.2378845  83.5232239  79.2500229  57.1381264  83.4193954
  79.3967743  55.7483826  82.8379593  30.6095181   0.8652959  42.9475632
  31.3641472   0.7124043  42.3788910  30.0767536   0.0753395  42.8561211
  20.9418182  59.9731369  78.5823441  20.7171955  59.1167412  78.9461746
  21.1897869  60.4988785  79.3428345  29.7128735  17.9295540  87.9307327
  29.5883636  17.5512028  88.8011169  29.8653965  17.1754017  87.3613205
  81.5731964  24.2100430  71.1647873  82.3173294  24.8024540  71.0573196
  81.8740692  23.3786068  70.7981491  71.8710022  16.6433048  64.3202515
  71.1252441  16.5256023  64.9086685  71.4796219  16.9058685  63.4871178
  81.9666748  55.1323738   3.3862960  82.0575714  55.0723953   4.3372812
  81.0263062  55.0463066   3.2296700  26.3252220  35.6806335   9.9613714
  25.9157295  36.0335770  10.7512951  26.1500149  34.7404175  10.0004082
  15.4964905  49.0853577  21.0432835  16.1282368  48.4841080  21.4377823
  15.5480833  49.8746109  21.5824051  25.8648090  46.2168312  88.7048416
  24.9616337  46.5098648  88.8258362  26.2065239  46.1206436  89.5937805
   1.7238314  50.7119331  30.6173782   0.8753485  50.4938164  30.2317162
   1.5976453  51.5811501  30.9978619  31.9797287   3.6154907  32.3163147
  31.7726784   2.9275725  32.9488754  32.9355087   3.6672015  32.3229675
  58.3805084  59.6012611  88.5670319  58.7884941  60.0597534  87.8324738
  58.4575615  58.6738281  88.3430557  68.1407547  34.4304504  22.3131390
  67.7698364  35.3110809  22.2570724  68.2283020  34.1490097  21.4024487
   2.3473301  29.0921421  30.5845032   1.4248891  29.3450394  30.6216087
   2.3597672  28.1858273  30.8921909  32.2953873  26.6865463  11.4192028
  32.8485603  25.9065914  11.3756418  32.8702354  27.4031982  11.1505213
  37.9087982  50.5021286  55.7101822  37.6938286  49.7796516  55.1202240
  38.6478004  50.9424019  55.2903366  12.7918148  23.4891624   0.6355844
  12.9423189  24.1755638   1.2855321  12.6913776  23.9603634  -0.1915267
  76.1693878   0.7681274  82.0727005  76.2537613   0.2309946  82.8604813
  77.0714111   0.9495636  81.8087769  74.3354340   2.6771557  12.1777306
  73.6258621   3.1790981  11.7767344  74.5512009   2.0071874  11.5290251
  72.7027054  65.2350311  13.6595268  72.8654709  66.1774063  13.6186304
  71.7541199  65.1601028  13.7634687   4.6484647  24.3326626  59.6523361
   5.2625680  23.6442108  59.3971024   4.3896747  24.7410965  58.8262367
  81.1688843  49.6538963  78.6536484  81.3837967  48.7211800  78.6445847
  81.7460175  50.0390816  77.9942703  73.6555405  27.1456356  15.8881998
  72.8960266  26.9761581  15.3308430  74.3424454  27.4192181  15.2802954
  65.8896179   8.1841011  17.7257175  66.6575394   7.7952952  18.1444817
  65.6252975   7.5420465  17.0668297  30.8101959  45.1037331  36.0396233
  31.5816822  45.6606369  35.9352112  31.0819302  44.4331093  36.6662445
   0.3708771  15.9888573  26.2957497   0.1214828  15.7641840  27.1921635
  -0.3809940  15.7259207  25.7649155  28.4568787  71.3501129  25.5592022
  28.9312801  70.5587997  25.8141499  29.1206322  72.0397644  25.5654202
  33.3088074  13.6659136  79.9032745  33.1722603  14.2201748  80.6716385
  32.6408920  12.9843321  79.9778595  49.2456703  47.3581581  74.7392883
  48.6773338  46.5949821  74.6354218  48.7287827  48.0894814  74.4013138
  52.7239609  39.7844162  29.0205345  53.3424110  39.6145096  29.7310867
  53.2575493  40.1699562  28.3256474  46.7839203  29.2617435  79.5531235
  46.9232750  30.1789360  79.3173981  46.5623322  28.8330002  78.7265015
  79.4353333  51.8646927   3.4868011  79.7796326  50.9755173   3.5708601
  78.6095352  51.8485069   3.9705644  33.9314651  12.1326475  75.6109924
  34.3158607  12.7746687  76.2078857  33.1245384  12.5451536  75.3028641
   5.8890748  43.8739586  16.7533302   6.3857274  43.3345947  16.1379795
   6.3005419  44.7366714  16.7018166  22.4271030  53.5928650  80.9839478
  22.8990726  54.4178925  80.8708038  22.6717949  53.0702667  80.2202454
  27.2011166   7.7621608  28.1626930  27.2559471   7.0702157  28.8218117
  26.3102322   7.6955175  27.8190136  57.4559746  47.8410454   2.3978493
  58.2368202  48.2554588   2.7649648  56.7867470  47.9503212   3.0734384
  13.2114029   9.2429295  37.7641296  13.7922964   8.5239344  37.5154533
  12.6662998   8.8799410  38.4622231  30.6708145  51.2938728  74.5352020
  29.7737827  51.0922432  74.2689133  31.0640812  50.4404602  74.7175674
  84.7547913  19.9765034  77.4805222  84.5940018  20.6882076  78.1000824
  85.5907211  20.1996708  77.0710678  41.4615059  14.8997440  20.3442421
  41.9320755  15.7327814  20.3151684  42.1273537  14.2414656  20.1453857
  54.9009972  52.6154327  45.3530960  55.0506897  53.4816437  44.9742851
  54.8882446  52.0239067  44.6006546  51.1548691  60.0602989  65.8417511
  51.3698425  59.1346130  65.9563370  50.8017235  60.1160393  64.9538193
  54.0705070  29.3081627  37.1159630  54.3258781  30.0645657  37.6440468
  54.8957024  28.9676552  36.7705078  81.9198303  33.7812271  69.0067749
  82.6777878  34.2506866  68.6584473  81.7678528  34.1755142  69.8656540
  40.2128716  64.2095795  73.9798050  40.5545425  63.3638763  73.6894913
  40.5930748  64.3358383  74.8491364  54.0928230  69.3684998   3.9684501
  53.3917160  68.9177780   3.4977770  53.7313499  69.5292206   4.8400779
  12.5768766  22.5604515  53.2183113  13.1089697  22.0239983  53.8059578
  12.4362154  22.0068798  52.4501915  32.1143875  44.7476463  69.3189087
  32.7856903  44.6946793  68.6386261  32.0366821  45.6830788  69.5064087
  71.8386841   1.5097024  28.3496513  72.1173859   1.9067633  27.5244846
  71.7524796   0.5775677  28.1498375  59.7542877  47.6175690  10.1815596
  60.2494202  47.0008926   9.6423130  60.4097328  48.0131874  10.7561102
  44.5003281  37.4854622  20.7939129  44.2993317  38.3537064  20.4446507
  44.8568382  37.6547356  21.6659660  59.9901009  59.6488419  26.0869961
  60.8430443  59.9719200  26.3774166  60.1947632  59.0251961  25.3902836
  40.0153008  45.4828186   5.7132535  39.8662300  45.0064163   6.5299854
  39.9776039  46.4058075   5.9640512  43.7332153  54.0464630  36.9061584
  44.0859184  54.7272835  36.3331718  44.4628029  53.4404488  37.0353127
  22.2196407   3.6223006   5.4977293  21.8559780   2.7693884   5.2599854
  22.9281483   3.4188044   6.1083345  25.9916553  42.5690765  24.3707085
  26.6052189  43.2793159  24.1827431  25.1835899  42.8269653  23.9271374
  14.6123390  45.8286476  15.6266661  14.8964014  45.3743782  16.4198742
  13.6998911  46.0617714  15.7979088  35.3067284  17.6485939  19.7439728
  35.2628250  18.5193653  20.1390190  34.5125656  17.2080612  20.0464077
  35.1230850  56.8000946  10.5173149  35.9716911  56.6854553  10.0895834
  35.0494614  56.0505867  11.1081161  57.3512230  66.2925644  79.1578979
  58.0658073  66.1653214  79.7819290  56.6124992  66.5792084  79.6948853
  23.2102795   2.9253633  86.2548218  23.0085068   2.6207330  85.3701019
  23.8514194   3.6245275  86.1269913  67.4950867   6.9481306  47.2686844
  68.4403992   7.0749507  47.3495483  67.2672272   7.3678083  46.4391174
  54.4218254   7.2736793  68.1309280  55.0548134   7.9615760  67.9251251
  54.9334946   6.6063914  68.5882568  11.5380583  16.6686707  79.3098831
  11.9805021  17.4301987  78.9349823  12.0630894  15.9214287  79.0231705
  55.5307312  22.4263554  62.6640968  54.7378120  22.9618034  62.6924934
  56.2482529  23.0594444  62.6884003  11.1622486  60.7084236  38.8526955
  11.3997612  60.4872246  37.9522018  10.2118759  60.5985718  38.8836060
  54.4481583   2.1886673   9.2006998  55.1445274   2.5538757   8.6548758
  53.6846542   2.7341390   9.0116100  82.9908829  39.2071037  27.6122837
  82.1831207  38.7043304  27.5075779  83.0595245  39.7204628  26.8073101
  44.3669357  61.6095619  59.8164787  44.9629288  62.3142624  60.0702896
  43.5232773  62.0435181  59.6893921  40.0216217   3.6064999  78.7740860
  39.8029861   2.7003431  78.5565796  39.3855743   4.1299810  78.2865982
  14.8348713   0.1529672  21.6395912  13.8852234   0.0422464  21.5933285
  15.1317415   0.0553723  20.7348385  11.6745338  30.7842598  23.1433716
  11.2009621  31.5439930  22.8045979  11.3522749  30.6808758  24.0387440
  25.5587959  34.1318474  71.0289993  25.0940628  34.6343422  71.6981354
  25.9755192  33.4180794  71.5118103   6.9197688  67.1282501  33.2325249
   7.6251578  66.8241119  32.6614189   7.2898798  67.0848465  34.1142082
  53.9316177  14.2142057  50.1359253  53.7192650  13.3247013  49.8532219
  53.1928368  14.7436991  49.8358078  70.3749619  61.5692787  37.6313248
  70.3206558  60.9142914  36.9354248  69.9039536  61.1771545  38.3665962
  81.4372253  57.8359795  52.3106079  81.5481949  57.3257637  51.5083618
  81.5264893  57.1953278  53.0161743   3.5802255   4.3820686  37.8798981
   3.8861308   5.2871747  37.8212776   4.2989507   3.9133339  38.3041077
  62.3940697  42.1494255  42.1583977  61.9537849  42.0093842  41.3200874
  61.7061882  42.4754868  42.7386856  32.9015770  62.9593544  65.6868210
  33.0999146  62.7892227  64.7659760  33.6496124  62.5994301  66.1633987
  86.2450943  11.1065311  21.5621204  87.0160065  10.6484213  21.2273750
  85.7430115  11.3339176  20.7795315  26.8806133  27.9752483  87.5000992
  27.7412910  28.0027275  87.0821152  26.3007965  28.4231586  86.8841324
  73.1667938  19.7378941   2.2420552  73.5645676  20.4635925   1.7610410
  72.3344879  19.5822926   1.7956520  42.6848564  69.3940964  75.4678879
  41.8732452  68.8966141  75.3677292  42.7007866  69.9811325  74.7119980
  60.1800804  62.2836113  66.6278000  59.5838585  61.5349350  66.6126709
  60.2870941  62.5232239  65.7072754  20.3664989  61.3221207  44.4826164
  20.9605522  61.2681313  45.2312279  19.6903381  60.6698570  44.6658897
  36.0192184  54.8400307  71.3685608  35.1138992  54.8930321  71.6748581
  36.2319221  53.9076843  71.4100952  76.1573944  70.1466827  39.6855888
  76.6852036  70.7363815  39.1471672  75.7877197  69.5204620  39.0631523
  79.5342331  32.4871750  68.2614594  79.3659058  32.8412094  69.1347046
  80.3832321  32.8535309  68.0140457  76.4123230  24.5474548  22.2323933
  75.9136887  25.1649914  22.7674141  75.7948990  24.2606373  21.5595150
  34.6192360  15.5295067  14.3514271  34.9338493  16.1578598  13.7014837
  33.6654358  15.5702877  14.2818975  74.1545410  44.5321503   5.5834374
  74.6168976  44.2202988   4.8054852  73.9851913  43.7408409   6.0946922
  33.7181549  14.5545950   8.6623697  34.3328552  14.3733358   9.3733721
  33.2760658  13.7195253   8.5092440  43.9783783  41.6232491  23.1480637
  43.4813118  42.3806915  23.4569931  44.8587570  41.7547646  23.5000153
   4.5152807  36.1617317  45.4008255   5.3957677  35.9455490  45.7078133
   4.4627733  37.1145592  45.4756050  35.8813591  27.2428169  14.1631413
  36.4982147  27.8287201  14.6018190  36.2660103  27.0931816  13.2994947
  61.7363129  41.4312820  31.1757221  61.9446526  42.3607521  31.0813217
  62.3183022  40.9912415  30.5561409  82.7421875  63.3254585  17.2612762
  82.4417572  63.5850296  16.3903027  83.1995163  62.4965782  17.1197205
  64.7665405  46.9089470  39.8317642  65.6466446  46.5373917  39.8917313
  64.1990051  46.2447929  40.2229652  59.3686028  60.9103775   5.0905900
  58.6160469  60.3201180   5.0520139  59.4179993  61.2930565   4.2146058
  23.2152138  11.1832724  31.9812775  23.1823082  11.9118090  31.3612900
  22.3677998  11.2084932  32.4256706  72.5590363  70.7019196  80.9172211
  72.2848816  70.8171158  81.8270569  71.8325729  70.2338867  80.5056000
  59.4806671  17.3270779   8.5144386  58.8808594  16.6905422   8.1254854
  60.3354454  16.8970070   8.4895306  19.4224606  50.8325806  52.0837975
  20.2485123  50.6669693  51.6294403  18.7569714  50.4318352  51.5245476
  86.2866516  15.3733625  51.9598045  85.4387817  15.8052406  52.0638504
  86.4134674  15.3196831  51.0125618  14.2647867   9.9017506  70.0541992
  14.5800467   9.7444067  69.1642075  14.7326403  10.6868553  70.3387222
  29.0214100  39.7091522  11.7052269  29.3637524  39.5057907  12.5756741
  28.8502159  38.8545532  11.3095160  12.6464157  32.4660530  85.7874756
  12.2697124  33.2102089  86.2571106  12.1054363  32.3794708  85.0025711
  53.4812279  63.2320366  68.3591537  54.0154419  63.9360619  67.9914627
  52.6121292  63.6196899  68.4622116  75.6396255  53.5295563  77.5383682
  76.5395050  53.7376900  77.2871246  75.7131729  53.1838684  78.4279327
  10.0111418  36.8855515  30.9634094   9.3633900  36.3922424  31.4666920
   9.6285686  37.7580643  30.8707142  75.1802444   9.1237469  56.1075554
  74.3703842   9.5612402  55.8449707  75.8578110   9.7919035  56.0041122
   2.8610246   3.6127276   0.4600439   2.1756339   4.0627518  -0.0338687
   3.0886881   4.2213764   1.1628580  36.4467621  29.1232967  25.2927170
  36.5611649  28.4808178  25.9929771  35.7184982  29.6706257  25.5864716
  73.1538315  46.6725998   4.1912723  73.7818832  46.7360344   3.4717166
  73.5492554  46.0486603   4.8000197  36.6700287  35.1326065   4.1838884
  36.0132408  34.4710045   3.9667635  36.6280708  35.7581596   3.4605918
  12.7330799  54.4591599  31.7211132  13.0142775  54.0383415  32.5335617
  13.4725952  55.0123787  31.4695206  78.4563217  48.1811485  31.3651352
  77.8776550  47.7052269  31.9608517  77.8644104  48.6956291  30.8163376
  36.8038940  66.3568573  54.6817818  36.1406364  65.6793976  54.8135872
  37.4059868  66.2490387  55.4180527  69.9618378  70.7233429  60.4583244
  69.0471878  70.8141708  60.7255249  70.0742798  71.3729858  59.7643852
  17.7283306  67.5070877  82.7688904  16.8392830  67.2157364  82.5665588
  18.0726814  67.8232651  81.9336090  33.6177139  66.2716064  20.4637909
  32.7952957  66.7610855  20.4805012  33.4928246  65.6168442  19.7768288
  84.7893372  29.2787685  34.8059311  84.2522430  30.0576782  34.6608086
  84.7334747  29.1215229  35.7484741  82.5692368  53.1562080  39.1812553
  81.6182938  53.0855751  39.0978394  82.7053299  53.9384804  39.7158203
  31.1184998  45.1090469  63.4137154  31.9126148  44.9048615  63.9076004
  30.4579792  44.5117035  63.7646065  31.2546329   7.7264118  29.9983253
  30.7681789   6.9041724  30.0576286  30.9923401   8.2166119  30.7775154
  55.1690750  12.3180923  36.3958282  54.6947784  12.8774271  35.7806702
  56.0903358  12.4332581  36.1629219  78.8757401  48.1421165  61.6515160
  79.0990295  48.4120369  62.5423088  77.9755936  47.8231277  61.7164421
  39.2467194  71.2554092  20.8976040  38.3283539  70.9865875  20.9214954
  39.7168846  70.5400925  21.3259716  48.4063911  65.9240189  30.9218674
  49.2535706  66.2858047  31.1819191  48.5928078  65.4258194  30.1260777
  42.8305435  11.7835646  58.5698128  43.2224350  12.6563091  58.5386391
  43.4581985  11.2227573  58.1139870  45.3521690   8.4372025  84.1928253
  46.0882492   8.1591215  84.7378769  44.7297478   8.8226995  84.8094406
  59.5285378  14.3603306  60.0008659  58.8430405  13.7723207  60.3179893
  60.3428192  13.9762363  60.3259048  64.5308151  50.4401703  30.8787327
  64.8162155  50.8939514  31.6717415  64.8272781  51.0010643  30.1619759
  39.9948540  19.3455601  82.5733185  39.8683701  19.4299603  83.5183640
  39.6341438  18.4851475  82.3592911  20.3260860   2.2552135  66.2033234
  20.9393024   1.8193221  66.7950974  19.5570011   2.4338632  66.7444534
  80.6321640  38.8629417  80.1508865  80.0609283  38.5194168  79.4639282
  80.1202698  38.7739372  80.9547958  55.2050056  50.9926720  43.0551834
  55.6072960  50.1329002  42.9319344  54.9524002  51.2674828  42.1737633
  59.8981628  29.7043648  54.8297348  60.6184311  29.1600533  54.5116615
  59.1271286  29.1403217  54.7697639  37.0967178  42.9727325  25.0102882
  37.4738846  42.1144753  25.2036037  36.8331108  42.9171257  24.0917835
  76.8090515  23.2190475  84.4810257  77.6125793  23.7376270  84.5216751
  76.1114197  23.8660946  84.3767624  59.0610771   3.3165538  58.2776756
  58.6686211   3.1915298  57.4136276  59.4200478   2.4585900  58.5041084
  71.0682220  70.0340805  56.7617455  71.2890091  69.8116531  55.8573036
  70.5003967  69.3203049  57.0521507  31.7218971  51.1533852  36.0283318
  31.6032410  50.4468765  36.6631546  31.5519314  51.9533501  36.5257187
  16.7297688   6.5486355  36.7339973  16.5832214   7.0131507  37.5580025
  15.8539867   6.2937608  36.4436951  19.2483444  37.9232292  55.2696495
  19.1483116  37.5543518  56.1472359  19.2646885  38.8701935  55.4083138
  11.5043287  53.7494659  50.3531227  12.0215797  54.5222816  50.5799217
  11.2065544  53.9146461  49.4585381  82.2257538  52.9018593  79.1659775
  81.4015198  52.8113022  78.6877823  82.2070999  52.1952248  79.8113861
  59.9913826  32.9263535  30.1905231  59.9167442  33.7900658  29.7847366
  60.7906609  32.9763145  30.7148247  63.7478409  66.3978882  16.6937237
  63.0454216  65.9406586  16.2313557  63.7034073  67.2968903  16.3680553
  27.9440079  16.5309525  10.7709351  27.0052643  16.6361160  10.6162338
  28.3464508  16.6863480   9.9164610  20.8039627  56.4788857  42.3224487
  20.2107792  55.7756157  42.5866013  20.2252312  57.1997261  42.0740776
  30.6030693  30.2366829  25.5430679  30.9203014  31.1080723  25.3058434
  30.0921307  30.3766327  26.3403053  57.9661140  15.9435616  49.4632492
  57.8947372  16.3270969  50.3373413  57.7559509  15.0183296  49.5897789
  50.8043709  25.6631432  34.3596649  51.2285156  26.4920998  34.5813904
  50.8030586  25.6432228  33.4026718  63.9998703  47.4673843  74.7370834
  64.6434555  48.1658936  74.8558731  63.2578011  47.8955002  74.3101425
   5.5615869   9.8783627  81.6103973   6.2454953   9.4251575  82.1034546
   5.0484691  10.3351040  82.2769775  34.8124657  18.9078236  22.5117474
  35.0135689  17.9995537  22.7372189  33.8569336  18.9366226  22.4632130
  10.4465199  35.0617867  81.2740860  10.2808943  34.1267433  81.1536942
   9.8823624  35.3127289  82.0055084   3.6839945  53.2372284  33.3198700
   3.5728252  53.7969894  34.0883369   4.4904418  52.7512436  33.4921951
  81.7835922   8.4996529  32.3320580  82.2656937   8.2159758  31.5553074
  81.5156784   7.6855216  32.7582550  74.2213135  15.9973497   3.6344995
  74.8637085  16.6756268   3.4259427  73.8549500  16.2654381   4.4771991
  54.4493523  22.4231281   2.7107434  55.0335197  22.5414581   3.4597259
  53.7661743  21.8338871   3.0305846  58.4567642  28.3124886   0.2641483
  59.0180016  28.3981972   1.0347972  57.9959412  29.1496563   0.2091526
  85.4604797  63.5080261  46.6966476  85.0466995  63.7127609  45.8581352
  86.3922653  63.4311180  46.4914780  70.0894394  30.2686100  63.7754898
  69.1334839  30.2302551  63.8056412  70.3346176  29.6179810  63.1176147
  37.6960411  10.2737741  85.0489426  37.7356720   9.6899948  85.8064804
  36.7898788  10.2127180  84.7466583  66.0597000  43.7059021  18.6442604
  66.7622299  43.2455673  18.1851616  65.3580322  43.0590706  18.7184887
  43.3092346  16.0728359   3.5282927  43.0358658  16.5742302   4.2964764
  43.6939354  15.2737083   3.8883386  36.3464355  54.0094261  29.7090950
  36.6895485  54.8857117  29.5340824  36.1966019  53.6332397  28.8417606
   9.2098589  27.8028221  69.4581070   9.4103909  28.6615047  69.8305130
   9.9073114  27.2326355  69.7816467  15.8694258   7.9156313  78.0447540
  15.9033213   8.6579351  78.6481400  15.0357227   7.4871979  78.2387085
  76.8819199  66.1717758  38.7841339  76.0533752  66.6509552  38.7728996
  76.7810440  65.5355148  39.4921112  75.9461212   1.8364999   9.4571371
  76.4427719   1.7885493  10.2740021  75.9741058   0.9460028   9.1071892
  68.6712189  50.6763229  71.1311340  69.5531006  51.0218010  70.9927216
  68.8107224  49.8080254  71.5090561  60.1274452  63.2627563  88.2205887
  60.4848061  63.4360771  87.3496780  60.7377472  62.6363029  88.6095886
  65.9998779  23.3824730  21.2761936  65.7693024  23.9370213  20.5308475
  66.9258041  23.5665760  21.4343204   4.4506807  55.5142479  15.2665377
   4.2199435  55.5581779  16.1944733   4.7186198  54.6056480  15.1291122
  71.4389801  24.6847172  30.4313431  72.2928467  25.0059052  30.7211494
  71.2276154  25.2218170  29.6677456  53.8834877  48.9329262  12.4302187
  54.0087547  49.3079338  13.3019466  53.3600273  49.5836678  11.9625034
  78.1177979  37.8822517  37.8244171  77.2537079  38.2799339  37.7175369
  78.2429733  37.8324356  38.7720871  80.7894135  49.3266830  27.3413506
  80.7705460  48.4811974  26.8929901  81.6106873  49.3188133  27.8329620
  36.4986877  54.5474434  65.6402206  37.3882408  54.5926094  65.9907684
  36.1632233  53.7047386  65.9460678  22.1099415   7.6907310  37.9448395
  22.3376141   6.8597803  37.5278053  22.0077057   8.3039169  37.2169800
   1.0483121  31.0333557  44.4513435   0.8741670  31.9027748  44.8119240
   1.7911464  31.1629791  43.8617439  79.6454697  54.0331879   2.0359397
  79.5212860  53.1523590   2.3894281  79.9178696  53.8912392   1.1293627
  73.2889099  67.4179993  77.4135971  73.0722504  67.1340179  76.5255356
  73.3057022  68.3736572  77.3620605  72.3019562   2.9689581  45.7342148
  71.6743546   3.6576345  45.5149689  72.0856552   2.2499373  45.1405334
  45.4362335  24.4783707  17.7729397  46.0609055  24.0741329  17.1707687
  45.8067894  25.3411217  17.9589005   6.1952558  65.8282471  10.5443125
   6.5962906  65.7887726  11.4125547   5.5209427  66.5031128  10.6224031
  71.1950226  58.0252762  24.8428535  70.3566895  58.4286728  25.0680447
  71.0721970  57.6994400  23.9512386  17.4939003  18.0085621  88.1972122
  17.4612923  17.4349422  88.9628067  17.0345573  18.8019066  88.4726105
  59.8378029  43.4374619  75.4870834  59.2343597  43.1384315  74.8068848
  59.9316368  42.6852608  76.0715714  35.6053467  25.6037636  19.6386566
  34.7737198  26.0286579  19.4286594  35.3872871  24.6748123  19.7143536
  17.2938595  46.2478256  34.1950378  16.8048420  46.3194733  33.3753052
  18.1908627  46.0543175  33.9226875  31.6619358  14.5781813  16.6245155
  31.6545849  15.5221119  16.7831745  32.1473083  14.2146025  17.3650932
  68.5338745  52.0637360  26.1594276  67.8725815  52.6760750  25.8369942
  68.0923767  51.5802040  26.8576488  58.3848801  16.5468407  27.7974491
  59.0242653  17.0718517  27.3160114  58.5376129  16.7668495  28.7164154
  70.3192444   7.8641057  81.9545517  70.1441803   8.5574064  82.5908813
  70.0535202   7.0588160  82.3985443  21.0151577  24.3688755  11.9600878
  20.1904678  24.2368069  12.4277134  21.3641396  25.1860237  12.3160572
  59.7171745  21.2255573  64.8597794  59.5222054  20.3225613  64.6091461
  60.4711380  21.1541767  65.4451599  46.6251640  41.5969009  88.8902512
  46.2166939  40.7595901  88.6704865  46.3486214  41.7694016  89.7902451
  33.0712051  27.2279701  19.1510468  32.6713867  27.1055450  18.2900066
  32.4081497  27.6958485  19.6586666  23.9918308  66.8843918  61.4955025
  23.7060280  66.3192596  62.2132607  24.0334511  66.3038635  60.7355766
  50.4677887  59.0379524  47.1038589  50.1910553  59.8728790  46.7263031
  50.3053131  59.1338692  48.0422783  66.5772171   6.4517479  84.8957062
  66.0407486   7.1153460  85.3293686  65.9540634   5.7745743  84.6323776
  51.5143585  24.1385269  66.6815109  50.8725471  24.6323128  66.1711349
  51.0186996  23.4038887  67.0432587  59.9936752  20.7984657   8.8759604
  59.0958099  20.4712315   8.9306211  59.9966888  21.3614883   8.1018620
  64.3593903   8.5506821  49.1962357  64.9846649   8.9019041  49.8302040
  64.5351486   7.6098566  49.1824875  58.0755844  34.4463348  47.8867798
  58.2166862  34.1225357  46.9971352  58.1565018  33.6694489  48.4400749
  54.2417603   6.5440974  79.2139511  54.0407295   6.8342104  80.1036987
  55.0804176   6.9583178  79.0107117  63.7863464  25.3171120   9.3854723
  64.3250656  26.1016693   9.4878540  63.4191055  25.1634674  10.2559652
  73.8259201  41.6480713  24.2862587  73.6206589  41.4242516  23.3785095
  73.1334000  42.2558670  24.5455494  50.9086723   6.7449241  39.1492996
  51.2061195   6.8217998  40.0558586  51.4536934   6.0520420  38.7763405
   1.4873639  39.3106995  50.8496284   1.6376284  38.4127693  51.1452179
   0.5414351  39.3626480  50.7126923  27.4265938  47.4377518  85.5789185
  27.3469982  48.1669960  84.9640198  26.6286297  46.9256325  85.4477005
  67.3890610  23.4258900  88.8544388  66.5068512  23.0566921  88.8140640
  67.2562256  24.3715153  88.7882538   8.9672327  36.1640587  35.3291550
   9.2093449  35.9603500  34.4257660   9.8032141  36.2569008  35.7860451
  60.1107559  36.7573929  36.4128647  59.2797546  36.9673691  36.8389816
  60.7719307  36.9140244  37.0870628  13.3049746  71.3688202  11.3773613
  12.9925451  71.4830170  10.4798212  12.6451244  70.8128357  11.7917442
   2.6634347   2.0155830  73.8458481   2.5996544   2.7598150  73.2472839
   2.6735687   2.4098628  74.7180176  68.2018585  31.6927128  79.6310883
  67.9317627  32.6070786  79.5461807  67.3803635  31.2032661  79.6736679
  76.2061081  22.4662609  34.9684868  75.3325577  22.8509808  34.8969307
  76.4031448  22.1535130  34.0855408   0.1868850   7.9347663  38.9477425
   0.2692113   6.9813194  38.9279289   1.0895544   8.2532196  38.9450226
  36.1049957  18.6792278  10.1405144  35.7950439  19.0407085   9.3101578
  36.9099579  18.2136936   9.9134779  76.3423615  45.5971565  18.3896599
  76.1136703  45.5649796  17.4607372  76.5783539  46.5114212  18.5466957
  45.9683952  71.4838715  17.7505665  45.4745522  70.6978607  17.5170212
  46.7004242  71.1597214  18.2752495  16.7364368   9.4846706  11.1744423
  16.9891777  10.3987751  11.3039293  16.8105354   9.0902796  12.0434628
  29.8042088  54.4806519   1.0050613  29.3172703  55.1783218   1.4436697
  30.3756618  54.1235161   1.6848602  58.1375008  37.4689217  42.8691139
  57.5251999  36.7332077  42.8625031  58.8223381  37.2050591  43.4836082
  75.4003830   4.2997036   8.2016516  74.6075211   3.7687976   8.1258478
  76.0772171   3.6814172   8.4770517  37.4528275  64.4349518  58.4723244
  37.3844261  63.7782364  59.1653481  36.5564995  64.5411224  58.1536560
  72.9492950   8.8801355  19.0874939  73.6477509   8.3835278  19.5138454
  72.5485535   8.2574358  18.4809647  30.4372463  12.2285519  41.2966537
  30.2114525  13.1560364  41.3675156  30.4692612  11.9199762  42.2021866
  77.0176010  36.7663307  18.7543163  77.4252319  35.9461594  19.0324974
  77.5947113  37.4488640  19.0968456   7.9122071   4.6215997  45.6755867
   8.0188122   3.6993425  45.4425430   6.9825325   4.7989030  45.5324059
  70.9548950  63.8902321  74.9417419  71.8214417  63.5543938  74.7125092
  71.0951920  64.8227310  75.1060562  65.8516388  62.8308220  57.0106964
  66.4097595  62.9799309  57.7739143  66.4597702  62.7965813  56.2722931
   5.6512170  33.9647560  81.8657913   4.7846050  33.6359940  82.1048126
   5.5026851  34.4746437  81.0694351  38.7510376   2.4809957  35.6831970
  38.9356842   3.1466799  36.3457680  39.5528107   2.4323792  35.1625900
   7.4865584   1.6488323  24.6998062   7.9954157   1.2108305  24.0175667
   6.5821548   1.3847725  24.5308151   2.8430965  63.0722733   9.5261517
   3.4506385  62.5696945  10.0688658   3.3626008  63.3365173   8.7668610
   7.2038198  66.3939972  13.1476936   7.5823050  67.2540665  12.9653196
   7.8532901  65.9587326  13.6999254  30.0802231  11.2775078  23.6969452
  29.5460720  11.9468393  23.2692642  30.6008663  10.8981104  22.9889755
  61.2143326  58.7837715  69.8171997  61.8568802  58.0837631  69.9327545
  60.5035820  58.5579300  70.4172516  38.4769897  42.4176292  20.8659992
  39.3373222  42.1499405  21.1891117  38.1029015  41.6200066  20.4917126
   5.7518606  14.9353819   0.4484517   4.8594089  15.0173225   0.1122262
   5.7252045  15.3618212   1.3049976   7.8473954  69.3630829  63.1173210
   7.7866879  69.6625443  62.2101974   7.7541957  68.4120178  63.0623283
  19.8907604  29.1826363  85.4539719  19.3092709  29.9399166  85.5219879
  19.3116779  28.4558525  85.2244492  79.4618683  17.7915478  30.0813503
  79.5457687  18.4542084  30.7669716  79.9368210  17.0333576  30.4216461
  39.7316589  54.1669464  13.2307663  40.0327377  55.0682602  13.1158028
  38.9627228  54.2415314  13.7959242  27.4364338   8.6231365  84.6459885
  27.0523872   9.1834841  83.9716415  27.6520729   7.8107061  84.1880722
  11.8295212  23.1914139   3.8751330  11.8134241  22.6806355   3.0657640
  12.2871056  23.9985790   3.6399035  60.0497971  13.5226059  69.8549576
  59.1122856  13.4393396  70.0292435  60.2903175  14.3668118  70.2366638
   2.6648424  63.8495941  43.6855240   2.7377198  62.9063644  43.5397987
   2.9219236  64.2414551  42.8509064  85.7376556   2.5518184  32.7688255
  86.2127914   2.3099794  33.5638046  85.5882568   3.4932492  32.8561211
  42.5195732  52.3525543  64.9952621  42.9518776  53.0292397  65.5162582
  42.6776543  52.6116943  64.0874710  75.7706299  66.3709183   2.1481502
  75.9506302  66.9900970   2.8555758  75.5517807  66.9224319   1.3970404
  20.3097038   1.9481858  16.9989243  20.0605469   1.6819443  16.1138992
  21.2340775   1.7098713  17.0694256   2.3457346  60.8069077  76.8079071
   3.2668355  60.5753059  76.9269333   2.1795151  60.6574097  75.8771820
  80.0025482   8.1588688  71.8116455  80.6341095   8.2006426  71.0935822
  80.1802902   8.9418364  72.3327942  76.0790329  55.4617310  73.2243576
  75.1364594  55.5225716  73.3795547  76.4596634  56.1266136  73.7981873
  81.1973419   1.9103651  21.3552055  81.1506500   2.7135770  20.8366489
  80.7858658   1.2449607  20.8037014  69.4496078  29.9435883  76.4504700
  69.1993408  29.2851410  75.8023605  69.1124115  29.6039772  77.2794418
  36.5309219   0.4473360  65.2904129  35.8457527   1.1075479  65.1860428
  36.2940369  -0.2435636  64.6717224   1.5710894  20.6638622  32.7271309
   1.6108122  21.6129265  32.6090965   1.8142831  20.5259743  33.6425934
  81.8873672  65.6531754  22.1522388  82.7708206  65.7900467  22.4942932
  81.5973053  66.5245667  21.8824768  14.6213531  27.7511406  58.5333519
  15.5437956  27.8691120  58.7601013  14.6191330  27.6557980  57.5809135
  76.6745682  41.9717903  88.2223434  77.1516190  41.5990295  87.4809189
  75.9719849  42.4839745  87.8219986  36.6354141   0.9622291  59.8136024
  37.3711662   1.5678203  59.9039383  36.9539795   0.1408045  60.1877823
  77.2154160  14.0821905  59.1948051  77.6720581  13.5915308  59.8781509
  76.5324326  13.4860220  58.8876457  11.8360777  57.9404182  41.1072617
  11.8881474  58.5395737  41.8519287  12.7185717  57.5779877  41.0292931
  86.3612595  15.9995222   4.1416359  85.7325287  16.5998840   3.7410259
  86.5620728  15.3674145   3.4514582  58.4110336  18.8956795  46.4618988
  58.8695679  19.0699692  47.2838478  57.4828072  18.9476891  46.6897697
  58.0926971  25.5960522  88.3696365  57.1498566  25.4354534  88.3310471
  58.1864243  26.3263741  88.9812546   4.7346792  67.0567856  27.0445251
   4.0491176  66.4365921  27.2927055   5.3822126  66.5253372  26.5813923
  54.6704140  49.8091125  52.5408745  54.6063194  49.1114883  51.8886147
  54.6439629  49.3534966  53.3822670  30.7529106  41.3868980  80.0232010
  31.4148197  41.2900848  79.3385544  30.2382088  42.1473351  79.7529221
  66.9149094  22.7107582  11.3880577  67.3348541  23.2400379  12.0660973
  66.0838470  22.4384747  11.7772026   6.2863169  52.6613579  74.1192017
   5.4943380  52.8584938  73.6190643   6.3255601  53.3471832  74.7857819
  10.9934721   2.5736527   9.2337360  11.7010269   3.2021859   9.3770685
  10.6344242   2.4140432  10.1065712  56.3677483  70.3934479   9.8407278
  57.1042099  69.7941284   9.7196178  56.4765396  71.0489120   9.1516962
  29.1360607  55.7514534  81.3026352  28.7925549  54.9191322  81.6274033
  30.0449829  55.5611992  81.0704803   5.3984661  69.1146164  35.6320229
   4.8810377  68.5512772  35.0565720   6.2460003  68.6747971  35.6989136
  83.5084152  10.3393812  14.1666517  83.4368210   9.8081961  13.3735886
  82.8404236   9.9848900  14.7534714  46.1460991   9.6271133  19.7824249
  45.8239632   9.6250029  18.8810616  45.8573341   8.7883091  20.1419392
  20.4178734  71.7629623  11.9137592  19.8000221  71.4278183  11.2640142
  21.0287685  71.0403900  12.0584087  84.4655914  64.2390747  50.0768890
  85.0365295  64.0339203  50.8172760  83.6049728  64.3824234  50.4706078
  81.6724777  22.5826931  88.9370422  82.0103836  23.3103752  88.4150009
  82.1171188  22.6663055  89.7805634  19.9404697  70.5043411  46.4526062
  19.5543976  70.4071121  47.3230820  19.2223129  70.8239594  45.9064140
  17.4847488  46.1595688  18.8163605  17.9971695  46.7786446  19.3363628
  18.0115356  45.3604088  18.8077908  55.6954880  61.2233925  79.1738052
  56.4629440  61.5940590  78.7380829  55.6718788  60.3117790  78.8828812
   8.0861349  41.2114334  26.2672482   8.5986729  42.0154343  26.3516312
   8.2090416  40.9435120  25.3565636  60.4787178  69.1891022  45.3696976
  60.3007050  68.3105316  45.0340614  59.7854919  69.7332382  44.9960823
  20.5989361  54.6786461  16.9923096  20.7937965  55.2784805  17.7123528
  21.3820400  54.1335068  16.9161148  45.1146049   1.2614101  30.8459511
  44.8707047   2.1832519  30.7625713  44.2828560   0.7892040  30.8078709
  42.5269279   4.5565104   3.4616199  42.3352203   5.4232864   3.8196430
  42.3276749   3.9524810   4.1769376  67.5689697  48.0746346  46.3134575
  68.4651718  47.7687111  46.1739540  67.6319046  48.6666107  47.0630188
  75.4980011  51.8482895  85.9315109  74.8976517  52.3246613  86.5050049
  75.4552994  50.9428749  86.2391357   5.5932441  18.6676731  60.9191895
   4.8760476  19.1579952  61.3209877   5.8659797  18.0460281  61.5940247
   0.8029950  27.1657066  87.1013489   0.8435034  26.5134678  87.8007584
   0.4867994  27.9597397  87.5323486  78.0469589  39.7448730  46.9759407
  77.9607239  38.8052177  47.1367111  78.9827728  39.9199409  47.0750847
  60.8828201   8.6099586   2.7926173  60.7770500   8.2055340   3.6537127
  61.4898186   9.3349676   2.9414444  11.2116165  17.8551178  21.4886646
  10.6253414  18.5781479  21.7116852  10.9960566  17.1685543  22.1198521
   8.8376751  16.7515087  60.2630234   8.5473385  16.6018085  59.3632851
   9.7933159  16.7292538  60.2131577  74.0814362  10.9537449  47.5100899
  73.2553177  11.2410660  47.8989563  74.7400513  11.1462603  48.1774635
  61.1204071  44.6598816  71.3670197  60.3218498  44.1778259  71.5818787
  61.8176880  44.1791878  71.8130722  64.6901321  23.2648716  84.5825348
  64.2518082  23.3721828  83.7383881  64.0047226  22.9454727  85.1694183
  61.3176384  59.2409782   1.8435277  61.3554115  58.5127144   2.4635599
  60.5874443  59.7787437   2.1498899  54.4405174  32.6586189  87.7567978
  53.8621368  33.4010468  87.9314499  55.3093872  32.9658546  88.0154572
  81.2521896  60.0077019  13.1092863  80.3209076  59.8780441  12.9299946
  81.6573334  59.1685371  12.8904352  64.7031784  32.1444016  69.4935379
  64.7148590  31.9796658  68.5506897  65.6164932  32.0508842  69.7643433
  20.9398689  64.4151917   5.8974881  21.7849903  64.1465683   5.5371499
  20.3690205  64.4974594   5.1335535  25.1832008  17.6118355  73.9686966
  25.9545288  18.1204510  73.7185059  25.1362076  16.9119625  73.3173904
  15.4678936  34.6560860  31.0660973  15.9078560  35.2230682  30.4326973
  15.5089798  35.1407967  31.8904743   3.4648526  53.6604767  75.7055054
   4.3118472  53.6516991  76.1513290   3.0287745  52.8623886  76.0040359
  81.6138992  38.7403297  33.3815689  82.1993027  39.2242088  33.9641495
  82.1301422  38.5969810  32.5883636  55.1151009  32.3834305  68.8079987
  54.9329796  33.2430229  68.4283142  54.4786377  32.2952538  69.5174789
  62.0010185   0.5639501  78.9462204  61.3079185   0.9973327  79.4442444
  62.5009842   1.2815478  78.5572205  16.0125179  51.5428810  73.4776001
  15.8931808  51.5181351  74.4270096  16.8058281  51.0302124  73.3224792
  76.9548111  48.9132042  48.8717804  76.0755310  48.5591660  49.0049973
  77.5370102  48.2623177  49.2637291  33.8606949  21.3133564  85.8946457
  33.2728958  21.2262955  85.1442184  33.2923355  21.2078362  86.6575775
  10.6668196  43.2547836  33.1250877  11.2171068  43.9540482  33.4778557
   9.8161688  43.3848839  33.5442543  42.9613228  33.4440727  15.6271076
  42.7533035  34.2948875  15.2410126  43.9179115  33.4101105  15.6306686
  33.2956200  63.7878113  38.9316330  33.4262657  64.7329941  39.0077744
  33.9429092  63.5079269  38.2843933  80.3590240  29.5122547  22.7607517
  80.3004379  29.5743446  21.8073654  79.5616150  29.0506573  23.0201607
  13.8871403  48.6146927  68.4524307  14.5925140  48.5494766  67.8086700
  13.2534437  49.2111359  68.0537872  52.2613831  57.6788177  45.7477379
  51.4784698  58.1076698  46.0932236  52.9597397  58.3223114  45.8679390
  48.9953728  25.1891327  88.9282608  48.9162254  24.4550610  88.3190765
  49.8906555  25.1284103  89.2614517  45.1142845  57.2203941  74.5996170
  44.4036598  56.8042145  74.1117249  45.2482491  56.6527443  75.3586044
  46.6916237  54.9110603  63.8361702  45.7692108  55.1656761  63.8125610
  46.7130051  54.0494881  63.4196739  19.5794849  46.3568001   8.4589195
  20.1182194  46.1965256   9.2337170  18.7207737  46.0002594   8.6863508
   1.4426506  67.6427536  71.7932816   1.3399926  66.7381210  71.4977570
   1.9206172  67.5720062  72.6195831  74.9196777  37.9598808  42.6850204
  75.4562302  38.7080040  42.9470558  74.8033295  37.4549789  43.4898605
  15.0145407   2.2265725  14.0693092  15.5153303   2.7527187  13.4459219
  15.5402699   1.4361874  14.1923189   2.2076945  52.1983643  72.3789825
   2.2645521  52.7356873  71.5888672   3.0787449  51.8118324  72.4689636
  76.1069183  36.9710083  71.8865585  75.7403717  37.5630760  71.2297974
  76.8936005  36.6137886  71.4745483  68.9368668  25.3840981  48.5304947
  68.0466614  25.5680351  48.2305984  69.0368805  25.9126320  49.3222504
  82.7715759   7.2326427  79.2682648  82.4849854   7.6170964  80.0966949
  83.4928360   7.7926373  78.9811554  58.3959961  18.4896889  55.0732498
  58.3119049  17.7145023  55.6284485  58.8511772  19.1287594  55.6215477
  13.6853485  27.5924740  61.6641273  14.3201065  26.9964371  61.2665672
  12.8357182  27.2791615  61.3539734   3.7749686  50.7773170  48.5963593
   3.7195191  50.2834091  49.4144135   3.1080735  50.3840714  48.0334778
  71.5858459  56.5526466  51.4134903  71.4065094  55.8612175  52.0506706
  71.2132568  56.2261047  50.5944786  43.0171967   2.3293016  15.9405222
  42.2097511   1.9924966  16.3288822  43.3524475   2.9510827  16.5864544
  11.8663092  52.2941322  19.0801220  11.5442762  53.1380653  18.7634220
  12.3767443  52.5101089  19.8605328  11.5349674   1.6169547  17.9457359
  12.1515598   2.0677631  17.3688335  11.6214771   0.6924733  17.7131824
  13.5359745   2.5531795   4.9960475  14.0827637   2.5892849   4.2112226
  13.1858978   1.6623229   5.0032821  71.3632355   6.1912255  79.6309814
  72.1699066   6.7060580  79.6522446  70.7502670   6.6838179  80.1767426
  21.2022915  36.7755356   4.8292236  20.7842865  37.5995483   4.5792012
  21.7594776  36.5536079   4.0832181  43.1545410  21.1372166  22.0605202
  43.1895523  22.0770435  21.8823929  42.2667732  20.9880047  22.3858395
  26.7487812  70.4637604  61.1495094  27.2460995  70.3433533  60.3405533
  26.5721149  69.5745544  61.4566536  76.5490112  38.7126656  16.1374550
  76.0332794  38.1687737  16.7327995  77.3654022  38.8767395  16.6094837
  27.8959026  54.4704781  21.6475983  27.7587166  54.9082108  22.4877167
  27.0773640  54.0015259  21.4853878  19.6104164  -0.2035148  31.5378265
  19.2170849   0.3894741  30.8976021  20.5469379  -0.1812240  31.3412018
  68.0328064  15.4452381  77.8769608  67.5025253  14.7122164  77.5643768
  68.5760269  15.0695734  78.5697937   3.9151552  19.7929592  11.5210876
   3.6375198  19.0240307  12.0189838   3.2507968  19.8891563  10.8387346
  44.8437233  42.3824234  11.5717726  44.1188660  42.9026451  11.9184446
  45.5302315  42.4565239  12.2346783  65.3299103  50.4599152  78.0051193
  64.9297104  51.2390099  78.3912277  64.8922195  50.3597603  77.1597595
  27.4310169  57.8920364   0.8523341  27.5313015  57.2767868   1.5787264
  28.3066902  58.2570000   0.7249454  56.5419426  57.8809319  56.3021469
  56.5183640  58.2820854  55.4333801  55.6214104  57.7782478  56.5436096
  14.9643793  16.8721161  78.3398056  15.7527990  16.9276562  78.8797455
  14.4331369  16.1960506  78.7604523   6.4616575  34.0899429   3.2482407
   7.0444074  33.5616531   3.7937157   6.8031344  34.9807816   3.3259075
   7.1341615   6.1662421  13.1087942   7.1124172   5.2781467  13.4652290
   6.8454609   6.7219930  13.8326893  78.3525085  71.4133148  33.6974945
  77.5598526  71.0190582  34.0614777  78.2578735  71.3108139  32.7505150
  16.0125408  62.7588043  26.2548790  16.7649326  63.2976341  26.4994221
  15.6775923  63.1640511  25.4549942  63.7583542  35.6792068  11.7792215
  64.0235443  34.7814865  11.9792414  62.9337921  35.7961426  12.2510891
  60.0641670  15.5714893  81.7723160  60.7945366  16.0468845  82.1682892
  60.3366814  14.6541147  81.7920609   8.5373487  66.4249649  42.1056023
   7.8573327  66.6858749  42.7266808   8.8809900  65.6038666  42.4576530
  10.7528915  13.1070595  30.5352802   9.9838696  12.6552362  30.1878719
  10.7315292  12.9280157  31.4753437  31.7543507  57.7830658  12.7670135
  31.3729763  57.2879486  12.0420008  31.1194553  58.4774513  12.9429951
  60.0101814  67.4762344  37.1077614  60.7721481  67.2883224  37.6557846
  59.3089104  66.9425812  37.4814873  16.8603745  25.2827034   1.3323061
  16.4693794  24.4102993   1.2847197  17.3417015  25.2846432   2.1596835
  74.2096786  49.8924065  54.7037544  74.1611557  50.8002777  54.4043388
  75.1465988  49.7216949  54.7999878  32.1488876  32.1279373  83.0241165
  32.4593697  32.8762207  82.5143051  32.6506882  31.3849430  82.6888657
  11.3636312  35.0487938  73.3269348  11.2960882  35.4135170  74.2093430
  12.1405916  34.4905472  73.3573303  69.7233887  45.9894676  28.0080833
  69.0454407  45.5327301  28.5060940  69.8670273  46.8038445  28.4901505
  66.9425430  37.4411507   6.4973617  66.1021118  37.6127205   6.0725451
  67.0095901  38.1130981   7.1757612  30.1091175  60.9514732  82.8301392
  29.5960159  60.2035255  82.5243149  30.2424412  61.4864693  82.0476837
  44.2113419  65.7567673  35.5058212  44.5953178  65.9245453  34.6452141
  44.0154762  66.6264725  35.8543701  17.0837841  16.5943012  84.9043961
  17.3293724  16.1630554  84.0858917  17.3062859  17.5149651  84.7661819
  14.5754976  44.1848068  33.9734192  15.4978161  44.1238403  33.7247391
  14.1254539  43.5920067  33.3715248  65.4968796  48.0419540  71.4420395
  66.0171967  48.4234581  72.1491165  65.7722473  48.5177650  70.6584473
   8.3320465   5.3671131  74.4598923   8.6839943   5.3688989  73.5697403
   8.9449644   5.9052501  74.9608612  20.0791035  28.9353771  81.2171631
  20.0479794  28.4761772  80.3778839  20.5971832  28.3638000  81.7838440
  64.1816406  43.6778526   6.6626062  64.9224319  43.0752907   6.5965199
  64.5716629  44.5475159   6.5743122  30.3384476  55.1172295  66.4865417
  29.4697266  55.4939537  66.3464203  30.7972088  55.7653618  67.0210495
  14.4004602  23.4361191  13.3644495  15.0725269  23.8915043  12.8573170
  13.6105528  23.5006866  12.8276901  12.4606009  11.3117504  71.7875671
  12.8877869  10.7442417  71.1459427  11.7711592  11.7553596  71.2934875
  26.2809467  63.9982338  60.7348480  25.6747971  64.5042877  60.1938057
  25.9066677  64.0378342  61.6149483  66.5383682  62.1625710  30.8942375
  65.8770981  61.5364876  31.1891556  66.9499207  61.7391891  30.1408443
  52.3332138   9.5699673  18.4019318  52.6709023  10.3260326  17.9217625
  53.0687943   9.2812710  18.9421234  20.5874424   5.0206947  51.0869331
  20.5948544   4.1048541  51.3651657  21.4623928   5.1691327  50.7282410
  55.4062576  21.3426399  79.4892731  55.9408455  21.1050186  78.7316513
  55.7034340  22.2212009  79.7260208  82.6520844  13.7874069  43.7891502
  83.4037170  13.2080345  43.6641998  82.2614822  13.8641186  42.9186478
  77.1472092   9.8859138  39.8160133  77.0793915  10.8285952  39.9676170
  77.3589401   9.5198441  40.6747322  42.2514267  60.6796913  51.3438110
  41.6738358  61.1171570  51.9693108  42.3078842  61.2860680  50.6053314
  66.8872986  13.8391237  26.0429325  67.2521744  14.6213980  26.4566326
  67.1763840  13.1165266  26.6001720   4.4750357  64.7700577   4.6293669
   5.1103191  65.4456635   4.3923030   4.9505363  63.9461861   4.5227466
  57.9678993  59.4984093  30.3239937  58.0642319  59.9057846  29.4631805
  57.0435715  59.6165962  30.5428143  47.2051506  45.1952438  38.3044662
  47.1567497  44.2632065  38.5170631  46.7705956  45.2699928  37.4548721
  66.9650650   3.9231083  17.3101006  66.7770615   3.5663037  16.4420109
  66.4716110   4.7426043  17.3442307  34.1876945  58.0946083  71.3745117
  34.7033195  58.5200272  70.6893997  34.8392944  57.7416344  71.9803696
  26.9455776  61.5240822  38.7082901  27.6016979  61.3254471  38.0402451
  27.3737221  62.1582375  39.2834167   9.3432159  23.6461239  61.0425949
   9.0846004  23.8581810  61.9394684   9.3640556  24.4910221  60.5932121
   8.5678520  63.1366386  18.8844738   8.6548061  64.0332489  19.2081337
   9.0053482  62.5999413  19.5453720  12.6822309  17.1590977   7.7247195
  12.8798609  17.3506908   8.6414890  11.9199085  16.5812817   7.7597365
  44.9436455  42.4327354  73.3288116  44.5673027  42.5376778  74.2026367
  44.4681091  43.0616798  72.7861023   1.4460520   6.5011244  44.9869957
   1.2397475   6.6218114  44.0601158   1.7495526   5.5954247  45.0488586
   2.9445963  23.0992355  71.0509415   3.6877925  23.0463772  71.6518555
   2.2275498  23.4392643  71.5861588  39.7008972  64.5548706  53.5846481
  39.7649994  64.4034119  52.6416817  38.8227386  64.9144211  53.7103271
  33.6138954  65.0114822  51.5289230  33.6476326  65.9095612  51.1994629
  34.4991455  64.6733932  51.3938255   2.7279534  66.3336105   7.7900205
   3.3462870  65.6193390   7.6360292   3.2789745  67.1096649   7.8917251
  39.8469048  52.2655220  65.7308578  40.6908722  52.3823814  65.2946320
  39.6215782  53.1378403  66.0541534  10.8571043  11.3799057  85.7582703
  10.2590780  10.9401264  86.3625793  10.5219831  12.2745171  85.6983032
  72.8618698  61.8803596  69.5871353  73.2122803  62.2699699  70.3881683
  73.5933228  61.3812256  69.2237320  68.1253357  20.7533321   6.4468560
  67.6230774  19.9426823   6.5294027  68.4447021  20.9284096   7.3320599
  32.1493645  53.1685638  80.7760925  31.4671612  52.8478088  80.1862259
  32.2469101  54.0933266  80.5490875  66.7471542  63.7384682  28.0796356
  67.6254883  63.5267906  27.7634773  66.8759079  63.9897499  28.9942455
  12.0921869  70.7088776  31.8959961  11.9373302  70.4400253  30.9904709
  11.2252369  70.9416580  32.2283211   4.9125347  64.9501266  44.8423233
   5.3694072  64.1167755  44.7281761   3.9927037  64.7436676  44.6764374
  70.3426743  66.7051010  18.2562599  70.6038361  65.8490982  18.5957870
  71.1518478  67.2163696  18.2475929  86.1925049  39.1388779  82.7609940
  85.4018021  38.9853783  83.2781601  86.0960846  40.0340309  82.4359741
  47.8740425   9.9996996  88.1012497  47.5239563  10.8542881  88.3529434
  48.7741165  10.1800375  87.8300018  49.7959023  70.8770599   5.4743581
  50.4622574  70.7455597   6.1488280  49.9318237  71.7761765   5.1754513
  47.8394394  37.7065125  59.7963943  48.0146828  38.5639153  59.4085960
  47.7932892  37.8742790  60.7376480  26.0208874   2.8477695  81.6476517
  26.8506832   3.1774094  81.9926300  25.3603687   3.1771753  82.2571106
  79.5359573  10.7987471  46.4000473  79.5951843  11.3267460  45.6038437
  78.7212906  11.0819407  46.8151932  13.1819410  64.3799973  34.0618439
  14.1189556  64.3400040  33.8704414  13.1356649  64.4755096  35.0131416
  31.5000877  34.8309021  87.7668228  32.2643661  34.4088974  87.3743591
  31.8668060  35.4809074  88.3661880  47.1895256  70.7613068   4.5281506
  46.7277336  70.9286880   5.3497119  48.1134415  70.7252502   4.7757664
  33.9860268  47.9101601   5.0632062  33.6221085  48.1908722   5.9028459
  34.1398811  46.9715347   5.1706495  83.7411804  63.6557770  52.6330948
  83.8945236  63.0914688  53.3909073  83.1276474  63.1632271  52.0879326
  85.9624100  46.9445305  71.5366745  85.3866959  47.3269157  72.1989212
  85.7254257  47.3935356  70.7252121  53.1653137  11.6750269  65.0858841
  53.0433006  11.5998459  66.0322952  53.5799637  12.5292368  64.9649582
  41.0742989  51.9033356  49.4843445  40.5822067  51.8057976  48.6691360
  41.9460640  52.1838074  49.2057838  16.9851494  56.6051369  68.3530960
  16.1958332  56.1721954  68.6783218  17.7007847  56.0247116  68.6123428
  68.2987747  50.3876152  33.7294121  68.6724014  50.4016838  34.6105652
  67.5086899  49.8537140  33.8127708  14.4111538   0.3981737  83.6662827
  14.4916248   0.1005507  82.7600937  15.2377644   0.1435581  84.0763092
  75.6477051  29.4497509  50.8041534  75.2632828  28.5731678  50.7969780
  75.4260330  29.8014469  51.6663628  10.0423450  44.6063728  12.6937160
   9.2035427  44.2108498  12.4566422  10.0111256  45.4825172  12.3094950
  36.8730965  51.1279030  36.8582726  37.3919029  51.8850632  37.1298943
  36.6393242  51.3116875  35.9484329   7.9578943  62.6460075  12.3917542
   8.5471687  62.3061790  13.0651817   8.2247181  63.5582199  12.2781591
  17.0648003  61.5894814  10.9841242  16.1737614  61.9382286  10.9585133
  16.9493847  60.6400566  11.0228605  36.6986046  38.6409073  64.9373245
  35.9505692  38.0436821  64.9358749  37.4432869  38.0914650  65.1818390
  81.8608322  65.5468369  26.7701092  81.9197235  65.2263107  27.6701260
  81.1051788  66.1343765  26.7740669  26.2615261  51.2177620   3.9644563
  26.5816555  51.5695953   3.1338158  26.1850872  51.9825706   4.5349483
  18.9685631  42.7644920  82.7316132  18.0501633  42.5829849  82.9311829
  19.4272633  41.9553909  82.9578400  66.2744980  22.9209251  72.1717300
  66.8845444  22.4950275  71.5694962  66.3982620  23.8571720  72.0156784
  48.0656204   3.1063237  25.9209290  47.6862946   3.0166483  25.0466862
  47.3310966   2.9596775  26.5169144  44.6393509  30.2449284  24.2542992
  43.8143578  29.8588009  23.9601498  44.7593079  31.0104656  23.6923447
   4.2443438   3.8506246  59.9235153   4.7145782   4.0235333  60.7391205
   3.4845028   3.3331785  60.1902046  38.1151695  61.3887100  79.2677383
  38.8142891  60.8567963  79.6479111  37.7076988  61.8207130  80.0184555
  28.6375046  69.5003967  87.3829269  27.7518997  69.1373367  87.3940353
  28.7258472  69.8897476  86.5129700   4.8287511  47.2477951  49.9402542
   5.2683625  47.1632729  50.7863235   5.5400505  47.2480431  49.2997208
  40.9738464  61.0678902  23.5067844  41.2286797  60.1456108  23.4804878
  41.7391434  61.5373917  23.1749306  64.6185074  36.8437920  25.6508579
  64.2558136  36.6410065  26.5131569  64.7893448  37.7852249  25.6782379
   7.9136691  65.4079971   6.5607452   7.5145812  66.0254593   7.1736913
   7.4781604  64.5751343   6.7421503  57.1221161  57.8550148  82.7566147
  56.5238495  57.1078720  82.7659073  57.0282555  58.2478218  83.6244431
   7.0781288  17.0268173  83.3761215   7.9596500  17.1061211  83.0116196
   6.7414103  16.2078590  83.0125885  81.6115952  41.1679039   0.9133997
  81.0283127  40.7761192   0.2633876  82.4017563  41.3921661   0.4218874
  81.6241455  57.7572327  79.0119324  81.9971161  57.0115509  79.4821320
  81.9906464  58.5248146  79.4509354  11.2336626  28.9685783  21.2216949
  11.5536680  28.2172546  21.7210350  11.4377375  29.7255878  21.7708054
  31.4174900  69.3468475  55.7793350  31.3635521  69.4364319  56.7308083
  32.3488274  69.4460526  55.5818405  84.8284912  50.4659195  74.3449936
  84.7588730  51.3855057  74.6014099  85.2110519  50.4901466  73.4679031
  38.0235977  29.8559113  84.2492905  38.5737457  30.6145248  84.0541534
  38.5448875  29.1035919  83.9691010   5.0996957  50.6749039  52.2844009
   5.7749701  50.4463387  52.9231453   4.4571605  51.1779213  52.7847557
  22.9643955  52.5278130  24.4137192  23.6539211  52.8701248  23.8448563
  22.1490936  52.7938881  23.9886093  48.9370995  29.0449810  17.3974457
  49.8042107  29.3380737  17.1173649  48.8205452  29.4353256  18.2636318
  75.6437149  56.7560310  34.7126846  76.2059555  56.1848564  34.1893463
  74.7530060  56.4951820  34.4785423   2.6886082  70.9966583  34.0831566
   3.2438068  70.2576447  33.8344765   2.6470587  71.5403824  33.2964745
  71.6492996  37.9385834  34.0514107  70.8885651  38.4919319  33.8744392
  72.3111343  38.2342110  33.4262657  12.2782822  -0.1993066   1.4912217
  11.4404135  -0.0531638   1.0520744  12.8963833   0.3592703   1.0198667
  11.4052601  66.9638901  43.4555817  11.5490189  66.0878143  43.8134384
  11.4980879  66.8542480  42.5092239  77.5020294  37.0831947  40.6110802
  77.3237762  36.1592293  40.4357338  77.6631393  37.1213226  41.5538521
  58.8961067  28.2245407  30.3776340  58.7802315  29.1540222  30.5747795
  58.5101433  27.7708454  31.1269150  23.5123405   4.8635554  31.6229095
  23.3458023   5.1498246  32.5209885  23.8157635   3.9600904  31.7118816
   0.2753557  51.1998177  10.8680506   0.8988779  50.5552635  10.5333843
   0.8189571  51.9369469  11.1461992  21.9706631  64.7449341  82.1060638
  22.8959694  64.5328217  81.9834061  21.8774872  64.8734512  83.0500107
  17.6943130  44.1440811  26.7898941  18.6080418  43.8609886  26.7553844
  17.4049110  44.1310463  25.8775864  58.5073509   4.6617236  80.3281784
  58.2401772   5.5648212  80.1571045  59.4304390   4.7272878  80.5727921
   1.3102373  68.6657257  24.3802643   0.3740420  68.5178375  24.5140457
   1.3660156  69.0869064  23.5225182  10.7074671  61.4448433   9.0600166
  11.1781063  60.7168617   8.6540909   9.9964504  61.0284615   9.5471649
  51.3110046   0.4750415  61.2052994  50.5764275   0.8132319  60.6931915
  51.5826530   1.2131975  61.7507935   0.2875842  34.6353035  32.8590317
   0.3627521  35.3762436  32.2577057   0.3862582  33.8634605  32.3015785
  71.8713150  18.0122280  82.8859863  71.5491180  17.7102680  82.0367279
  72.1130295  17.2103024  83.3493652  69.0364075  28.2772846  31.3389797
  69.3623734  29.0720005  30.9166031  69.7785263  27.9568729  31.8516407
   7.1284142  11.0215559  14.9592266   7.9861336  11.3205118  14.6572762
   6.5452309  11.7627802  14.7957792  18.0950890  68.9692307  31.9370575
  18.7860661  69.6125793  32.0948181  18.5096149  68.3017044  31.3904266
  65.4729691   5.9438930  16.2599068  64.6583252   5.6322460  16.6541920
  65.3306274   5.8588986  15.3171721  26.3711662  27.9861603  47.5458679
  27.1730976  27.6096764  47.9083557  25.8995228  27.2379932  47.1797676
  68.7238846  70.6458969  29.5406990  69.2019043  70.1809082  28.8540325
  68.7865067  71.5684814  29.2934227  66.1097565  27.0015125  67.3425064
  66.3767319  26.2017860  67.7957077  66.1627197  26.7791233  66.4130096
  15.6931953  55.8085632  75.1970215  16.5057507  56.3085556  75.1196213
  15.5250883  55.4861526  74.3115768  64.4356308   7.3940878  20.7240524
  65.1558075   6.7924213  20.9126568  64.8649979   8.2240648  20.5166626
  17.4294853  51.5867577  19.4044914  17.0471516  52.4095230  19.7096310
  16.9467068  50.9085579  19.8769302  14.7591095  53.6900520  63.4812431
  14.1397295  53.0488510  63.8297577  15.4181194  53.7848167  64.1689606
  66.3277817  28.6285305  22.1880894  66.6457520  28.2549305  21.3661690
  67.0137939  28.4263954  22.8242931  59.8471832  23.5298100  28.2952824
  59.4253082  24.2255363  28.7994804  59.2188606  23.3200226  27.6043186
  77.3645325  23.7434959  76.1877136  76.5186615  23.3097744  76.2999954
  77.5159454  23.7321396  75.2426376  35.7570190  60.0889435  38.2305450
  35.8113594  59.1449280  38.0818329  36.6278687  60.4171906  38.0067024
  13.5610409  65.2880478  28.4662533  14.0944977  64.5028915  28.3430309
  14.0771198  65.9922638  28.0738525  76.7197418  49.2160263  17.2207222
  76.1692657  49.6520767  17.8711567  76.6684647  49.7783890  16.4478397
  15.7391577  35.3818016  87.7537842  15.9562187  36.2732048  87.4808044
  14.7829170  35.3700829  87.7949982  60.5369606  30.7007141  12.0617056
  60.3324928  31.6254959  11.9231281  61.2741814  30.7072849  12.6721945
  15.6736889   3.9505136  58.7864761  15.5064821   4.0711670  57.8517494
  16.5435410   3.5528693  58.8248177   8.9163170  49.2350731  56.3371162
   8.1980352  48.6025505  56.3224335   9.6914806  48.7225990  56.1075020
  50.6179810  37.0468102   7.9867783  50.9591370  37.9336662   7.8713140
  49.6842194  37.1218910   7.7901044   7.0552754  59.9788017  44.0219040
   7.0049505  59.0295334  43.9096909   6.5763049  60.3342056  43.2732353
  56.9560509  15.5043373  47.0127487  57.3646545  15.6785660  47.8606377
  56.1015587  15.9323759  47.0661888  64.6855621  28.7834682  88.9243393
  63.9932327  29.3669300  89.2349548  65.3554535  29.3713093  88.5751648
  75.3028183  33.7868996  36.7918968  75.4801712  32.8462906  36.7862358
  74.3502579  33.8514404  36.7233772  81.7012558  46.7866440   3.9384620
  82.0908508  46.4679260   4.7526274  80.8579483  46.3370399   3.8844090
  79.2475510  39.0991020  72.9020157  79.3944168  39.0107651  71.9602890
  79.9887543  38.6456757  73.3035889  21.0436211   6.1830177  87.5250549
  20.4925938   5.7458735  86.8758163  21.5489845   6.8201957  87.0202332
  82.9921646  50.8867340  40.8653374  83.0208664  51.5352821  40.1619225
  83.4727020  50.1352730  40.5180244  77.3792648  47.6665764  -0.0249904
  78.2929993  47.8038750   0.2249486  77.1655273  46.7981567   0.3161764
  58.8975372  18.9343033  39.6548080  59.6724739  18.4598446  39.9557953
  59.1231689  19.8576546  39.7677040  16.2192307  62.8029861  23.2918320
  15.4803267  62.3057823  22.9410629  16.7355595  62.1568489  23.7736454
   6.4954562  20.7453823  64.0156021   5.7671452  20.1718884  64.2541428
   6.2881546  21.0394726  63.1286049  33.2260666  71.2269516   6.9401445
  34.1540260  71.4603043   6.9660997  33.0182076  71.1748276   6.0072408
   5.3179984   8.6582966  85.9039993   6.0988450   8.1071014  85.8520966
   5.3765697   9.2293377  85.1380310  70.4237137  69.4727936  11.8425884
  69.5730896  69.6611099  12.2390890  70.2708282  68.6952286  11.3056974
  18.2087231   8.4649839  57.4648170  18.6345310   8.0213070  58.1983528
  18.8317318   8.3853989  56.7424889   5.4646273  29.2082310  73.1938629
   6.1403899  29.7787991  72.8277664   5.6047864  29.2474518  74.1399384
  55.3066368  70.0459595  41.8362427  54.8336639  70.8655472  41.6920128
  55.4724960  69.7071304  40.9565125  21.6959839  46.5134354  63.4939270
  22.1154079  46.3868942  64.3449860  22.2306938  46.0037193  62.8852348
  39.2619820   3.9425719  65.1873245  40.0718422   4.4514899  65.1503830
  38.6343727   4.4537315  64.6763840  62.2403221  28.6328106  33.5186920
  61.3949890  28.9253845  33.8593407  62.1612968  27.6802425  33.4677048
  45.7489090  33.0740089   3.4354823  45.4828568  32.2446136   3.0385568
  45.8177490  33.6810150   2.6985691  13.9420271  56.0910492  27.5763912
  14.4802589  55.8557663  26.8206272  13.0962524  55.6762619  27.4065361
  83.9682388   2.6475427  63.8660011  84.5525055   1.8893507  63.8631325
  83.6797867   2.7310722  62.9571304  21.3689919  14.4955959  77.8092422
  21.2898846  14.2614317  76.8845062  22.3059845  14.4300737  77.9935989
  81.0810165  28.5815945   1.4850799  80.4628372  29.2580414   1.2084818
  80.6420212  28.1383476   2.2110605  39.7320099  41.9654961  77.5689316
  40.0196457  41.0924835  77.3018265  40.0028687  42.0373154  78.4841919
   8.5305042  71.8455734  22.6731243   8.0602283  71.0839233  23.0121822
   9.4394951  71.5540009  22.6027489  70.9015732  17.6081467   3.7670274
  71.5271835  18.0007172   4.3759108  70.1212997  17.4455051   4.2970695
  60.5909271  25.8842716  68.2949142  61.0965843  25.2947884  67.7353973
  61.0620804  26.7164669  68.2536850  50.7393875   8.9301920  77.5745392
  50.5312920   8.7543879  76.6569214  50.5689201   8.1012850  78.0218506
  58.5547676   6.7415981   9.3346233  57.6640434   6.9429774   9.0477695
  58.9584999   6.3135056   8.5796604  81.9613495  70.9295425  73.1476974
  82.7402115  71.4094925  73.4292145  81.6913528  70.4358215  73.9220200
  83.9655685  24.8325176  12.7040491  83.8165817  24.3684597  13.5278711
  83.5947647  24.2574043  12.0347376  16.3440399   0.0781201  39.9464569
  17.2211418   0.2675267  40.2796974  16.3614578   0.3830864  39.0393028
  32.7359467  40.1535835  12.4141226  32.6038628  40.2375145  11.4698019
  33.5685501  40.5958214  12.5797482  83.8348465  54.1644974  66.4008789
  84.3532944  53.4509697  66.0289688  84.3219986  54.4338951  67.1795578
  63.7526131  23.3931332  73.0727386  63.8417625  24.1589813  73.6399841
  64.6366043  23.2369881  72.7404556  64.0345230  40.2894096   1.6115875
  64.6121292  39.9744072   2.3068423  63.3234062  40.7332420   2.0737088
  75.6251755  46.0484581  21.4821186  75.6845474  45.3209076  22.1012917
  74.8402481  45.8613281  20.9672337  61.6453896  70.1351013  14.1216545
  61.3733788  70.8327026  13.5253382  61.2575836  69.3409653  13.7539854
  79.5200195  13.5413504  26.7082844  79.4594040  13.9311657  27.5804100
  78.7506027  13.8715115  26.2443619  69.4522018  58.2381096   0.7807845
  68.9647751  57.8235931   1.4927028  68.7776566  58.5370903   0.1710015
  48.2245064  40.0957413   2.5439639  47.4799881  40.6718597   2.7172096
  47.9227600  39.5188599   1.8422605  53.3122673  19.2730694  78.2197571
  53.1160927  20.1804867  78.4528732  54.2574043  19.2635899  78.0685654
   4.8043914  65.7107544  54.3559341   5.1782084  66.0973587  55.1477852
   4.2598090  66.4048538  53.9846115  69.0656738  66.5835571  82.6775818
  69.6630554  66.6690063  83.4205933  69.6204376  66.7121277  81.9082031
  56.7854614   2.1605945   4.1922741  57.2521515   2.9904299   4.2913098
  55.8612823   2.4078307   4.1607490  35.8983650  51.9173241  15.0011339
  35.5301018  51.9469795  14.1181097  35.1536674  52.0901375  15.5771456
   9.6388340  29.1304035  77.8585129   8.7375021  29.4495392  77.9030838
   9.9890366  29.5134125  77.0542145  37.5464134  27.6933117  11.9259968
  38.0719986  28.4869003  12.0270348  36.9637108  27.8839264  11.1909084
  61.5094376  67.3370590  13.2607317  61.4398308  66.7719650  12.4912806
  61.4933624  66.7334442  14.0034428  50.0505714  66.5004501  78.3298416
  49.9783745  65.5697098  78.1183243  49.7162819  66.5694733  79.2241135
  50.0404549  63.3662376   5.5851388  49.0919724  63.3255501   5.7074537
  50.4023170  63.1451302   6.4432745   4.7391472  16.1615524  33.6141281
   4.7801127  15.6233015  32.8236618   5.6342034  16.1573963  33.9533768
  56.0200729  45.4652634  67.4922104  56.2219467  45.6521873  68.4090195
  56.8466988  45.6076851  67.0310898  70.0231781  50.4801750  44.6875458
  70.7478409  50.0399361  45.1317101  70.3337860  51.3753548  44.5518837
   0.3144780  33.0430908  61.7928391  -0.0902549  33.9103088  61.7738953
  -0.0827232  32.6098557  62.5483322  63.0087585  31.7896824   5.6383767
  63.9639549  31.7516594   5.6872501  62.7687645  32.5212555   6.2070942
  76.3580780  55.7259827  16.3894825  75.7040939  55.1431694  16.7753201
  76.9860382  55.1373940  15.9706049  78.2056046   6.0929203  72.1981964
  78.7379837   6.7781978  71.7942200  77.4769287   6.5632420  72.6032410
  36.7771263  12.8309889  19.7280846  37.3460655  13.5219679  20.0673332
  36.0255318  12.8270378  20.3208103   1.0467945  48.9157372  75.4198380
   0.4439894  48.8567238  76.1610413   0.5620868  48.5374832  74.6862106
  29.0553207  24.1958275  82.2529373  29.2497597  23.2711411  82.1000366
  28.0997696  24.2364197  82.2917252  59.1252937  14.6335411  73.5848083
  58.2369423  14.4948816  73.9131927  59.6926956  14.3361807  74.2960434
  66.0960846  59.2627563  72.9568176  66.0204315  59.5256271  72.0395355
  65.9310303  60.0660057  73.4505615  85.7811584  48.7617722  17.6628952
  86.3658905  48.0910072  18.0156002  85.1431198  48.2736816  17.1424084
  69.0295334  65.4816055  78.3719101  69.0571213  64.7176285  77.7958832
  69.1561890  66.2279510  77.7861099   0.9965391  34.5033722  83.9637222
   1.4642713  34.6795959  83.1473846   0.5220771  33.6889496  83.7969055
   1.7844853  64.9088440  53.7973328   2.6030653  64.4996872  54.0779533
   1.8589127  65.8176880  54.0883751  13.8320551  32.8527870  30.0464268
  14.3709984  33.4881668  30.5176659  14.4080257  32.0992737  29.9171753
  67.4826050  29.3630314  88.0080948  66.8379593  29.9791908  87.6602173
  68.3288803  29.7599125  87.8018570  42.9983292  65.9902802  13.9988537
  43.1359978  65.6832199  14.8949509  42.0629501  66.1886520  13.9546871
  27.8891621   5.8486133  29.9386482  28.7763138   5.5001903  30.0269547
  27.3199406   5.1201267  30.1866913  23.2623863  58.4659767  35.3748245
  22.6935616  58.0790825  34.7092552  24.0453053  57.9152985  35.3702736
   5.9666471  12.7871313  56.7645226   6.5346994  12.6143465  56.0137253
   6.5120430  13.2943144  57.3658028  82.0477982  66.3441391  73.9544296
  82.4360504  66.0432053  73.1328812  81.1039963  66.3182068  73.7969589
  34.8046646   6.6072097  69.8407364  35.1466675   6.5747166  70.7341614
  34.2867355   5.8070011  69.7532883  46.7925873  38.0464859  25.9917183
  47.2848053  37.8034286  25.2075787  47.0643959  37.4092484  26.6522331
  45.4192581  59.3092766  72.6205139  45.2500038  58.5428352  73.1683807
  46.2784920  59.6214523  72.9042206  66.1985321  68.1794205  32.3439903
  66.0285110  67.8773422  31.4517593  65.5559311  67.7152863  32.8805351
   3.8084922  37.0577354  87.4948959   4.6684756  37.4741974  87.5516510
   3.6918476  36.6323395  88.3443985  68.1077347  48.1343231  40.3365936
  68.4313202  48.1744308  41.2365456  67.3537979  48.7239952  40.3266525
  21.0565033  53.5069847  68.6129990  21.3699474  54.1681709  67.9958954
  21.8483086  53.0508080  68.8979263  18.7656021  57.4896774   9.0510960
  19.0974522  57.9699249   9.8096924  19.0923748  57.9790382   8.2961292
  23.8228207  61.3484230  54.2897034  24.6264172  60.9403381  53.9673195
  23.2235622  60.6161118  54.4340744  54.3759804  44.9301071  18.3077946
  53.7174454  44.4477768  18.8077183  54.2279701  44.6662445  17.3996620
  18.3070889  13.9487410  15.3628778  17.8043823  13.9564848  16.1774063
  19.0955620  14.4531174  15.5632458  47.7136078  48.9177628  33.8080215
  48.0207634  49.5068626  34.4971123  46.9361877  48.5002022  34.1788216
  69.4149933  47.6934280  78.4710999  68.7870789  48.2825966  78.8892288
  69.3983459  47.9423943  77.5469894  64.0526962   6.5213261  51.7945786
  64.2918243   6.4540157  52.7189789  63.1427612   6.2262144  51.7604675
  59.6858673  70.8875504  55.8331833  60.3450890  70.8412018  56.5256500
  59.8239098  70.0930328  55.3175087  74.9130783   7.9501519  74.3963776
  74.3090210   8.6020899  74.7517853  74.3808060   7.4364948  73.7888641
  33.1278610  48.8714218  68.2098694  33.4560547  48.6903419  67.3291168
  33.9006386  48.8080902  68.7711487  63.4050903  68.2889786  11.5670347
  62.8519707  67.9430923  12.2675009  63.2192612  67.7264252  10.8152142
  62.0263405  53.2473335  46.1627350  62.6363602  53.5612183  45.4952164
  62.5340347  52.6169853  46.6737480   3.5901821   1.8672229  66.8665619
   4.0304494   1.4499148  67.6069946   3.7642245   2.8015995  66.9800568
  60.2228394  48.1988754  53.2447433  61.1383171  48.2495041  53.5196419
  60.2643166  48.0031242  52.3086891  54.3213463  54.3582649  43.2935028
  53.4734993  54.5573006  43.6907005  54.1088905  54.0779877  42.4032555
  64.2428513  22.2209244  76.3497925  64.1732254  22.2934875  75.3978958
  63.5210838  21.6438961  76.5994492  54.2431374  43.6399307  73.8510590
  55.0793114  44.0653038  74.0410614  54.4744644  42.7304344  73.6625519
   6.4974804  59.3429337  33.8999214   6.0756831  59.0398216  33.0959015
   7.1260991  60.0025139  33.6066246  17.4400139   1.4961472  44.8321075
  17.1834164   0.9792253  45.5957718  17.9827347   2.1987808  45.1898689
  45.7433205   0.2002700   6.7117281  45.1417542   0.6001593   6.0836844
  46.0908356   0.9376742   7.2134266  75.8557739  43.0897141  19.5649166
  75.7001038  42.9429398  18.6319351  75.9840622  44.0352631  19.6404915
  16.2558136  40.7628441  87.5055237  16.8097839  41.4992561  87.7644577
  15.5254736  40.7834892  88.1239166  52.3617668  59.4042511  37.1297607
  52.6966400  58.6964188  37.6802750  51.4176674  59.2512894  37.0909233
  50.8479996   3.3183985  87.2722321  51.3440933   2.6809924  86.7585754
  51.4024811   4.0985212  87.2860107   1.7234697  39.7807121   3.2830689
   1.8597703  39.2812080   4.0881453   2.0147471  39.1940956   2.5850224
   2.1484091  56.6142120  45.0409737   2.2014441  56.5575562  45.9950218
   2.1117947  55.7034836  44.7486229  20.1093369  38.5670547  63.7985458
  20.2134876  39.3176117  64.3834000  19.8794422  37.8413391  64.3788147
  53.1371155  47.1915207  51.7762375  52.6548042  46.5326233  51.2767792
  53.9478683  47.3193359  51.2837257   8.7086554  61.5632782  25.5576344
   8.4953451  62.4742813  25.7596226   8.4597235  61.0788155  26.3447571
  18.2391434  42.4228630   4.9013925  18.6989155  41.9180946   5.5722532
  17.7974815  43.1197472   5.3866906  65.0677109  53.9817619  74.2013016
  65.9392166  53.7621727  73.8719254  64.7787323  53.1923218  74.6590195
  85.6996918  40.7981033  65.8095016  85.3766022  40.2411804  66.5177917
  85.1803284  41.5991592  65.8787689  59.9447823  55.4267578  29.1480713
  60.4806595  55.5724030  29.9277210  60.5750580  55.3828773  28.4290047
  65.1046677  65.6045609   4.1568408  65.1401520  66.4680023   4.5684738
  65.7484360  65.6496124   3.4499035  71.1175842   7.0234995  69.3352356
  71.2241821   6.4760299  68.5573273  70.5946198   7.7669120  69.0350952
  17.4902744  58.3700294  81.3405685  18.0412521  58.9670677  81.8467331
  16.8146629  58.9316483  80.9606171  35.7161598  44.1544914   4.8471618
  35.0165825  44.7777939   4.6514187  36.5215988  44.6197014   4.6211662
  47.2216454  52.5389862   7.1982756  46.5450821  52.3707428   7.8541665
  46.8080139  53.1365814   6.5753608  55.3981972  48.3996086   4.0689807
  55.4330864  48.3250198   5.0226316  54.7406731  47.7570992   3.8023801
  78.5580292   7.0475802  59.3016510  77.8571243   6.7692986  59.8911667
  79.3632660   6.8818283  59.7918968  25.2442360  64.0880203   2.2415130
  26.0072441  64.0627594   1.6640966  25.5174809  63.6040039   3.0208044
  73.3694229  50.4743385   1.3381751  72.9061279  51.2966805   1.4973640
  73.6878815  50.5491028   0.4386062  37.3003197  21.9091396   5.7694926
  38.1530876  22.2141647   6.0793018  36.6816826  22.5690460   6.0826039
  57.6315880  30.6708641  21.1490116  56.9779968  31.3699684  21.1663609
  57.3441963  30.0574665  21.8253117  67.0574875  53.2327614  56.6128769
  67.4069672  53.7518120  55.8885307  66.4808884  53.8351593  57.0828590
  51.6964874  26.8639870  27.7780266  52.4840927  27.2816906  27.4295616
  50.9736977  27.3797169  27.4204865  81.7265625  10.2752886  28.2555466
  82.6172409  10.5412016  28.4840508  81.2161789  10.4416199  29.0480614
   8.3535185   4.3334460  69.3297882   8.6196165   3.7286830  70.0223770
   8.4431229   3.8272514  68.5223389  71.5342712  11.9717455  11.3186474
  71.5563812  12.6520042  10.6456022  72.4548950  11.8041077  11.5200920
  54.0296249  42.8615379  24.8841915  54.0158195  43.3850441  24.0829544
  54.0103264  43.5059624  25.5917072  73.9183350  27.8448181  19.1167812
  73.4849319  27.7586136  18.2676888  74.1482315  28.7721577  19.1752949
  77.2567825  29.6587296  66.2363892  77.8895111  29.5682049  65.5238571
  77.4312286  28.9110622  66.8080444   3.6966228  54.8760033  48.2129021
   4.4722295  54.9231796  48.7718620   3.5705752  55.7724800  47.9019852
  79.2018738  39.6567078  76.7600174  79.1978302  40.6138573  76.7513199
  79.8491745  39.4138985  76.0979919  43.9503021  66.5149155  77.2037354
  43.3249321  65.8610306  77.5161133  43.8590546  66.4976807  76.2510529
  30.6333981  66.6542740  85.8425598  30.5002937  66.6189499  84.8953171
  30.6686516  67.5892105  86.0447693  31.2109108  13.9163342  20.5424690
  31.6392632  13.9890823  19.6895599  30.3229885  14.2411318  20.3930340
   4.5009589  68.1280899  10.5191860   4.8059602  68.5984268   9.7433100
   4.1956711  68.8154068  11.1113205  23.4626389  68.9269333  49.4305649
  24.0187054  68.4664612  50.0590401  23.9447002  69.7282791  49.2263870
  19.6241283  56.1748352  29.6374931  19.5140076  57.1256371  29.6467133
  19.5985470  55.9218025  30.5602894  64.1532440  65.4449081  81.6405029
  63.7095604  64.6117859  81.4815216  63.9279404  65.9846649  80.8827896
  45.9091721  39.6452942  11.6019115  46.6897545  39.1728897  11.3125076
  45.9747505  39.6539574  12.5568228   6.6574326  14.7561636  50.5268364
   5.8604784  14.6508255  50.0072250   7.2559228  14.0920734  50.1847496
  63.4164925  58.8885727  81.6253967  63.5726318  57.9859886  81.3475647
  63.7787170  59.4228134  80.9185638  83.2687149  24.3975544  53.2848358
  83.9373016  24.8578453  53.7921371  83.4660950  23.4699364  53.4144363
  36.5687752   3.1141169  43.6333809  36.7904129   4.0452385  43.6223640
  35.6127930   3.0959804  43.6780663  43.3998909  66.4765549   7.0763307
  43.2640648  66.7051315   7.9958601  43.5272446  67.3172913   6.6368237
  31.9097099  51.1811676  66.8754501  31.2693520  51.4899292  67.5164185
  32.0332260  50.2558250  67.0869217   9.7502928  37.8780670  60.7836800
   8.9049721  37.4317894  60.8336945  10.3396006  37.3341064  61.3062248
  60.6426620  63.4065819  85.5021439  60.8804054  64.1597672  84.9613800
  60.6889954  62.6593513  84.9057159  82.5655365   4.9244180  20.8600521
  81.6802063   5.1528893  20.5768166  83.1381073   5.4647789  20.3156261
  16.6132698  60.0060005   3.5485318  15.7434778  60.2377167   3.8741128
  16.9150238  59.3171844   4.1407375   3.9348900  58.6882362  17.6956463
   4.1997252  58.2442245  16.8900738   3.5967369  59.5344315  17.4026661
  76.5881119   3.8228250  80.0196304  76.7943420   2.9100320  79.8183594
  77.2988052   4.1079140  80.5939789  72.5989532  48.5301094  63.3197098
  73.3357925  48.5133476  63.9304581  72.2613449  47.6344528  63.3270607
  27.7115192  13.1985426   8.7217140  26.7569332  13.2057581   8.7920246
  27.9782696  12.3933344   9.1652412  49.2970467   7.9010601  52.8228226
  49.1255379   7.8034706  51.8861847  48.7623444   7.2231946  53.2361298
  12.9710102  45.2271576  50.8399963  13.3273926  44.4900208  51.3358307
  12.2984695  44.8373260  50.2814674  86.3710480   2.2080004  82.3954391
  86.3818054   3.1518133  82.2362747  85.4688339   1.9447659  82.2139053
  78.0080795  13.4107285  77.2966919  77.8699722  13.6015730  76.3689346
  78.4492111  14.1885748  77.6381454  47.1435432  43.2891731  42.4019547
  46.6213226  43.6999550  43.0909920  47.4291534  42.4580154  42.7812042
  16.7689247  64.4149628  82.2264862  17.1227093  64.7581329  81.4059372
  15.8870068  64.1184845  82.0016479   3.9691787  38.5883026   8.5434599
   4.6437030  38.4161186   7.8864965   3.8423970  39.5366020   8.5137177
   9.0315046  16.3232708  42.2798729   9.0648632  15.3671999  42.3122177
   9.8203430  16.6062355  42.7423630  47.8245544   2.3292239  57.0939407
  47.1236153   2.6692855  56.5378151  47.6463394   1.3908784  57.1570244
  76.9591217  58.1842003  88.3917465  77.5391693  57.6600266  88.9440384
  77.0564804  57.8077316  87.5170898  64.8837204   7.0255523  77.6449432
  65.5370941   6.7585120  78.2914963  65.3088684   7.7258930  77.1499710
  86.8801117  11.6506004  34.8309059  86.6073456  10.8864479  35.3387451
  86.1625061  12.2755527  34.9343987   5.4069505  23.0977173  39.7654419
   4.9868808  22.3975525  39.2658997   5.9140844  23.5844479  39.1157188
  18.5709000   3.1852322  70.1726990  18.9860096   4.0347533  70.0236053
  17.9820404   3.3329830  70.9127274  51.7606430  59.4981041   1.5864615
  52.1939392  60.1561928   2.1299744  51.9100456  59.7932091   0.6882278
  18.2129192  35.8664474  25.9689121  17.9002190  35.0221405  25.6439552
  19.0608463  35.9883194  25.5418301  20.6916351   4.7656112  82.0183792
  19.8570080   4.4315825  81.6896667  21.2596340   4.7905278  81.2483215
  22.7424030  34.6043129  73.2930450  22.0725517  34.7586823  72.6269379
  23.3371410  35.3499298  73.2119370  67.1956863  62.9103355  20.6439133
  66.9681244  63.7241859  20.1943665  67.9928513  62.6102905  20.2071762
  80.7989578  60.5750084  32.7147179  80.3461227  61.3075981  33.1324310
  81.4619293  60.3086586  33.3517075  82.6139603  55.5289307  14.1406717
  82.4883881  54.6809082  13.7148561  83.1795807  55.3396072  14.8893147
  24.7755756  12.6735201  27.3952312  23.9156685  12.9069796  27.0455341
  25.3749447  12.7965765  26.6591301  80.8756256  27.4063816  57.0772934
  81.4452896  26.8860836  57.6438713  80.9311218  26.9777470  56.2232323
   9.9682722   7.5500479  87.8899460  10.7337008   7.5587130  87.3152466
   9.5730667   8.4143133  87.7755356  26.9714489  46.7016830  76.8393555
  27.5881824  47.3710060  76.5429077  26.6876411  47.0029335  77.7024536
  82.4739609  24.1191063  15.3604393  81.9839096  24.0057831  16.1748333
  83.3004227  24.5185337  15.6318226  65.1124344  40.1333160  50.4348602
  65.7492905  39.4646568  50.1827774  64.6303177  39.7423058  51.1634941
  38.1836128  49.2809486  30.9780502  37.4292831  48.7061386  31.1076946
  38.5797195  49.3557892  31.8462276  77.9581070  69.6412125  26.1679287
  77.2872238  69.2085648  26.6961002  77.9250488  69.1915665  25.3235569
  37.9427261  28.4037075  87.6561661  37.1330719  27.9100151  87.5259323
  38.6351395  27.7443085  87.6115341  24.0164032  69.3151703  29.4902687
  24.8356819  69.8096390  29.5129719  24.1279812  68.6361008  30.1555862
  65.2459259  20.8456593   1.8689128  64.8628540  19.9685192   1.8581393
  65.8464050  20.8356342   2.6142683  83.8701248   1.5101075  81.3283463
  83.6313324   0.6414250  81.6517639  83.0771255   1.8325795  80.9001083
   1.8868147  17.8001919   3.1870968   1.5457295  18.2823162   2.4338052
   1.1139386  17.6069355   3.7177060  46.2513008   4.7534347  47.2611618
  47.2076263   4.7461009  47.2209320  46.0317497   4.0477839  47.8695107
  51.7158585  24.4698944  81.1164169  51.2797699  25.2724171  81.4028015
  52.3560486  24.7634277  80.4681702  43.8609161  49.5650711  35.9450836
  44.6895103  49.0866776  35.9168167  43.6762466  49.6692924  36.8785019
   6.3792939  17.7545052  51.8370018   7.2977996  17.7869530  52.1044464
   6.1994643  16.8229122  51.7104034  58.0567093   2.0015056  71.0241928
  57.6265717   2.1899321  71.8582840  57.3376427   1.8139439  70.4208755
  50.4372406  71.3488541  30.6879158  50.1136856  70.4936218  30.4048462
  50.8467751  71.7205658  29.9066715  33.8343430  44.2205162  72.7934494
  34.4212646  44.5096512  72.0947723  33.9343948  44.8810387  73.4789734
  38.5918503  63.5980186  69.0502777  38.8746681  64.0435638  68.2516937
  39.0743256  62.7713165  69.0469971  28.5964928  57.7583160  72.5471878
  29.3634014  57.7883186  71.9751892  28.9370155  57.9723816  73.4157791
  38.1995506  17.8848076  86.2924728  37.3093300  18.2363529  86.2800751
  38.2102013  17.2348595  85.5898438   6.3559136  46.6721115  86.4235306
   5.4085712  46.6925049  86.2880402   6.7126880  47.1848602  85.6982498
  33.6337204  14.4547215  23.8041649  32.7325516  14.7051792  24.0076389
  33.5959969  13.5067205  23.6772690  84.0482635  36.9396896   1.0367110
  83.7917786  37.5821877   0.3751624  84.3973694  37.4641914   1.7573071
  72.5530090  11.4240150  70.7612457  73.4265976  11.7948694  70.8859024
  72.6280289  10.5232296  71.0761871  43.8013649  64.9895630  74.4774170
  43.5336342  64.1366043  74.8194885  43.3342133  65.0715408  73.6459808
  12.2087975  17.3449211  67.2366486  12.7402458  16.8827286  67.8848495
  11.3865433  17.5311642  67.6899033  71.9165878   7.7783365  66.0104218
  72.5750961   8.4366598  66.2322540  71.0806122   8.1975183  66.2145462
  64.1367645  10.3590202  30.6259212  64.7119675  10.1552830  31.3633938
  63.5355263   9.6157112  30.5786438  31.3545437   1.8226825  29.2379570
  32.2583656   1.7668997  29.5481567  30.8291874   1.5055500  29.9725723
  57.9200211  37.2348289  52.4271469  57.5734367  36.8880386  53.2492447
  57.8711739  38.1853752  52.5286522  19.4246101  51.4400787  37.9667206
  18.9350777  51.1903229  38.7504349  19.7148571  52.3354416  38.1408195
   0.8539748  25.8097382   6.5104661   1.0718306  25.6359215   7.4261947
   1.1262835  25.0187893   6.0451918  14.2416477  69.8021774   2.4454238
  14.9419203  70.3420029   2.0787606  13.4384823  70.2820663   2.2432740
  26.1911602   7.6305609  12.0368814  25.4028931   8.1226482  12.2664824
  26.3771133   7.8843422  11.1328640  62.8588257  47.6183853   6.1385870
  62.3956261  48.4559975   6.1293249  62.9230309  47.3699875   5.2164116
  62.4448204   7.1337557  14.3563852  61.8058777   7.8270354  14.1910238
  63.0968590   7.2387400  13.6635246  13.5206137  69.3774796  67.4076691
  13.6542549  70.2909241  67.6606445  13.8802652  68.8719940  68.1366196
  72.9471436  15.7043476  83.6158676  72.7051620  15.2976475  84.4478989
  73.1252975  14.9672060  83.0318222  85.8961792  47.8203049  10.4416389
  85.6529694  48.6222801  10.9041452  86.2839890  48.1251259   9.6213226
  71.2000809  37.3758392  51.2978783  70.5118256  37.9046860  51.7014465
  71.2226257  37.6672325  50.3863907  59.8276634   5.4610276  20.7435017
  60.6159401   5.5882487  20.2156124  59.6673050   4.5179143  20.7110481
  76.0297089  28.6340065  28.0273933  76.5991898  28.5214367  28.7884769
  75.1425095  28.5607891  28.3791828  12.4593611  66.5248871   4.5455127
  11.5928154  66.9121628   4.4216285  12.9583111  66.8037109   3.7776992
  66.9279099  50.5428047  48.4232712  66.2898865  50.7098389  47.7295380
  66.6955338  51.1608582  49.1162682  36.9043045  44.6734200   1.2534456
  36.1723137  44.9687729   1.7949123  36.5090942  44.4733124   0.4049189
  72.4856644  27.8184090  82.1184158  71.8244095  27.6400814  81.4497070
  72.3476639  27.1393776  82.7788010  42.3712578  23.8473492  56.8707008
  42.9297447  23.6278744  56.1249428  41.9058762  23.0346870  57.0687675
  79.9358673  14.8058262  86.3444595  80.5530701  15.1925707  85.7233963
  80.1382599  15.2295151  87.1785812  37.0146294  71.0106659  88.7090912
  36.1153107  71.2036896  88.9740448  37.0042686  71.0845795  87.7548065
  40.3085518  51.6800385  54.7864532  40.4023323  52.6225624  54.9246025
  40.5554123  51.5463676  53.8713417  36.4221001  28.5593204   9.5942783
  37.3316574  28.3167000   9.4208651  35.9850159  28.4710693   8.7472830
  35.9465218  61.2240906   3.7179451  36.6914330  61.4060440   4.2908607
  35.1847153  61.2619629   4.2962604  69.2972107  19.2962837  85.2127991
  70.1109009  19.7243996  84.9466095  69.5816193  18.5118446  85.6818390
  26.6594982  63.3858528  67.0930634  26.1129646  62.6108894  67.2233124
  27.3565807  63.2993698  67.7433167  37.2112427  37.7410240  19.2238464
  37.0855904  36.8161507  19.0115967  37.9382858  38.0180855  18.6662827
  61.4204216  65.5932007  83.1172791  61.5061760  66.3454056  82.5315628
  60.9100800  64.9567261  82.6165924  85.0771866  18.8994102  16.0734673
  85.9890060  18.6448822  15.9319334  84.5845795  18.3957577  15.4254646
  41.0108032  45.1023140  75.9518967  41.7358665  45.5466614  76.3912964
  40.2509842  45.6595421  76.1204300  25.8641682  37.0627289  12.7129574
  26.4574642  37.1421661  13.4598980  25.6487217  37.9660835  12.4810810
   9.8237476  54.2292976  47.7735176   9.2882690  54.9751205  48.0441589
  10.5377293  54.6179237  47.2681160  62.7819023  30.8986740  85.7426987
  61.9270020  30.4685612  85.7232513  62.6840019  31.5970154  86.3899765
  31.1666946   5.2729397  52.7520485  31.4010563   5.8790522  52.0492439
  30.2140484   5.1982708  52.6961861  76.4982071  16.0718174  19.0196476
  77.1049194  16.8121624  19.0147572  76.6057281  15.6797628  19.8862286
  41.6098480  37.4522285  80.4585648  41.7911797  37.8586235  81.3060303
  41.7449646  36.5164490  80.6078796  77.7655640  20.0158539  58.3312454
  77.2151337  19.2368050  58.4108543  77.3479462  20.6632557  58.8993073
  57.7586594  11.0695515  10.2159853  58.0813522  11.1826906   9.3219500
  57.0179443  10.4695272  10.1291323  51.8303490  62.9325523  28.0804176
  51.3464584  62.1475410  27.8238277  51.2788620  63.3478203  28.7434731
  75.6903458  23.1697769  67.9467621  75.2501450  22.3250828  68.0413208
  74.9925003  23.8165607  68.0512238  66.7256927  52.4333954  12.7451992
  65.9805603  53.0337372  12.7207108  67.4812012  52.9961624  12.9146957
  35.8660278  17.4695911  13.0286503  36.4969673  17.6711998  13.7196665
  36.1687965  17.9736786  12.2733622  56.5902824  13.1440878   1.3949698
  56.5380859  13.0159245   2.3421137  57.4044266  13.6300125   1.2635347
  46.6465797  16.6599216  85.6025009  45.8676567  16.5961933  86.1551743
  46.7666855  17.5995941  85.4653015  25.9226036   5.9375019  33.8876419
  25.8468189   6.8102007  33.5017853  26.6702309   5.5416865  33.4397392
  65.1226273  13.4987583  73.1446533  65.3885574  13.4996128  72.2251358
  64.7358856  14.3633623  73.2829285  18.9193993  21.4179249  12.6998968
  18.0915470  21.0245380  12.4239645  18.9688835  21.2380447  13.6387405
  64.6058502  13.9560223  58.5183258  65.5341263  13.7267437  58.5627480
  64.5035553  14.3763285  57.6644478  70.8854828  29.8448315   8.6392450
  69.9805832  30.0861816   8.4414177  71.3517914  29.9652328   7.8120275
   3.0027325  38.4829445  72.5652466   3.4532356  38.4759293  71.7207184
   3.5432649  37.9302139  73.1296463  73.0069580  48.3722839  21.3148975
  73.4124603  48.2247124  20.4604836  72.8531876  47.4935875  21.6620064
  56.7994347  32.2179375  35.9580917  57.0529594  31.5055408  36.5449867
  56.6981392  32.9769096  36.5324860  32.2431145  64.8119888  87.1912308
  32.6468849  65.3242645  87.8917770  31.5941257  65.4014130  86.8070068
  60.0476952  31.0026321  60.2787476  60.1228027  31.5607376  59.5047302
  59.1107483  30.9889164  60.4741364  44.3733711  50.2760849   9.3214293
  43.5725899  50.4648285   8.8321877  44.3849144  49.3224602   9.4032412
  34.6231270  71.2616882  24.5315990  35.4988098  71.4745407  24.2089481
  34.0302353  71.6363220  23.8801727  15.2739840  23.0589447  18.7326641
  14.8709583  23.6152401  18.0660782  15.8941994  23.6336880  19.1812572
  84.0578918  32.9610939  53.0296135  83.8586807  33.8819923  52.8608131
  84.7679520  32.9833336  53.6711349   8.3364334  61.7817802  48.6852226
   9.2707386  61.9898796  48.6853142   8.1980562  61.3010025  49.5012703
  42.9812813  16.6370754  72.5849228  42.5198631  17.3713074  72.1796722
  43.5739326  17.0455437  73.2159119  40.1466599   4.1064582  56.1925278
  40.8875694   3.9514456  55.6066475  39.5824776   3.3425753  56.0724716
   0.1420892  59.0914764  32.7563934   0.5327916  59.3490753  33.5913925
   0.8811564  58.7864342  32.2301216  51.5957184  14.9491329  80.3846130
  52.2711487  14.3109379  80.1549683  52.0758667  15.6697321  80.7925644
   2.9173503  16.3503475  75.9931259   3.1271191  15.4862003  75.6389008
   2.4841537  16.1686268  76.8271255  57.4926453   7.9918838   3.9932647
  57.2667809   7.1649041   3.5674438  57.4356117   8.6441936   3.2950730
  17.3844585  37.2076988  30.8290558  16.8043270  37.7288933  30.2740479
  17.7025356  37.8241920  31.4885960   4.6948857  13.7156687  83.7360382
   5.5639586  14.0362711  83.4948730   4.3412728  14.3929052  84.3126984
  65.1065369  44.2013016  74.2112427  65.8407822  43.5935707  74.2994308
  65.4619446  45.0474129  74.4832993  64.3315659  27.8612537  38.1392365
  64.1975937  28.7295341  37.7592773  63.5286598  27.6884727  38.6308899
  64.3857803  36.5992317  40.1467476  65.2663345  36.7852211  40.4727364
  64.3249817  37.0904427  39.3274536  48.2013969  66.1672516   5.3345280
  47.4949646  65.5754318   5.0758123  49.0033951  65.6816025   5.1417208
   2.4382799  55.4513550   7.1515493   2.9376876  54.7744522   6.6947927
   1.5921861  55.0426445   7.3340745   1.0621929   5.3666172  56.1893654
   1.5087715   5.2314019  57.0251389   0.6152304   4.5373549  56.0197182
  76.9195404  55.2846985  60.2834473  76.8168182  54.9943237  61.1897392
  76.3740845  54.6836281  59.7760735  79.6216736  64.0561600   0.2522478
  80.5045090  63.7013206   0.1477202  79.0863800  63.2997704   0.4921949
  55.8287392  27.2484436  20.8427124  56.5294724  27.2663898  21.4945412
  55.5894661  26.3242073  20.7736626  34.6542702  62.0175819  47.6677666
  34.3081360  61.3485870  47.0771141  34.3945351  62.8476143  47.2679939
  55.1004944  58.7609596  72.5084686  54.2203865  58.3977661  72.6071472
  54.9865952  59.7027931  72.6357880   4.9376707  63.0206375   1.2576573
   5.2593188  62.5326538   0.4996026   5.7195001  63.1884880   1.7837768
  82.3388290  66.9995728  53.8594894  82.6672897  67.8118439  54.2449188
  82.4544220  66.3441391  54.5474434  82.9182053  22.7233639  23.3000736
  82.8446350  22.3093548  24.1599674  83.5139160  23.4596291  23.4389095
  45.8415756  51.0785751  51.6832352  46.7909622  51.1463242  51.7847557
  45.6964951  51.1422577  50.7392387  44.6799164  68.2616272  38.9565277
  44.5210533  67.3182373  38.9881973  43.8303337  68.6401215  38.7302856
  69.6695404  37.0844765  81.9312592  69.5672531  37.9896698  82.2251968
  68.8784637  36.9070549  81.4223862  25.7490578  69.6887589   4.3787837
  25.9631996  69.8582611   5.2961941  25.3463287  68.8204117   4.3833299
  80.2864304   5.3110995  53.5973969  80.4752045   5.9312611  54.3016701
  80.7078018   5.6894984  52.8257179  61.6285820  32.7291222  53.6674194
  62.4451408  33.1650772  53.4236755  61.4668121  32.1088142  52.9565887
   8.0247288  32.7561302  77.4568329   7.1974664  32.8798790  77.9221878
   8.0650368  33.4879913  76.8412094   1.6151519   0.0578074  58.3001442
   1.0188893   0.7615501  58.5559731   2.2038355  -0.0412002  59.0483971
  32.8396568   6.8676357   0.5691053  33.0344086   7.0860372   1.4804803
  33.6945992   6.8504558   0.1389751  86.4618073  22.7239723  12.6599474
  87.4082489  22.8546829  12.6016493  86.2466660  22.9332218  13.5688801
  83.9109879   1.2803034  54.1667747  83.2716599   1.8954656  54.5260315
  84.5928345   1.2252450  54.8363113  46.9324303  63.8038559  29.1921425
  46.2657394  63.1847267  29.4895229  47.5206337  63.2796707  28.6485615
  81.1002884  65.0962524  35.3463707  80.4817886  65.7545166  35.6631966
  81.5938492  64.8371887  36.1245193  28.1891880   8.0452290  43.0450249
  27.4512615   8.2028408  43.6339684  27.8331814   8.1959114  42.1693611
  32.1891212  55.7386131  22.2344627  32.5003548  55.9540977  23.1136284
  31.3516197  55.2979622  22.3781796  69.6719589  16.8395119  65.8613968
  68.8698654  16.3333111  65.7324219  69.9758606  16.5886192  66.7337036
  43.6769257  55.8003922  47.4853401  43.3087273  56.3402252  48.1847954
  44.6108398  55.7490578  47.6888046  73.5838852   3.5911095  63.2359924
  72.9644012   3.0687323  62.7264900  73.0326538   4.1339083  63.7996750
  81.8772125  12.4143572  40.5978737  81.5311813  13.3048506  40.5385818
  82.7174225  12.5132113  41.0456505  76.3400803  69.4127426  17.5760136
  75.5208435  69.8254852  17.3026409  76.9469299  69.5849533  16.8560772
  10.0983820  45.9743195  29.1126709   9.8425322  45.2565994  29.6920261
   9.3175611  46.1476173  28.5868206  77.8883209  11.7877970  15.1167212
  77.9547272  12.7372808  15.2182302  78.7556152  11.5179777  14.8146648
  66.9862976  48.4186211  55.4181213  66.4713821  48.3266449  56.2197685
  66.3342819  48.5270195  54.7257652  40.6637650  25.2504578   1.8517981
  39.7602348  25.2522717   2.1678045  40.9079285  24.3251858   1.8297251
  61.9021950   3.3734314  83.1365204  62.5822105   3.9969108  82.8814011
  61.3891602   3.2392046  82.3396454  32.0018311  30.0306015  13.8610659
  31.0999260  29.8140469  13.6246328  32.3686714  30.4252396  13.0699139
  40.0381699   1.0370892  14.0863476  40.0569000   0.2123218  13.6009197
  39.4420013   1.5953239  13.5871630  76.3233948   1.0654780  75.1735153
  77.2469101   1.1919976  74.9559250  76.1531296   1.6974527  75.8719788
  66.4266586  18.5333080   6.7894077  65.9511108  19.1935844   7.2935076
  65.7415619  18.0146446   6.3676715  85.1610336  56.1775894  79.3809509
  85.1060867  55.5816154  78.6339417  84.4307327  55.9228058  79.9448395
  62.1576653  68.1416016  52.0098572  61.6835327  68.7051086  51.3983917
  62.9667931  67.9169998  51.5504074  75.4455032  45.0965271  12.4344158
  75.2017365  44.5697327  11.6732998  76.3678970  44.8889427  12.5838852
  45.0495720  67.5258484  16.0767689  45.1743813  67.4264984  15.1329556
  45.2495117  66.6618805  16.4370613  26.0418472  63.0799217  86.0956345
  26.7355766  63.5711708  85.6555786  26.4477844  62.7626076  86.9023285
  11.6151114  19.5856552  54.8092766  12.3320236  20.2101498  54.6984825
  10.9572077  20.0634232  55.3143845   2.5500393  48.6779861  81.2805710
   2.0063336  49.4411240  81.4761124   3.4483411  49.0047760  81.3305054
  24.4008389  63.8875809  69.2573624  23.4532375  63.7710724  69.1887360
  24.7409897  63.0044060  69.4006271  71.6659851  63.6250687  83.8462906
  72.2945099  62.9358940  84.0613022  72.2046432  64.3501282  83.5294800
  44.3393669  19.1855679  15.5398149  43.6562386  18.6918335  15.0861692
  43.9468651  19.4203930  16.3806667  41.9433632  54.8039970  70.2088470
  41.4293709  54.3946152  70.9048691  41.5583115  54.4699936  69.3986588
  76.5637665   0.3973324  24.4307289  76.8090973   0.6749500  25.3133240
  76.6904984  -0.5514353  24.4341774  67.2910233  25.5917149  71.1726227
  67.3798141  26.5037041  70.8958054  67.8673325  25.5150280  71.9330292
  21.7298660  22.7356224  53.7870064  21.6509666  22.4271088  52.8843269
  20.8260117  22.8375397  54.0851555  13.8656673  34.0416527  73.5367889
  14.3267355  33.2256508  73.7311783  13.9762354  34.1603546  72.5934372
  12.7364264  34.7587700  28.4082966  13.4762154  35.1787300  27.9694595
  13.1347752  34.0785599  28.9513111  67.1877747  63.8587074  43.1265450
  67.4511719  64.7704163  43.2515755  67.0981979  63.5114174  44.0140114
  15.9897804  31.3967991  59.2414589  15.5519705  31.1855621  60.0660400
  15.9654922  32.3525810  59.1953773  79.2871399  68.2627335   6.9080877
  80.1439285  67.8636551   6.7568150  79.4824524  69.0888596   7.3503647
  32.4777565  25.1963158  84.1658859  32.6122932  25.7269707  84.9510803
  32.4743538  25.8285522  83.4472122  61.9895325  49.6760902  64.8060913
  62.4782524  48.9625435  65.2162552  61.0797577  49.3786278  64.8136826
  84.2267303  16.9157600  23.1392021  84.2727356  17.7357712  22.6475773
  83.8857651  16.2788372  22.5112648  53.5421753   3.2167439  36.7378044
  54.3943405   2.9597201  37.0899239  53.1311417   3.7143447  37.4446831
  21.4146538  40.3302307  89.3992233  20.5032825  40.0384789  89.3765030
  21.6881275  40.3332024  88.4819260  58.0058975  44.5196266  51.8832474
  58.1887131  43.5822983  51.9482384  57.7212181  44.7696419  52.7622719
  20.3957710  59.0512886  29.4416103  20.1035156  59.7168007  28.8187828
  21.2558441  58.7823982  29.1188049  13.7473145  12.0770626   6.9268517
  14.3331871  11.3476667   6.7244482  13.7070732  12.0937128   7.8830605
  84.4778290  28.8577461  12.5034199  84.8621674  28.9309883  11.6298342
  84.3205795  29.7627735  12.7725525  73.2478561  19.4412212  54.7057724
  72.4455643  19.4599800  55.2275009  73.1231842  20.1272202  54.0499611
  17.6059990  34.3039284  73.4581070  18.1857681  33.9802971  74.1475677
  16.9651432  33.6035309  73.3357162  79.7813187  12.6765003  23.8467102
  79.3577118  12.0505447  24.4340534  79.8824005  13.4690208  24.3738976
  46.8771858  20.2100220   0.6658521  46.3239136  20.9873428   0.7426348
  47.2393799  20.0862217   1.5431890  62.4232941   0.8447044  33.9501991
  63.0745659   0.2833892  33.5294838  62.7519760   1.7338728  33.8176155
  71.6035233  35.3102608  12.0397816  71.2158356  34.4466400  12.1815157
  71.7324448  35.3624268  11.0927391  49.3626099  11.7700443  68.9639816
  48.4436531  12.0211725  68.8707886  49.5640411  11.2950306  68.1577454
   6.4780040  65.2880936  51.7435684   5.6246800  65.6750412  51.9393768
   6.2724533  64.4813995  51.2711029  53.6785049  32.6009102  71.1232147
  53.3010521  31.8011837  71.4895477  52.9632416  32.9972649  70.6256790
  63.5140991  37.7161484   0.3850403  63.8429146  38.5698509   0.6666554
  62.5840073  37.7313881   0.6107255  77.0333252  19.0468616  84.9638290
  76.4477234  18.3464489  84.6762161  77.5620956  19.2490444  84.1919708
  32.2185745  64.5976639  41.5164452  31.8326054  63.9844093  40.8909988
  31.7744808  65.4277191  41.3431854  80.2205276  12.4415321  13.7467031
  80.7302094  13.2488832  13.6785946  79.7445602  12.3881321  12.9179468
  22.8479900  56.5956039  64.4103622  23.3561668  56.0397758  63.8195648
  22.3094120  57.1330223  63.8295517  46.7511101  51.4981079  20.1753235
  46.0526199  51.5225487  19.5213013  47.5580750  51.4540863  19.6623898
   7.9779830   9.5062208  57.3950653   8.5290537   9.6900415  58.1558304
   8.5611067   9.0638676  56.7782021  53.0023956  19.9708786  15.5837011
  53.0953484  20.5728607  16.3220844  52.3876228  20.4078598  14.9943466
  27.8316174  12.0790472  75.5070496  28.2263107  11.2469330  75.7678833
  28.1537704  12.2287531  74.6182098  69.2646027  46.0676079  18.8283901
  70.1675720  46.2793694  19.0651073  69.3375778  45.6101418  17.9907551
  27.8448524   3.2950830   4.8539467  28.0135994   2.6881974   4.1332207
  28.1926575   2.8510919   5.6273389  27.8636360  39.1662674  78.9863052
  28.3763027  38.3640213  78.8873138  27.9481449  39.6101723  78.1424789
  26.5948753  46.0042038  16.4424286  25.9368839  45.5718918  16.9868374
  26.3625469  45.7599525  15.5465508  55.1233864  36.2355537  18.1333027
  54.1691132  36.2899361  18.1846695  55.4330292  36.7476044  18.8804016
  82.9010086  15.2748976  67.8349991  82.8836975  15.3316107  68.7903595
  83.5475769  15.9282532  67.5679550  84.8963547  14.6269188  82.5272446
  83.9422302  14.6041288  82.4539948  85.1304016  15.5330963  82.3265076
  72.4865494  35.1518250   9.1689777  72.7419205  34.4611359   8.5574512
  73.3050690  35.4125710   9.5911894   0.5398569  67.0734406   1.5374529
  -0.1546757  66.4806747   1.8246448   1.3323956  66.7324448   1.9519817
  32.1973190  63.3707542  21.7534161  33.0242043  63.3199081  22.2329082
  31.6899357  62.6238327  22.0710621  76.8271255  66.8894119  59.0738716
  77.6313934  67.2746811  58.7260933  76.9347458  65.9478989  58.9389763
  27.7614365  40.7219925  17.5118542  27.0015125  40.8183556  18.0858421
  28.4884739  40.5363655  18.1061535  49.6152573  25.5758953  82.7862854
  49.3115349  24.8123760  83.2772293  48.8994446  25.7722950  82.1819077
  59.6529465   8.0253773  30.1166515  59.3639603   7.2970705  30.6664600
  58.8780212   8.5801058  30.0271854   6.5153623  44.9587288  36.1567230
   6.1796508  44.8071518  37.0402145   6.6500864  45.9052887  36.1108208
   9.0190487  40.5940094  16.3741131   9.2736254  39.8414536  15.8401842
   8.2216864  40.9232216  15.9593039  30.8715801  10.8304729   3.0056231
  30.9975529  11.4060040   2.2512181  30.0338554  11.1046629   3.3788109
  23.1725407  68.0123749  21.4227505  22.6643600  67.2320633  21.2011814
  22.9686508  68.6366882  20.7264061  85.0717926  34.8654022  61.0773087
  85.5423584  35.4837112  60.5182991  84.1685104  35.1821136  61.0773582
  31.5999718  11.8659878  87.7991562  31.7997837  12.1531973  88.6901245
  31.6259708  10.9101973  87.8441162  63.7575073  39.0339279  52.5937843
  62.8440781  39.3060760  52.5054131  64.0031281  39.3032990  53.4788513
  24.1029415  43.4534836   4.3900762  23.6521873  42.8975334   5.0256639
  24.4147167  42.8460884   3.7191849  56.7975121  71.4634399  27.8087139
  56.7279015  70.9484024  28.6125355  57.0051155  70.8212128  27.1299839
  24.6162262  64.1709671  49.3807869  23.8157539  63.8752899  48.9471359
  25.0232697  63.3678513  49.7056847  26.8506031  67.0038528   5.4155278
  26.9553242  67.6969604   6.0673413  27.1189384  66.2052460   5.8698974
  16.0127583  25.9208221  19.8618679  15.2397270  25.5975399  20.3246231
  16.6203480  26.1726208  20.5573273   3.9290235  38.3848152  70.1262054
   3.3692579  38.6311874  69.3898697   4.7314181  38.8904190  69.9967499
  84.4568634  13.4467707   2.5883551  84.3332062  12.7005405   3.1749392
  83.8372345  14.1046343   2.9037976  81.9181290  49.5419426  23.2372952
  81.1244659  49.2336922  23.6746807  81.6720657  50.3877411  22.8627148
   0.0801178  46.8996086  84.6355591   0.0524481  46.2248497  85.3139191
   1.0131053  47.0328674  84.4682007  72.5744858  34.6866264  56.7191162
  73.1550217  34.9913864  56.0217438  72.1358414  35.4789696  57.0289688
  38.8205681  62.4660645  66.1449127  39.5723991  62.6713295  66.7006531
  39.1996803  62.0362206  65.3782730  12.3682404  43.4724884  36.1548462
  12.7027454  42.7386742  35.6392326  11.4437780  43.2663612  36.2930908
  53.7902451   0.1456651  27.3432961  53.6465759  -0.1114477  26.4325371
  54.7209930   0.3649721  27.3862877  14.9727297  30.0409241  88.6412201
  15.1027966  30.8416080  88.1330643  14.1723804  30.2018013  89.1410065
  69.2377548  33.1173935  37.9290237  69.8038406  32.7304497  37.2611542
  69.7631683  33.0979691  38.7288933  64.3572998  54.4283066   9.8024139
  64.3115005  55.2748375   9.3579826  65.1456528  54.0152092   9.4501638
  22.5729733  14.7828283  75.0797653  22.1802273  14.4652863  74.2666550
  22.6220875  15.7321253  74.9672699   1.8910583  35.4697456  37.6335144
   1.2523127  35.1436653  36.9995537   2.2746046  36.2392883  37.2128830
  23.2606888  56.2917366  47.5750160  23.2606239  55.3423042  47.6967049
  23.7541618  56.6290016  48.3226585  24.7984276  64.2102280  73.3516159
  25.6737289  64.4967728  73.0909042  24.9540730  63.5417480  74.0188065
  67.7617493  37.2044640  63.9623947  67.7621841  38.1247330  64.2257156
  66.9269562  36.8637772  64.2837753  43.9997101  56.9256287  78.1779861
  43.5642776  57.7725143  78.2750168  43.3678360  56.3842468  77.7048340
  48.5409775  67.8721085  52.3494377  49.2828102  68.0842972  51.7829666
  48.0036964  68.6642914  52.3472939  52.6977730  63.1425743  49.2329979
  52.9197350  63.3242760  48.3197899  52.3942337  63.9825058  49.5773964
  38.9103966  15.9519329   8.0799475  39.6467285  15.5407619   7.6271911
  38.2816772  16.1483574   7.3854260   0.9364814  11.2529888  67.7159882
   0.4149181  12.0062790  67.4389343   1.3757855  11.5463867  68.5142059
  71.6456604  51.4412384  74.6574249  72.0300980  50.5986481  74.4155960
  71.5489197  51.9075012  73.8270798  69.8422775  56.4420090  59.7072678
  70.1346512  55.5805092  59.4096642  68.9754868  56.2846413  60.0816078
  50.1613083  52.6610260  22.1815586  49.7134552  52.7500343  23.0228291
  49.8286667  53.3879204  21.6550522  62.2701454  41.9686089  79.3228531
  63.0003204  42.5086899  79.0205536  61.6502228  41.9740181  78.5935364
  52.0176849  54.4739799  44.6899338  52.1007767  54.5827255  45.6373024
  51.2252960  54.9600258  44.4616470  47.7552757   8.1459780  45.4519501
  47.2522354   8.3802557  46.2318840  47.1319618   7.6775932  44.8966751
  10.7281027  12.7206516   6.0574312  10.6047611  13.4870243   5.4973488
  11.3706760  13.0011587   6.7090807  81.5022125   5.3235388   3.7805159
  82.0576706   5.7935200   3.1585677  81.9487839   5.4209170   4.6215429
  48.4808884   3.9883671  11.7702827  48.5706253   4.0471988  12.7214499
  47.7618561   3.3711162  11.6352663  34.7260742  25.1404533  23.3469124
  35.1387520  25.9955559  23.4682636  34.7154503  25.0120754  22.3984184
  32.6715431  70.6110306  73.1725616  32.3407516  70.4531326  74.0567932
  32.8897896  69.7405853  72.8394928  82.2678375  66.3356400  84.7130127
  81.9110107  65.9385071  85.5074921  82.3053436  65.6168594  84.0820007
  45.1351128  44.5188675  66.3147278  44.3221397  44.7074509  65.8459549
  44.9084816  43.8036041  66.9090881  75.7294922  55.5827370  21.6331272
  75.9390182  54.9892006  22.3542671  74.9960480  55.1634026  21.1831760
  57.4670677  24.2178631  22.5018902  58.3563309  24.0699825  22.8237209
  56.9838638  24.5286636  23.2674961  18.4258842   8.7507477  23.5055943
  18.7966366   9.4114552  22.9205818  18.6483898   9.0572586  24.3846684
  29.8979111  38.8939095  14.4453373  29.6732292  37.9638214  14.4715347
  30.8389587  38.9081573  14.2708120  85.1452026  33.7279739   6.7299633
  85.1303024  33.8447952   5.7800355  86.0065765  34.0486565   6.9972358
  23.9326839  46.1298218  82.6592407  24.7004528  45.7089806  83.0460892
  23.8415775  45.7183647  81.7997971  54.9861336   0.6080521  13.9120359
  54.5594902   0.9574986  13.1296711  55.7852745   0.1950837  13.5848265
  79.8201904  56.4670944  59.8781013  79.6997452  56.9921417  60.6693344
  78.9614029  56.0762672  59.7169647   4.1615872  36.5492020  22.8800716
   4.1121535  36.7800636  23.8076973   4.1260619  35.5927238  22.8690739
  52.7549934  69.7195129  28.8252239  52.1659050  69.1984100  28.2796402
  52.8654594  70.5391464  28.3433151  67.2980881  27.2312126  16.7825298
  66.7235870  27.9951553  16.7318287  67.8839645  27.4203453  17.5154743
  83.1450195  69.3685913  15.2686272  83.2255630  70.1525269  15.8119488
  82.3100739  69.4774475  14.8133793   1.9971297  59.4714737  55.1052475
   1.6126684  58.7710457  54.5781555   2.5482016  59.9577827  54.4920158
  11.9787703  57.6468048  61.6115227  11.2832241  57.7698708  62.2575150
  12.7801065  57.5843849  62.1313286  49.3637390  42.2617683  71.5980911
  49.3153839  41.7919197  72.4306412  49.4796753  43.1787529  71.8469543
  63.6821823  51.7773094  80.7791290  63.0914459  51.7827530  81.5322723
  64.5587006  51.7456322  81.1624603  25.3702812  17.3626995  40.1280365
  24.7241669  17.9425106  40.5312576  25.0668545  17.2561436  39.2264786
  49.8734245  13.0586529  23.5689335  49.1090240  12.5683527  23.8714790
  49.9097366  13.8238096  24.1429100   3.7487857  49.7483826  78.5078049
   4.3994460  49.1932678  78.9375916   3.3750253  50.2720299  79.2165527
  86.1576233  61.9879799  40.1738586  85.7002258  62.5343475  39.5347137
  85.5034256  61.8116608  40.8500023  18.4416828   8.2157421  72.7842102
  17.5228481   7.9487848  72.8108368  18.4293766   9.0747929  72.3621750
   7.7665544  57.5256271   2.5715625   7.9431510  58.4399109   2.7932127
   6.8891582  57.5370636   2.1891007  74.4458389  23.9648972   8.7406054
  73.6594391  24.0342083   8.1993122  74.9451141  23.2492447   8.3471575
  61.3761253  33.7893944  32.3058701  61.6817665  32.9542618  32.6599388
  60.8089142  34.1461296  32.9894218   6.9645100  23.4204464   0.8681119
   7.1723313  23.2200813   1.7807431   7.7925177  23.7223587   0.4946365
  46.8345718   0.3581924   2.0306659  46.9448891   0.3751489   2.9813364
  46.1387062   0.9926317   1.8589419  56.3762360   8.9859362  67.8360062
  57.2121696   8.6211977  67.5454636  56.6161919   9.6479740  68.4843597
  82.7513275  45.6142044  17.0816841  83.4021835  45.7412529  16.3914127
  82.3560715  46.4779053  17.2001076  33.2136230  45.8119850  85.1659317
  32.8012962  46.4929390  84.6344070  33.9860153  45.5513802  84.6642075
  75.5436935  57.9691238  77.5413818  75.2014084  58.7526512  77.1110840
  75.4928131  58.1677628  78.4763565  67.3852768   5.7625227  37.3665199
  66.8557892   6.4980688  37.6744995  66.7465515   5.0893941  37.1316452
  70.9791031  62.4389305  43.1064758  70.9330902  61.7627335  42.4305534
  70.4667892  63.1661453  42.7530251  32.0741119  60.9085693  78.2713470
  31.9697628  61.7735252  77.8748703  32.9751244  60.6584473  78.0667801
  19.7646866  58.4654503  11.8647976  18.8901310  58.6429329  12.2110415
  20.2801571  58.2168579  12.6320810  39.9568787  70.7318649  11.3819218
  39.8315544  70.7957153  10.4351120  39.2557449  70.1512222  11.6777105
   2.3149638  54.8519669  31.0459232   1.4805837  54.4826431  31.3351326
   2.9670823  54.4475174  31.6181049  63.0965424  60.4087105  42.5922318
  63.8031616  59.8322678  42.8831558  62.3148918  59.8564453  42.6084595
  59.2519035   8.9006348  67.3104172  59.3916435   9.7143250  67.7947845
  59.9473801   8.3179207  67.6153488   3.0403945  54.0756073  45.3437614
   3.5250649  54.3151169  46.1336746   3.7051826  54.0416985  44.6559105
  86.6979141  70.9340744  22.5185299  86.0493164  71.5854568  22.2516003
  87.1588440  70.7098083  21.7101479  32.9706154  52.9519691  32.3092232
  33.8388901  52.5678902  32.4309120  32.6105347  52.4941978  31.5496063
  59.5297966  55.6376762  24.8015232  60.0535889  55.9968796  25.5176563
  59.9294014  54.7880554  24.6152649  37.3600807  58.2394066  42.4987602
  37.0071068  57.7285957  43.2272606  37.7794037  58.9923859  42.9152069
  27.5777988  11.8613319  67.6400909  26.7174339  11.6099186  67.9759445
  27.9871273  11.0339947  67.3867264   4.4259262  69.8640747  62.5841751
   4.9703116  70.2329254  63.2797508   4.0696058  70.6269608  62.1289024
  25.7145691  49.1108170  63.1936150  25.9117908  49.7600632  62.5184708
  26.0421391  49.5009193  64.0040131  29.1642323  52.3653641  16.3669739
  29.6774654  52.8658485  17.0012760  29.2174320  51.4610062  16.6760578
  65.0106735   9.6163540  43.6551552  65.6590347   9.2918310  44.2800941
  64.2018967   9.1622429  43.8915787  56.9488297  38.8580017  62.4945412
  57.6001358  38.5935478  63.1442299  57.3944359  38.7562332  61.6535225
  15.3113117  40.7618217   9.6031694  15.7561960  41.3004036  10.2575684
  14.4906168  40.5040054  10.0229588  19.6434155   4.6422153  64.3814468
  19.4024353   3.7746468  64.7062302  18.8182201   5.1266789  64.3573990
  27.8282700  67.7926331  84.6482086  28.4432545  68.5146255  84.5187988
  27.0289555  68.0764313  84.2045975  29.7083416  65.2943115  68.5161209
  30.0362778  64.3951035  68.5056839  30.0915375  65.6798782  69.3039856
   0.7783637  24.5312786  65.9112396   1.2769582  24.9940014  66.5846786
   0.3633172  25.2263489  65.4005051  27.4178638  59.1605186   3.6257486
  28.2390900  59.5286484   3.2997141  26.9649353  58.8528099   2.8406358
  10.1887007  17.2397633  25.8393898  10.4408884  18.0258522  25.3549347
  11.0050945  16.9258289  26.2282066  44.6075287  21.9765015  82.4913254
  44.3371277  22.2384605  81.6112747  43.9854622  21.2926006  82.7393951
  18.0932636  62.0313072  85.2830887  17.1524639  62.2068672  85.3005981
  18.4659500  62.7705345  84.8025818  14.1766567  21.1815205   7.3938303
  14.6166677  21.9832802   7.6763239  14.6469402  20.4791985   7.8430600
  40.6206360  56.2358208  29.0578232  41.4297752  56.7173691  29.2299633
  40.5479469  55.6209297  29.7877922  71.2527313  57.9583778   4.0438571
  71.9369507  58.5123825   3.6681566  70.6029053  58.5753708   4.3804431
  19.8687134  24.6671371  74.3464432  20.6227589  24.1624012  74.0416565
  19.1880341  24.0118618  74.4997940  19.2506523  68.0261002  80.3333740
  19.0431652  68.2644806  79.4298553  19.8665886  68.6990356  80.6232147
  74.4688416   1.4281461  86.4060745  74.2849274   2.1880636  85.8538666
  73.6787186   1.3199110  86.9354401  55.1242027  71.3498154  57.1684723
  54.8065720  71.6224899  56.3076630  54.3322754  71.1179581  57.6535721
  36.5705566  66.2810745  67.4359360  37.0377197  66.8570786  68.0410919
  37.0448341  66.3672104  66.6089706  23.5604191  52.5280876  62.6402245
  23.1842365  52.6626091  63.5100632  23.4503059  53.3702583  62.1987953
  67.2803268  70.6653595  60.8980026  66.9003525  69.9274216  61.3747749
  66.5520248  71.2753296  60.7808075  16.5222607  42.2555618  83.7935791
  15.9930096  42.5264816  84.5437317  16.1141319  42.6883888  83.0436935
  75.3267670  14.8820343  49.6473541  74.9722366  14.5864449  48.8088074
  76.1985092  15.2153273  49.4347038  31.9111595  46.7519989  14.0980902
  31.8957310  46.4557915  15.0081749  31.6758080  45.9759331  13.5896006
  53.7175331  54.2170143  18.3259182  54.4982719  53.8968964  18.7778130
  53.3714828  53.4485588  17.8720932  51.3812447  38.6718903  15.1851387
  50.9945717  38.6191597  14.3111057  50.9313736  39.4067116  15.6021338
  38.4319038   4.0584321  70.1420288  37.9581108   4.4509687  69.4087753
  39.2144737   4.6009488  70.2394638  17.5426903  27.2202110   5.7105684
  18.4653187  27.4335327   5.5709834  17.1280060  27.3849087   4.8637261
   7.7259264  60.4531250  61.3070717   8.0667343  61.2673721  61.6773186
   6.7976527  60.4539070  61.5406075   1.0277132  23.3829975  24.5359287
   1.7540854  23.9372520  24.8212662   0.7781206  23.7360954  23.6819630
  15.4090757  39.5609627  31.2018776  14.9333334  38.8986702  31.7031517
  16.1972504  39.7313118  31.7176228  25.3760662   3.3562365  40.2684059
  24.6337242   3.8851418  39.9761391  26.1309795   3.7320886  39.8155518
  22.4246197  49.1705894  70.1912537  22.7894344  48.3655930  70.5588455
  22.3210278  48.9824867  69.2584534  82.9549942  29.4919891  80.1999435
  82.4071274  28.7383633  80.4193039  82.5838470  29.8286209  79.3843689
  73.0380478   8.3749685  88.2417679  72.7927475   7.5919437  88.7346497
  73.7851562   8.0993757  87.7106247   1.9346944  50.8928490  14.7608461
   1.0848701  50.8988647  14.3203983   1.7867688  51.3767090  15.5733900
  52.0706635   2.5723522  31.0304604  52.1814651   2.0410194  30.2420177
  51.4697495   2.0666194  31.5776024   1.3079451  22.4480457   1.1003747
   1.8334385  22.2548809   0.3239884   0.6022041  23.0088749   0.7784548
  41.6887589  63.0202026  45.9979401  42.3550148  63.3797760  45.4122467
  41.3028030  63.7871170  46.4211578  33.0493126  45.2677994   4.6399269
  32.6415482  44.4626045   4.3211436  32.4341698  45.6065216   5.2903862
  47.3286629  17.6349907  22.1501255  46.4140244  17.5686226  22.4244709
  47.3682594  17.1460247  21.3281898  73.8906250  29.9712276  63.5927467
  74.8362274  29.8238525  63.5738106  73.7483826  30.5145855  64.3678360
  14.9886446  69.9590454  33.9251175  14.7455912  69.3808594  34.6482048
  14.8970156  69.4154510  33.1425972  57.0477638  32.3498917   0.9087642
  56.4568100  31.6029911   1.0044149  56.4674110  33.1092567   0.8559605
  26.9412823  22.3700676   9.4406919  27.3646221  23.0457325   8.9110756
  27.4807644  22.3107758  10.2291555  25.5753937  17.3359165  85.8215256
  25.1453896  17.4304390  84.9715881  26.4451809  16.9948330  85.6132812
  32.4515114  57.8092461  15.4092302  31.7627544  57.3719940  15.9098825
  32.1972923  57.6867371  14.4945745  79.3751526  16.8121471  68.7818985
  79.9592285  16.5857067  69.5056458  78.5243454  16.4583111  69.0410385
  27.1887550  37.0776596   1.2280667  27.3168869  37.9799118   0.9352366
  27.2106934  37.1305504   2.1835523  76.6817932  55.8106346  80.8320847
  77.3479004  55.8790703  81.5160751  76.1604309  55.0474396  81.0809860
  51.4450378  34.4027023  65.8755264  51.6930771  33.4917641  65.7177429
  50.4889946  34.3864059  65.9197083  68.3875656  11.3480854  27.1826477
  68.5461349  10.6377153  27.8043098  68.7711792  11.0384235  26.3621693
   2.4423394  17.1056728  70.1937103   1.5591968  16.8037605  69.9812469
   2.3091104  17.9456234  70.6329880  75.5721130   3.2599704  24.0498314
  76.2810974   2.9350648  23.4948387  75.2257614   2.4773951  24.4786053
  21.0557289  50.2507286  19.4179230  20.9381161  49.9880600  18.5050125
  20.6314793  51.1067085  19.4774227   5.5189753  27.2617893  38.3235588
   4.7707405  26.7045307  38.5376587   6.2385125  26.6489296  38.1722298
  57.4353256  54.1629219  51.1212044  57.2285118  53.2426796  50.9580650
  56.5914001  54.6113396  51.0669212  79.1596222  40.6406059  28.0557728
  78.9732285  40.9980812  27.1876125  79.8959961  41.1614647  28.3762188
  32.6892548  67.4042511  49.6570740  32.8811913  68.2483749  50.0655441
  33.5272675  67.1178970  49.2938080  83.0792084  43.8213539  32.9207153
  82.3273392  44.1208763  33.4317970  83.6150589  43.3336868  33.5462379
  40.6776543  41.9473228  60.0477867  41.1244659  41.4405136  60.7258263
  39.7813873  42.0412102  60.3704567  14.8896999  63.1887131  11.5244551
  15.4086800  63.9820404  11.6568146  14.1334591  63.4794807  11.0147657
  79.2457809  43.8504105  81.4596786  78.8004074  43.6842880  80.6288452
  79.5430527  42.9876862  81.7487640  18.0350170   1.4433335  79.6856155
  18.9098721   1.4750119  79.2985001  17.4788151   1.0889621  78.9918671
  30.2589588   7.8102727  73.2166061  30.4887028   7.7271538  72.2911148
  30.7228947   8.5947981  73.5090332  36.8118477  57.9655457   7.5634594
  37.6100540  58.1131516   7.0562043  36.1733284  57.6565857   6.9207554
  60.0857544  24.3788586  72.9251251  60.8242722  23.7880421  72.7776184
  59.9373894  24.3454971  73.8701706  61.6455574  56.8315048  31.4646015
  61.8803635  56.5452652  32.3473053  61.2484169  57.6933556  31.5899944
  47.7561798  47.5801582  13.1822453  47.0535469  47.1455154  12.6988983
  48.4949913  47.5899849  12.5737295   0.3493345  35.4295807  22.8853531
   0.5997873  36.3197670  22.6382256  -0.5937374  35.4805946  23.0410614
  32.8397789  38.3298111  14.4201937  32.9699707  39.0177689  13.7675104
  33.3498840  37.5891190  14.0924797  64.2513504  61.6251450  65.5949173
  63.9107666  61.9775810  64.7727051  64.3672028  60.6902885  65.4250336
  43.3594666  11.0882740   1.7911986  43.5630112  10.2443771   2.1944847
  42.7869720  11.5236864   2.4227836   9.2064590   0.8917379   1.6210045
   8.5381889   1.2779431   2.1871247   9.2879419   1.5071416   0.8923957
   4.3447814  18.5062752  31.9878922   3.3980365  18.3894215  32.0669518
   4.7180676  17.8061886  32.5233994  18.9206028  57.0547943  61.3670158
  18.9943485  57.9162369  61.7777557  19.8192501  56.8239098  61.1317406
   2.5677884  61.0032692   1.2059929   2.8604681  60.7324753   2.0761890
   3.0005307  61.8442612   1.0586917  37.8555069  44.3548851  13.3259459
  37.6409416  43.5548820  13.8057261  38.3602104  44.8790588  13.9478369
  67.3530960  23.7494640  85.0987778  66.5144119  23.7573128  84.6374969
  67.4230347  22.8631916  85.4535446  52.8877411  53.7228470  31.4660206
  53.4407997  53.0680656  31.8921928  52.3071518  53.2141724  30.8999825
  66.4940872   0.3884616   2.9853332  65.8221436   0.7360624   2.3989034
  66.9108734  -0.3120293   2.4835041  62.9469376  40.6417122  66.9345856
  62.4440269  41.3579750  66.5469284  63.7119751  40.5513000  66.3664551
   8.2262869  60.7785988   3.4633243   7.3153701  60.5551033   3.2722399
   8.4310036  60.2889404   4.2599168  18.0599174  13.1760187  47.6287956
  17.8931160  13.9077387  47.0346642  18.2128830  13.5880241  48.4791412
  40.5302505  14.9585123  17.6216106  41.2771988  14.5767927  17.1605358
  40.5912857  14.6060944  18.5094776  64.8301544   5.5481157  23.7509480
  64.0780487   5.7953496  24.2889538  64.4554062   5.0286303  23.0396614
  60.5382118  29.6179790  86.1278687  59.8626900  29.1315536  86.6004028
  60.1420555  30.4721680  85.9556580  56.4753876  16.2891235  37.0930786
  56.6555481  17.1520977  37.4659767  55.6070290  16.0612602  37.4251404
  60.4156265  41.7286110  56.6237488  60.8141403  41.5444565  57.4743385
  60.8602104  42.5188599  56.3170166  79.8936310   3.4575579  66.5934982
  80.7373581   3.7900257  66.8998108  79.3338318   3.4734149  67.3697739
  15.2588339  59.1778870  39.6489563  14.8523932  58.3314438  39.4630089
  14.5330610  59.7357979  39.9286346  74.1082001  18.1675339  57.1164474
  73.7637863  18.4827137  56.2808228  73.3769836  17.6946087  57.5138130
  16.5572739  41.5564232  36.2017136  17.1357269  40.9205627  35.7806320
  16.4816456  41.2497940  37.1053123  70.3077927  25.4678001  85.6912384
  70.3407898  24.7568130  86.3312683  69.5046768  25.9436111  85.9029999
   2.8668938   9.9089022  71.8211136   2.9459450  10.3203268  72.6817627
   2.9775932   8.9735527  71.9916992  63.7861176  68.6447754  42.8104553
  64.4036713  68.3984985  42.1218300  62.9459457  68.7293320  42.3596840
  58.8595238  11.8143997  17.0823326  58.0035744  11.3871241  17.1142712
  58.7085571  12.6815138  17.4585705  76.6015396  33.4404984  20.4913731
  76.2477493  32.5516930  20.5244637  77.3659821  33.3728561  19.9192886
  81.6631546  11.0143442  59.8896141  80.9201202  11.5885658  60.0750885
  81.2862320  10.1347799  59.8666344  55.7273293  54.2146149  11.6685190
  55.9547958  53.3626175  12.0408010  55.1716423  54.0070801  10.9172707
  72.3572464  30.8134899  81.8627167  71.4734039  30.7326412  81.5042114
  72.4845886  30.0112877  82.3691635  69.8236008  68.4258499  71.4899673
  69.7515564  69.0258636  70.7476578  70.7489853  68.4554062  71.7329025
  65.5391846  14.5448723  33.7512856  64.8122330  13.9789543  33.4914551
  65.1348495  15.3987331  33.9051323  42.3761749   6.4280372  21.0146065
  42.4404907   5.9876728  21.8620567  42.8481560   5.8549232  20.4104462
  27.1668072  59.3585129  45.1133270  26.9464169  58.6966858  44.4578514
  26.3267803  59.7538185  45.3463936  50.6805458  27.2223797   7.8755231
  50.1732941  27.8182869   7.3243251  51.5912247  27.3861065   7.6303887
  55.5104446   5.5733347   6.2745562  54.8694038   5.1113811   5.7342815
  55.1397362   6.4481511   6.3907504  56.5791855  16.4201450  43.2218056
  57.3291588  16.1078892  43.7280350  55.9158287  16.6279259  43.8798485
  64.1107101  62.2689819  55.1788063  64.7377701  62.4608536  55.8760948
  64.2914658  61.3605194  54.9374466   4.1917272  50.4118881   6.9296594
   4.5779271  49.5392647   7.0045285   3.2542157  50.2505836   6.8234296
  72.0111847  49.6524467  46.7759285  72.6749039  49.4809685  47.4439964
  71.2675781  49.1065521  47.0314102  50.6570740  36.3852615  31.7762680
  49.9533806  36.8245277  32.2538567  50.9673119  35.7074661  32.3767509
  73.4432297  68.3610001  34.9582596  73.6062317  67.7116623  35.6423759
  73.0807571  69.1142960  35.4245110  27.4997883  56.9245110  38.1279221
  27.1277809  57.6503944  38.6288567  27.6676064  56.2444649  38.7803116
  81.7521439  55.3766785   6.0899124  81.0373535  54.9100266   6.5229750
  82.5190964  55.1982346   6.6341281  85.7162933  57.0521278   6.8557005
  84.8493805  57.0995903   6.4526663  85.7132721  57.7479668   7.5129905
   2.7147467  26.5060883  31.3845844   2.0452390  26.1606560  31.9750652
   3.3073483  25.7690086  31.2370415   2.4394450  37.0278015  78.3155212
   2.3982012  37.9105186  77.9476395   1.5356749  36.7138023  78.2866058
  78.2121201  20.3156052  69.5020294  78.0171356  20.0756245  70.4079132
  78.3595963  21.2609291  69.5311203  50.9762383   1.3255272  43.4223366
  50.1778717   0.8546886  43.1832695  51.2375259   0.9438868  44.2603760
  77.7385101  13.9113665  73.8290024  78.5859146  14.3563156  73.8168335
  77.8072739  13.2463989  73.1439362  25.9467697  58.3726959  75.4275665
  26.4406300  59.1830673  75.5525818  25.5514946  58.1988907  76.2818375
   4.7144051  32.2352028   2.1980402   3.8251569  32.5856934   2.1467979
   5.2320724  32.9489632   2.5706034  65.0925827  35.4477577   4.4373579
  65.2626419  34.6798897   4.9829645  65.2933121  35.1583595   3.5473082
  12.2084303   9.0539427  79.3069458  11.8137560   9.9116640  79.4643555
  11.9904757   8.5432682  80.0866470  66.5299988  45.8440399  17.0932369
  66.5561371  45.5740280  16.1752815  66.1984787  45.0765114  17.5593128
  28.7484016  52.8313408  55.0688934  28.3852291  52.9152641  55.9505386
  29.3903427  52.1249352  55.1405334  62.2149963  35.5057335  85.5866165
  61.3584366  35.7683868  85.2496414  62.8423424  35.9895935  85.0494461
  55.3216019  36.2712326   7.5451164  55.4866829  35.6194191   8.2263794
  54.7030678  36.8832207   7.9440084  65.6036453  50.1597023  19.6703663
  65.3819656  49.9289513  18.7682323  64.8246918  49.9266853  20.1755085
   3.8125854   1.4220718  52.4277534   3.2094135   1.9682459  51.9236603
   4.1744442   2.0121396  53.0888939  40.8018227  55.8283691  42.2525177
  40.2432976  56.2207108  42.9235992  41.4518127  55.3270950  42.7449303
  81.1677246  45.4908600  13.0369644  80.8028793  45.8388519  13.8506145
  81.3593750  44.5738335  13.2333364  34.2004166  68.5106201  72.8338318
  34.3553848  68.0770645  71.9946365  35.0134621  68.3836288  73.3227692
  74.3386154  68.1972580  38.7269020  73.9798508  67.6140976  38.0579910
  73.6172333  68.3283691  39.3422432  67.6257858  27.6125736  12.7303238
  68.0090714  27.8351154  11.8819122  67.8336639  28.3603134  13.2905941
  60.4984322  52.9346085  27.2046490  59.5495071  53.0496178  27.2551479
  60.7552986  52.6723900  28.0886688   3.4429531  60.2769241  11.2695141
   3.5571263  59.4713707  11.7737761   3.8085122  60.0742874  10.4083881
  10.1837959  61.5576324  35.2620125  10.2906151  62.4618225  34.9666100
  10.9782925  61.1134605  34.9658394  48.7265663  56.6548691  26.4024334
  49.6615372  56.6759644  26.6064434  48.6527176  56.0291901  25.6818085
  33.9939880  21.6581669  14.2143507  34.4006920  21.1790867  13.4923344
  33.2816505  22.1491795  13.8048258  19.0762520  48.3485374  19.7656288
  19.7819481  48.9639244  19.5668240  18.8007030  48.5786324  20.6529617
  60.7157593  14.2650585  49.5049171  61.3022270  14.8161430  50.0231781
  60.1949997  14.8842649  48.9934235  13.5241747  63.9422188  40.1300697
  13.3030634  63.0247002  39.9703712  14.4223099  64.0311508  39.8112068
  53.6857719   2.1051044  76.1978302  52.9101715   2.6506498  76.0672302
  53.8349686   2.1232862  77.1431503   4.5055122  47.6629410  21.5057335
   3.6612740  47.6165543  21.9544449   5.1527386  47.5358429  22.1994038
  10.4972506  58.7646828  49.2490463  10.4226656  59.1814499  50.1075172
  10.0716181  57.9142570  49.3578682  56.0547447  59.9833794  16.8068657
  56.8423004  59.6733208  17.2539101  55.4102097  59.2900467  16.9486351
  32.3812485   4.7822986  35.9891624  32.0797577   4.3918285  36.8094482
  31.7012920   4.5590777  35.3535042  67.7027359  57.9071007  15.9648151
  67.6558533  56.9540749  15.8887901  68.5332031  58.0711594  16.4116402
  27.8122425  60.3852005  76.7345276  27.9304466  60.7067451  77.6283264
  27.8817272  61.1675339  76.1873932  61.4966278  64.1285934  52.8876228
  61.9476013  63.2850418  52.9233780  62.1036301  64.7424088  53.3011475
  45.6672668  15.0016336  51.3809814  45.7712746  15.8743334  51.7602043
  46.5624962  14.6893396  51.2495728  20.2697926  66.5153275  36.4438438
  21.2251511  66.5133057  36.5031738  20.0168762  67.4070816  36.6826706
   9.5763483  12.8546095  11.6220818   8.6557856  12.5963697  11.6679964
   9.9392023  12.5997314  12.4703779  53.6191635   8.8195839  76.9463043
  52.8730621   9.2985830  77.3070374  53.5477562   7.9438071  77.3259735
  61.1546364  44.9428024  78.6548767  61.8985672  45.0320587  79.2505493
  61.5490112  44.7269783  77.8098145   6.1411943  61.7483940  26.7578297
   6.0261059  61.5670052  25.8250465   5.3421736  62.2098732  27.0124588
  24.2081699  46.4302330  12.1683817  23.4129333  46.9035492  12.4129286
  24.2919121  46.5736160  11.2256937  69.0508957  53.0514946  10.1391993
  69.2373123  52.6394005  10.9827976  69.8783340  53.4593735   9.8838339
  71.7161942  68.3597794   0.5184274  71.3577423  67.7257843  -0.1026969
  72.2943420  68.9110947  -0.0088560  10.9648094  23.1899700  64.9308090
  11.1146126  24.0858364  64.6287918  11.8043718  22.9188423  65.3020935
  14.3542929  40.7408028   0.6131951  13.7838249  40.0766983   1.0001867
  14.3437853  41.4618492   1.2426521  76.0790634   3.9456587  27.6638451
  76.4797134   4.4920554  26.9877052  76.5008469   4.2231269  28.4770718
  19.5871468  36.3131638  14.6883659  19.4958210  35.5436630  15.2502899
  19.4251804  37.0554771  15.2705784   5.6203599  24.3906002  54.5334816
   5.2951622  24.6287289  53.6652832   6.3549056  23.8016357  54.3608704
  21.5728741  64.1453552  59.4065819  21.4558182  64.5469666  60.2675362
  21.9608555  63.2901764  59.5919609  22.7017727  51.0982208  76.1627579
  23.5838203  50.7617531  76.3209076  22.2846107  50.4302673  75.6186600
  21.6310654  52.0027542  85.8581009  22.1014996  51.8343468  85.0416641
  22.2499084  51.7577591  86.5460281  35.4070244  41.0285606  17.3816795
  34.8656693  41.6483917  16.8928242  35.1084785  40.1673737  17.0893459
  41.1135406  47.2113304  57.7089119  41.2936821  47.0193977  58.6292076
  41.5020332  46.4786301  57.2309418  44.2890091  39.4341164  69.9083252
  45.0494499  39.9218788  69.5920029  44.6340027  38.5686989  70.1280060
  36.3727379  37.8809319  23.5938663  36.8599052  37.0640488  23.7015858
  36.4606247  38.3251953  24.4371548  11.5686750  57.8900146  10.5538511
  12.4553919  57.6639709  10.8346910  11.3378716  58.6545181  11.0815773
   7.3293529  51.2074776  70.6565094   6.4894667  50.8491707  70.9436340
   7.9687572  50.5336723  70.8875504  67.6386795  69.3450089  16.0132504
  66.8296585  69.6834869  15.6296549  68.2277222  70.0992126  16.0340900
  86.3152313  29.2690868  49.9672775  85.3870621  29.4437256  50.1229401
  86.4155731  29.3359928  49.0177078   0.9892443  24.9721794  37.1908646
   1.2796402  24.6777096  36.3276215   0.0784781  25.2360439  37.0600548
  50.1099663  30.7822514  87.1397552  50.0713844  30.8552742  88.0933838
  49.6828728  29.9478245  86.9459610  65.8834457  56.9370689  69.7054672
  66.4667435  56.3112755  69.2760773  65.8347015  57.6749840  69.0977402
  46.1628990  13.4573717  65.5671997  46.7380333  12.7388706  65.3041229
  46.7561836  14.1260643  65.9093933  53.6900253  34.3585587  11.6555672
  53.1637001  34.6875458  10.9268818  53.2886047  33.5194244  11.8812809
  55.5884056  68.1289215  22.7403297  56.0092697  67.5873184  22.0726700
  54.6554451  68.0856781  22.5306892  28.9661999  56.6222534  32.5828285
  28.7305279  56.6457253  33.5102654  28.1300964  56.6881180  32.1214981
  10.9898777  57.8633690   4.4245129  11.3255444  58.5172653   5.0376863
  10.9945183  57.0449333   4.9208708  67.4196243  17.0440598  69.7383041
  67.2298431  17.6278248  69.0038452  67.5726471  16.1906872  69.3326340
  19.5684643   7.0426245   7.6946554  19.9005432   6.2042699   8.0157747
  19.9392281   7.6918855   8.2923393  76.4524155  65.7195511  21.2894840
  77.1001816  65.6494980  20.5882549  75.9921036  66.5392380  21.1093216
  44.6359138  30.3468418  18.7836990  44.9022903  30.9462776  19.4808025
  44.6350250  29.4836636  19.1974068  15.0593290  42.6910477  21.0980568
  15.8229389  42.3930130  20.6037807  14.3121033  42.3083229  20.6382656
  42.3140640  50.8837242  85.6052551  42.0046349  50.2307243  86.2330170
  42.1658096  51.7233353  86.0403442  64.0088501  54.3921928  59.3462067
  63.3931847  55.0137634  58.9578247  63.5412254  54.0305939  60.0990753
  23.7127571  62.6537704   6.2465310  23.7967644  63.3488350   5.5937977
  23.5335255  63.1150436   7.0658817   3.2415285  12.9650345  30.0803719
   3.5743649  12.1063623  29.8193455   2.4501498  12.7724180  30.5832157
  74.3622284  25.5242004  75.5625305  75.0968018  25.7418041  76.1363525
  74.2562256  26.2958031  75.0060959  18.2443676  65.9429321  56.7382202
  18.7546043  65.1543121  56.5539322  17.5440578  65.9330139  56.0857658
  69.8278885  63.9862709  29.0819225  70.5499496  64.6023483  29.2056236
  69.8370972  63.4448586  29.8712368  50.8045959  50.2476234  25.5723801
  50.2707100  51.0316925  25.4442024  51.6854172  50.5824738  25.7404938
  65.5689011  36.5098572  88.0309372  65.9641800  37.3775597  87.9468079
  64.6319122  36.6815758  88.1247101  44.9810486  55.6165085  14.8373337
  45.8499298  55.4147758  15.1845779  44.5214920  54.7768440  14.8392057
  80.2051620  64.9432602  50.1824303  81.0382614  65.1727371  49.7707138
  80.1815033  65.4669800  50.9832993  56.5241127  68.9086838  56.3390579
  57.2800598  68.7874680  56.9135818  56.1282425  69.7287903  56.6339226
  84.8001251  27.4315643  31.4719505  84.4260330  27.0168858  32.2493362
  85.5269699  27.9566650  31.8069096  84.4263000  21.7390823  21.3056316
  83.7405853  21.9323235  21.9449120  84.0442276  21.9844837  20.4629993
  15.7877073  40.0734673  77.9582825  16.6865330  40.3548737  77.7875366
  15.7518206  39.1747246  77.6308594  60.2117157  45.0194702  28.5204372
  59.7188492  45.6547279  29.0398254  59.9931717  45.2310600  27.6128578
  41.1500893   7.7210922  17.4580173  40.2452583   7.4309826  17.5735664
  41.2378769   7.8620806  16.5153370  43.4570427  66.4711304  70.7912140
  43.0360527  65.8818970  71.4171600  43.7082672  67.2339478  71.3120041
  68.0232773  18.1140842  24.3172493  67.9019241  18.5397358  25.1659679
  68.8574066  17.6516094  24.3983345  47.8571205  40.6497002  28.8564758
  47.9638939  39.9577255  29.5091629  48.7277946  40.7531662  28.4724770
  10.5796728   6.1364136  13.2093916   9.9948959   5.5043473  12.7913494
  10.6624660   5.8261385  14.1111164   1.3609338  21.8314247  69.0143661
   0.5422727  22.3258247  68.9744263   1.8482698  22.2328014  69.7338333
  14.2063551  68.7000809  36.0460510  14.7544823  68.0456085  36.4790115
  13.3196583  68.5107574  36.3529015  42.5562592  49.6426353  25.0080357
  42.7547913  49.6525574  24.0717030  42.3807602  48.7227020  25.2059250
  42.9167213   8.0643644   6.9397302  42.5792313   7.7583551   7.7815685
  43.6760597   8.6010504   7.1668978  51.7724113  28.5586300  65.5028152
  51.8417778  27.9473267  66.2361145  52.6748238  28.8248959  65.3267746
  45.9375648  57.5683136  56.9312439  45.8282852  58.5191879  56.9197235
  45.6245842  57.3017120  57.7956505  63.0228806  28.9765911   6.3364120
  62.9196930  29.7268810   5.7510505  62.2383995  28.9909019   6.8846998
  55.5321808  19.7831478   4.9565549  55.3218040  19.6405430   4.0337133
  54.7580986  19.4765759   5.4288249  58.8132172   6.7712560  33.5285645
  59.0853882   7.1302967  34.3731041  57.8637924   6.6754899  33.6037865
  50.7043648  50.5084801  86.6890945  50.4397202  50.1616135  85.8371124
  51.6608658  50.5224800  86.6553726  18.4603004  41.5789452  70.4649734
  18.4029160  42.3505859  71.0284500  17.8318119  41.7476959  69.7630081
  20.0681934  31.3467464  21.8296471  19.6956482  31.8099079  21.0793648
  19.3259811  31.2076130  22.4178600  25.4118137  46.5542564  60.5471115
  24.6560764  46.0270996  60.8063354  25.9501190  46.6058197  61.3369217
  71.5251236  13.7423353   9.2724800  70.7631531  14.3056011   9.1369619
  71.9654465  13.7265329   8.4227200  33.2394562   7.5786138   3.0736082
  32.5880356   7.3901758   3.7491632  34.0494919   7.1934919   3.4079115
  29.4405422  10.0627079  80.6699753  28.9324913   9.7603436  79.9171906
  28.9257774  10.7837963  81.0323029  44.4794693  71.6774445  62.9220123
  44.8141556  70.8162537  62.6718636  44.5615578  71.6986160  63.8754501
  61.5425072  32.4874420  14.1225805  60.6829605  32.1696053  14.3989725
  62.0591812  32.5118637  14.9279890  39.1787720  49.4929161  46.9423904
  38.6525497  49.4082031  46.1473160  39.7093620  50.2760582  46.7961311
  15.5548067  48.4488716  48.7736778  14.9320393  47.7325897  48.6498451
  15.0768833  49.0944672  49.2942772  64.9661636  65.6209106  48.5127602
  64.7123566  66.4887161  48.8269730  64.2320480  65.3397675  47.9666214
  80.0995331  42.6824875  51.1202011  80.8549271  42.8001900  50.5442162
  79.5227432  43.4174690  50.9119797  56.3109550  44.3442421  35.3872147
  56.1051979  43.4856377  35.0174904  56.8123970  44.1500931  36.1791077
  16.4812717  19.3441353  71.0747299  16.3674488  20.2582436  70.8145676
  16.1765881  19.3135014  71.9816284  70.4054642  51.2142029  24.5575447
  69.6820908  51.5490036  25.0875225  69.9853592  50.8682022  23.7701283
  75.5614929  43.4033241  82.2197113  75.9200668  42.5946617  81.8540344
  76.1366272  43.6085281  82.9568329  30.9327278   2.6530955  64.2224579
  31.5307541   3.3815427  64.3896713  30.2189503   3.0406277  63.7159233
  27.9812336  57.3348236  10.5962601  28.3156509  57.8088684  11.3576260
  28.1800137  57.9044762   9.8531504  74.7584000  39.5120544   2.5946586
  75.3937759  39.8472977   3.2272210  75.2113190  39.5584984   1.7526745
   8.1985979  47.5042381  23.0262890   9.0099583  47.7852592  23.4493179
   8.0957937  48.1010666  22.2850342  68.9261932  57.2141495  78.1865158
  69.4497223  58.0142212  78.2316055  68.6796799  57.0377388  79.0944519
  13.4189520  54.4235229  66.2139053  14.3487844  54.6507530  66.2108688
  13.2964525  53.9266586  67.0228271  77.6370850  34.3327179  22.6608696
  77.0723724  33.9517937  21.9883881  78.5240250  34.0917435  22.3934841
  11.6648941  16.7336826  59.7273102  12.0080957  15.9515076  60.1593361
  11.5298605  16.4655190  58.8184166   4.0917740  67.3379822  38.3200264
   3.8956192  67.3468246  39.2568703   3.4823542  67.9718094  37.9417267
  54.7976494  13.5984163  23.3733463  53.9584045  13.3060102  23.0178223
  54.8413849  14.5282211  23.1502266  78.7964249  19.9802647  11.0560560
  77.8838043  19.9276066  10.7721682  78.7595291  20.4339981  11.8980761
  33.6876030   3.9448972  83.0523911  33.9725533   4.2354379  83.9187698
  33.4684486   4.7531600  82.5887985  77.4496994  46.1821938  38.3905983
  78.1233521  45.6764107  37.9360542  76.7088394  46.1933098  37.7846069
  18.2924919   5.2642369  16.8402939  18.8436050   4.7216463  17.4042988
  18.8677769   5.5225716  16.1201954  71.8153915  12.8068171  22.4586678
  72.6449203  12.6249590  22.9002934  71.1686249  12.8299618  23.1639290
  74.1862259  25.7418880  37.1924248  73.4829330  25.0939865  37.1496353
  74.3260880  25.8820705  38.1289177  39.7020378  -0.0084912  52.2752991
  39.7353058   0.9427345  52.3767624  40.6155472  -0.2879087  52.3358002
  42.2742615   4.2299104  64.3125916  41.9965935   4.7794623  63.5797043
  42.2025223   3.3347247  63.9813385  84.4917679  12.3114004  50.5111237
  85.0734940  12.9719200  50.8873405  83.6308289  12.7295713  50.4987907
  22.4168015  64.1736450  44.9337692  22.3008804  63.4832344  44.2809906
  23.3648319  64.2367020  45.0499344  28.7183876  31.2875595  71.7396164
  29.0483303  30.8849697  70.9363174  28.7068501  30.5742264  72.3777771
  70.0106888  54.3147545  39.4511414  69.4593582  55.0876236  39.5733833
  69.6224594  53.6510124  40.0211906  67.9578629  37.3890724  22.4075394
  67.6942673  37.9416885  23.1433163  68.2480621  38.0065422  21.7361603
   8.2890711  42.9063911  80.1097412   8.7069941  43.4198570  79.4184189
   7.3605413  43.1300468  80.0461655  51.6326485  43.9670296  47.4928207
  51.9416733  44.5893478  46.8344460  50.6836624  43.9404755  47.3705139
  76.3097000  29.7046604  75.9470825  76.5801926  28.8066101  75.7558365
  76.3697052  30.1571884  75.1057434   0.9267779   2.3848889   1.8702562
   0.7724016   3.1181018   1.2746062   1.6224896   1.8782891   1.4512411
  32.3939323   1.5559112  67.3145370  32.7100143   2.1631973  66.6455612
  31.4430447   1.6654418  67.3073883  23.0637207   7.9166403   1.1648984
  22.1543598   7.7642264   0.9078708  23.0296650   8.7012873   1.7120746
  15.1059933  59.8896904  73.2462082  14.7717180  58.9929543  73.2651443
  14.9317541  60.2288399  74.1241837  72.6728210  70.7771301  12.5592413
  73.1636658  70.9505234  11.7559748  71.9117661  70.2732925  12.2708426
  71.8249359  43.7045364  37.6957779  71.6013412  43.2888680  38.5285225
  71.6869888  43.0195847  37.0415306  65.3855057  17.3824635  55.0289078
  65.2415924  17.1976738  54.1008072  64.5148315  17.5863667  55.3703384
  29.2997494  63.1375465   1.4754333  30.2343559  62.9639587   1.3631401
  29.2174854  63.4276695   2.3838902  24.8145409  57.1725311   4.6054788
  24.7280521  58.0154343   4.1602049  25.5032578  56.7159691   4.1223102
  31.3741283  47.2753372  66.2914810  31.1575985  46.8797951  67.1358109
  32.3300896  47.2470589  66.2518616  59.7201080  21.0828743   5.6157055
  58.9312820  20.7720757   6.0599861  59.8569374  21.9654541   5.9600358
   3.1753366  36.4130554  28.1602726   3.8575056  35.9441261  28.6408787
   3.0269022  37.2091141  28.6706543   4.4004560   6.8522768  29.2470741
   4.6868677   7.1496029  30.1106701   3.5267558   7.2288165  29.1417274
  77.4323425  47.7419167  20.1391830  77.2892303  48.5454483  20.6392746
  76.9071274  47.0816574  20.5913277  45.2489433   4.5358729  23.5704212
  45.0583344   4.2484527  22.6775093  44.4924698   4.2478952  24.0813541
  18.8358479  28.5147190  78.4401550  18.9662209  27.9682980  77.6651382
  19.2228680  29.3583679  78.2062683  16.8844414  67.8306427  17.0568295
  16.8136539  66.9181442  16.7765236  17.7319851  68.1199493  16.7188892
  37.9281349  57.7188644  64.3313599  37.8255692  58.6702423  64.3556900
  38.2382469  57.5339928  63.4448586   9.9403820   8.4780865  65.8856430
   9.9025850   7.7116995  65.3134079   9.0372915   8.6044874  66.1766434
   2.7418253  48.0168915  38.8754768   2.8391216  47.4002342  39.6010780
   1.8786616  48.4087410  39.0082741  58.8180695  59.6711845  67.6398926
  59.6863441  59.3088760  67.8161392  58.4465256  59.8352051  68.5066605
   5.9520869   6.1877832  22.7763557   6.2332277   7.0645413  22.5146542
   6.7657781   5.7251749  22.9766865  14.9008560   6.5265303  48.4652748
  15.5914335   6.2442083  47.8655853  14.4118938   5.7272096  48.6608086
  79.4761887  39.3300209   4.7204847  80.0437393  39.3420448   3.9497876
  79.9939651  38.8864517   5.3923349  12.9252443   6.1456280  74.1371460
  13.5306787   6.8263054  74.4310226  12.1836805   6.2085190  74.7391129
  65.1753769   3.7435641  82.2479019  65.8382416   3.1338770  81.9236679
  64.4879303   3.7262936  81.5820465  71.6530457  60.5252914  57.7531586
  71.8957901  60.6817703  56.8405647  72.2625198  59.8498192  58.0506668
  21.6797752   4.1085463  26.7303123  22.4956436   4.4514260  27.0950375
  21.5698242   4.5799384  25.9045200  64.5238419  68.5064545  36.7090683
  65.2260513  68.7599411  36.1100006  63.7201920  68.6417465  36.2070007
  69.2119980  13.4822826  17.1404629  68.4914780  13.9960508  17.5053310
  69.9990997  13.9750547  17.3725739  60.9759674  26.8054371  57.6525574
  60.4728279  27.0419483  58.4317551  60.3856049  26.2471333  57.1465912
  84.5636063  45.7042542   9.2518721  83.7570801  45.8476181   9.7470398
  85.1289902  46.4364471   9.4977779  75.1459961  56.5082932  27.2051239
  74.6114502  56.7335510  26.4437103  74.5112762  56.2802773  27.8843670
  24.3760624  13.2399292  80.8217392  24.0121937  13.2046719  79.9370956
  24.9089928  14.0350065  80.8300018  49.5562973   8.2070608  21.1802979
  49.3367996   8.1036491  22.1062355  49.5670547   9.1540108  21.0410080
  17.4348717  34.9663124   5.2971239  17.1799793  34.0749741   5.0588422
  16.8744164  35.5271530   4.7608604  79.4761734  34.5398407  87.4822159
  79.0938416  34.4617996  88.3562698  80.4203644  34.5731392  87.6359024
  15.0243549  69.8694839  72.1474457  15.5689144  70.0952988  71.3933258
  14.9671640  70.6802979  72.6529541  67.8819351  60.7284203  22.5471210
  68.5845413  60.5986862  21.9101429  67.4336090  61.5206604  22.2511616
  28.0487423  69.2927856  19.0481300  27.2409801  69.8001709  19.1276054
  28.1032143  68.7994537  19.8665981   7.5391016  54.6066055  68.0768509
   7.0465264  54.4694939  68.8860474   7.0352507  55.2649651  67.5983810
  20.2300529   8.2068663  55.6947708  21.0380802   8.1401024  56.2035599
  20.2747898   7.4768090  55.0773201  36.0333443  18.4908104  83.6784210
  36.3288841  19.1030159  83.0045547  36.0652199  18.9955044  84.4911270
   3.4474094  65.8121796  21.8781052   3.3618958  64.8808289  21.6743832
   3.2610872  65.8704758  22.8151855  40.7934837  22.9611015  23.6606541
  40.5097275  23.7350140  23.1740589  41.2900162  23.3118057  24.4000416
  48.2105713  24.7791939  78.3729095  48.2729378  25.7073498  78.5984573
  47.5142708  24.7382679  77.7173843  59.5424042  25.4220219  15.3686619
  59.8684921  26.2564201  15.7058296  60.3274841  24.8862877  15.2552214
  29.4048386   3.3940446  70.9865265  29.3485832   2.5209231  70.5982971
  30.3431454   3.5460310  71.0992813  69.8458557   0.8513789  34.0504074
  69.5611267   1.6737522  34.4489861  69.8151093   0.2155095  34.7652206
  23.0174503  65.9712296  37.1084671  23.6327305  65.5365372  36.5179558
  23.1084251  65.5013275  37.9374084  69.0691833  12.2656355  41.3870049
  69.2581787  12.8369694  40.6426315  68.2283325  12.5779209  41.7211990
  28.2647800  48.8342285  21.1203537  27.4528217  48.5903282  21.5647278
  28.7891693  49.2619286  21.7973480   8.0122919  15.9710073   8.4097233
   7.1968188  16.3687649   8.7147198   8.0169964  15.0999651   8.8065786
  61.4977989   9.3504696  22.5350914  61.9095230   9.4123201  23.3970013
  62.1047745   9.7997627  21.9469147  46.8202629  49.0971413  74.7300873
  46.8224449  49.8564034  75.3129654  45.8960266  48.8630295  74.6451721
  66.8359375  30.0434570  49.6074791  66.5279694  30.9468842  49.5353165
  67.7831650  30.1216488  49.7209358  84.2233276  37.6795273  49.2489738
  83.8987350  38.5051346  49.6084824  84.7300186  37.2906189  49.9618835
  81.5517578  32.7810020   9.8610878  80.7135696  33.0113754  10.2618437
  82.1672668  33.4289818  10.2038774  15.0918980   6.5232329  62.1693764
  15.8236094   7.1032271  62.3801765  14.8794680   6.7269917  61.2585564
  85.3360443   6.7681260   7.1902852  86.1984940   6.8023825   6.7764788
  85.1185379   7.6834283   7.3667645  18.6758995  57.5028458  86.1613922
  19.2627850  56.9156609  86.6378403  18.4981670  57.0477486  85.3382645
  41.1707687   5.5431576  36.2301788  41.0456047   6.1388035  36.9689445
  40.3083611   5.4874916  35.8186188  65.2040253   5.3853006  48.3817825
  65.4830856   5.2881770  49.2922363  65.9786835   5.7171998  47.9279404
  70.2067795  49.9043427  53.2565880  70.0835571  49.0011978  53.5487862
  70.9845581  49.8718681  52.6996002   6.1054749  47.7863503  59.1985855
   5.6593890  48.6239014  59.3240662   7.0338411  47.9900894  59.3119850
  65.6806717  27.1157799  54.4869347  64.7947388  27.1128807  54.8493538
  65.6139832  26.5941010  53.6871605  29.3146267  52.3515816  67.6424179
  28.4693565  52.6211929  68.0016556  29.6830215  53.1526451  67.2698364
  14.9717808  51.7868805  76.2491150  15.5884676  52.4097672  76.6337509
  14.7198687  51.2186966  76.9770813  23.1364555   4.4301476  39.5027351
  22.5874214   4.4500785  40.2865677  22.5188274   4.5083232  38.7756462
   8.5404863  10.0418768   0.8055969   8.9889851   9.2516785   1.1067073
   8.8596563  10.7338781   1.3848180  45.1835556  54.4485474  11.0622272
  44.5938110  54.0666733  10.4121485  45.1755638  53.8250122  11.7884302
   1.3524944  57.6372147  88.0073776   0.5538561  57.8003120  87.5055771
   1.7320883  56.8555069  87.6060410  60.4519920  45.4066200  15.5652075
  60.7263374  46.3231430  15.5344048  60.9671211  45.0261955  16.2766514
   8.3489618  16.5296268  45.6588211   7.9000292  17.0254192  46.3435707
   9.1965637  16.9643574  45.5649490  53.9023972  32.7272034   2.0933356
  52.9604340  32.8972397   2.0882366  53.9906693  31.8562870   1.7061069
  75.2819214  24.3127117  80.4443588  75.8689270  23.6278687  80.7647400
  75.2023773  24.9224644  81.1779175  75.8670120  41.3063049  40.8734360
  76.1012421  42.2327766  40.8184700  75.1208496  41.2123642  40.2812805
  74.4492416  54.0979881  33.8507195  73.7163544  53.5063362  33.6802330
  74.8589783  53.7497520  34.6426048  19.4308548  54.4670334  43.3494110
  19.6335201  54.4536400  44.2848167  19.0702953  53.5986786  43.1700020
  83.7942886  51.2021713  56.5655365  84.4950790  51.6050072  57.0782280
  83.6528397  50.3511963  56.9803467  84.9852753  37.6267815   6.5965090
  85.3945084  37.1956978   5.8462267  85.7193985  37.9757843   7.1019711
  41.1761055  44.3087273  73.3351364  42.0729752  44.4049492  73.0148315
  41.2049370  44.6423759  74.2318420  58.8252602  20.5401573  83.6833572
  57.9331970  20.3081360  83.9414520  58.7737122  20.6736450  82.7369080
   6.1068678  11.8266773  22.0321236   5.2894468  12.0837955  22.4586735
   6.7787080  12.3540831  22.4642181  77.3786011  45.5278015  47.1516838
  76.8851624  45.8189392  47.9184875  76.9636765  44.7031021  46.8988152
  69.2346954  48.3987350  64.4196854  68.7881699  47.6055031  64.1236572
  70.0784454  48.0896950  64.7495422  24.8279438   4.6861811  51.9689980
  24.7324409   4.5926590  51.0211754  24.2952137   3.9797704  52.3342590
  16.6645756  54.6231117  32.6312256  16.8501453  54.3083191  33.5159302
  17.0517635  53.9631882  32.0560608   2.4773719  43.8366356  37.6189690
   2.5151708  43.0736008  37.0422745   1.6465929  44.2597771  37.4021950
  73.1144562   0.6537485  10.2747154  72.4647522   0.7546021   9.5790520
  73.7826767   0.0816989   9.8972645   4.8432736  11.7101526   5.8680930
   4.5401435  12.5743027   6.1466413   5.1754913  11.8473501   4.9809403
  46.0617142  69.3550568  52.6198730  46.1824265  70.0470200  53.2701340
  45.5736961  69.7746735  51.9113655  64.0255966  71.0101776  59.0217781
  63.5315857  70.9853745  59.8412704  64.4834442  70.1700897  58.9925957
  59.9603043  59.0440941  35.5631561  60.3706093  58.4162827  36.1579132
  60.3057747  59.8939247  35.8364182  33.2756195   6.7800045  63.1506386
  33.4321632   7.7242985  63.1565056  33.2178307   6.5410538  64.0757294
  58.5938263  17.9470234  67.7906647  59.2222214  18.3987999  68.3539200
  57.7536430  18.3602848  67.9895172  59.8312836  51.3352585  77.7916183
  59.0900726  50.9904366  78.2895508  60.6028328  51.0385513  78.2742310
  10.8321409  14.1551590  27.9682808  11.0486746  13.8984652  28.8646374
  10.0672750  13.6245861  27.7453384  36.5490532  40.6326485   6.6878948
  35.6122704  40.8239899   6.7332125  36.6219139  39.7228661   6.9763803
  73.1409683  12.4266987  74.4360199  73.2993393  13.2418346  74.9121552
  73.9293213  12.3007393  73.9079361  33.7578850  10.3275404  68.6428833
  33.3951416   9.7334290  69.2999039  33.3028412  10.0958977  67.8332443
   7.1596699  63.0492058   7.3924952   7.0431986  62.5737686   8.2150679
   6.7371693  62.4968834   6.7347231  24.3262959  60.1939316   3.1836250
  24.3339081  61.0325890   2.7222974  23.4309196  59.8717346   3.0800738
  60.6623001   3.2840610  35.9163475  60.4235497   2.5265465  35.3821182
  59.9977264   3.3106990  36.6047211  58.0334206  38.5302620   7.4199314
  58.2336006  37.6346779   7.1477475  57.8169403  38.4554062   8.3493214
  72.4977798  56.5820694  70.7956238  73.1470032  57.2854462  70.7931900
  71.9261017  56.7863541  71.5356827  46.2834320  40.0723610  82.0040741
  45.3627396  40.1359215  82.2580795  46.3277740  39.2869339  81.4587555
  47.6737976  33.1456223  20.4239235  48.0164795  32.6773338  21.1851768
  48.4082680  33.1760483  19.8108501  13.1160727  53.3922272  29.1145535
  13.3649578  53.4231415  30.0383129  13.8723755  53.7513542  28.6505852
  11.7583628   2.3615086  71.5528488  11.1435938   1.7619880  71.1299210
  12.1963682   2.8065517  70.8273697  82.3587875  70.5033722  81.6237411
  82.8574905  69.7170792  81.8456879  81.7982712  70.2340317  80.8960724
  63.1639442  55.9802704  33.6927338  63.0016251  56.9102135  33.8511238
  63.7196999  55.9634552  32.9135780  52.0951958  22.8099880  22.8293476
  51.8611717  21.9657516  22.4436932  51.2552528  23.2337589  23.0058365
  75.5131989  50.1745033  68.0921631  76.3719711  49.9989166  67.7075653
  74.9836655  50.4922333  67.3608170  37.8815804  67.1906891  52.1462097
  38.1040993  68.0670013  52.4605255  37.7449455  66.6780014  52.9429054
  54.3448219  44.6881866  15.6203384  54.1042786  45.4767761  15.1340265
  55.3019829  44.6845703  15.6124601  61.0305748  29.8621731  63.6402855
  61.0676880  29.1872158  62.9625778  60.1011200  29.9319324  63.8581924
  51.0646439  58.6419830  70.1297150  51.5051575  57.9024048  69.7111435
  50.9444656  59.2789841  69.4254303  27.3742561  63.1965790  55.3635101
  28.0616016  62.5329819  55.3050003  27.8441772  64.0144348  55.5263557
  49.8823242  45.5505104  77.9394989  49.2377396  46.0076180  78.4796753
  49.8226280  45.9757385  77.0840149  79.4013901  30.3786278   9.0888863
  79.0455933  30.6448421   8.2410851  79.7321091  29.4924259   8.9422388
  74.4917221   3.7049792  81.6849442  74.7630615   2.8033326  81.8571014
  75.1471481   4.0396180  81.0728455  57.5972099  16.1240120  56.5049362
  58.4758453  16.1556473  56.8833961  57.0141525  16.3300133  57.2355804
  53.6695213  49.1361542   1.4559847  53.8354683  49.1569557   2.3984599
  52.8547096  48.6417656   1.3671135  85.9030075  70.1270981   9.7914925
  86.6948700  69.7552795  10.1799994  86.1945038  70.4909744   8.9555130
  81.4997635  66.3845749  64.1532822  81.5690079  65.4470901  64.3337402
  81.1385651  66.7572632  64.9575577  58.0075073  65.8554993  38.4837379
  58.0140877  66.0429611  39.4223785  57.8265724  64.9172058  38.4281540
  29.5802345  40.5718956  19.4255657  30.1545830  41.3375893  19.4174881
  29.2096996  40.5597267  20.3080540  74.8727722  71.5282669  79.7659607
  74.0037613  71.6061783  80.1596222  75.4786987  71.6559982  80.4958725
   0.7809317  33.2558708  19.5480442   0.3486547  34.0835800  19.3376522
   1.3099701  33.0587044  18.7750797  31.3235264   0.4334660  62.6851616
  30.4139194   0.1495427  62.5944099  31.2886181   1.1503446  63.3184814
  12.0276937  61.9017448  27.7026653  11.8246870  62.7771912  27.3730965
  11.3144445  61.3521957  27.3778553   1.8299251  -0.0069055  72.1905441
   1.8833423  -0.6946968  72.8541107   2.1457524   0.7797984  72.6350479
  59.4888916   8.5199471  85.1572952  59.2843933   8.7977610  86.0501709
  58.7523575   7.9630303  84.9051208  65.1897354  63.0003586   9.1073666
  64.4175873  62.9580002   8.5432444  65.9292679  63.0207634   8.4999952
  76.0009460  50.5850716  41.5335197  76.6903610  50.1701775  42.0519829
  75.4138641  49.8669128  41.2972908  69.2251282  67.4601593   9.6091413
  69.8475723  67.5097198   8.8836498  68.4741135  66.9887543   9.2486048
   5.2601056  18.5638084  25.8766956   5.4822431  17.9928665  25.1412296
   4.3845978  18.8909321  25.6700382   1.8986968  39.7645798  45.1023827
   2.3311760  40.4844742  44.6430969   2.5954516  39.3544464  45.6147842
  45.9432869  11.1919661   8.5409126  45.6656456  10.5000305   9.1412230
  45.4665985  11.9686470   8.8337679  70.7134476  45.6960030  62.4120636
  71.4526138  45.2472572  62.0015831  71.0395126  45.9558258  63.2736931
  83.6025391  59.0263557  64.2230072  84.0728989  59.1297874  63.3957825
  83.1076202  58.2138977  64.1171494   9.5098734  18.2128811  71.8571320
  10.0593605  17.5174751  71.4955978   8.7604113  18.2589874  71.2634888
   1.4747711  38.2658920  80.6636429   0.8639717  37.5365181  80.7693405
   2.3310492  37.8937149  80.8746033  19.8035698  32.3790054   6.8160019
  19.7940693  33.0781937   6.1623397  19.2742290  31.6818428   6.4287076
  58.4262047  39.7252388  20.2384949  57.7285500  40.0786514  19.6865826
  58.1069145  39.8433304  21.1331120  76.3659973  21.3687401  38.7242851
  75.4393997  21.2744064  38.9450722  76.8301315  21.0068626  39.4791718
  67.1493759  18.2892361  64.7490311  67.3368530  17.5084305  65.2700119
  67.8375626  18.9091892  64.9904556  14.5250044   2.5328271  29.3796539
  14.3381605   3.4048109  29.7274532  14.4061623   1.9464304  30.1268120
   0.2352320  35.5102501  49.4339714   0.9150809  35.8688507  48.8634949
   0.2972682  36.0291290  50.2359390  41.2772942  65.6439438  67.6899414
  42.1649132  65.4652634  68.0004883  40.9940033  66.4037399  68.1985550
  62.4949226  26.2686424  17.3485775  62.3332596  25.7111626  18.1097012
  62.9882240  25.7129803  16.7451496  41.5103149  54.0906868   7.1568990
  40.6669922  54.2548294   7.5789151  41.4370308  53.2001953   6.8135538
   3.2133539   3.1694460  20.4686356   2.8902450   3.3966992  21.3405247
   4.1594472   3.3051076  20.5209370   7.7866402  15.9902849  26.1229992
   7.1027274  16.1885662  25.4833279   8.3001032  16.7959442  26.1821594
  74.1784897  40.2874870  38.9375610  73.3941040  39.7415085  38.8838615
  74.1294403  40.8536224  38.1672897  15.0339327  66.8489227  81.4873276
  14.2445068  66.4219208  81.1546021  15.6931019  66.6944504  80.8106689
   0.6086820  42.2478943  25.7723923  -0.0628560  42.5481224  26.3848724
   0.4476906  41.3086777  25.6819515  81.3232346  53.3573380  12.7648230
  81.5522385  52.5356560  13.1991377  80.4347458  53.2159576  12.4379644
   7.5387607  30.6753979   3.0207977   6.6426258  30.6511345   2.6852589
   8.0059576  30.0191822   2.5037496   7.4029555  63.4680481   2.5514433
   7.8605733  62.7231560   2.9412570   8.0996742  64.0809937   2.3166745
  35.5343895  45.9641075  78.3315201  35.4733124  46.1215744  79.2737045
  36.3541374  45.4822121  78.2218704  74.4474182  17.1243935  34.6894760
  73.7124023  16.5199051  34.7923584  75.1774368  16.5693321  34.4152374
  26.0197868   4.6097116  87.2017670  26.3130188   3.9062088  87.7808456
  25.4810104   5.1704512  87.7599106  34.0020103   2.0262358  56.6928101
  33.1739769   2.3851035  57.0118790  34.1426392   1.2412242  57.2221603
  42.4039154  49.9745712  30.6752796  42.3463554  50.4704514  29.8585644
  42.7692833  50.5944061  31.3065796  32.5776978  34.9974747  14.3036146
  32.0504417  35.4258423  14.9779558  33.4627533  35.3350868  14.4411812
  31.1123352  10.9513865  18.0992699  31.4092789  10.8636904  17.1935291
  31.9167709  10.9344988  18.6177559  67.7961731  11.9732161  49.4242592
  68.0067368  12.8725319  49.1730080  67.9077454  11.4672985  48.6193810
  35.1051598  66.2723694  81.7984085  35.1125031  65.9071045  80.9136734
  34.4008636  65.8029785  82.2454758   7.0571837  49.1444397  53.5626335
   7.8879271  48.7356644  53.3197327   7.2139769  49.5054626  54.4351654
  51.0205269  30.3105965  78.3640594  51.5377541  31.0264511  78.7331924
  51.2979126  29.5369205  78.8546906   6.2275872  56.8463135  66.7912216
   6.7591691  57.2769547  66.1217422   5.5714550  56.3551674  66.2967529
  70.6415176  33.8614006  54.3566780  70.0108414  33.8577232  53.6366310
  70.6653061  34.7723732  54.6495857  75.7458649  60.0888634  53.9553070
  75.1876068  60.8461990  53.7791672  76.6201019  60.4590034  54.0775414
  43.4558372  39.1773033  76.4594955  43.4517860  38.3530159  76.9460831
  42.5375748  39.4465904  76.4368744  19.4508095   2.6748660   9.1948614
  20.1485691   3.3297000   9.1713028  19.3939819   2.3529468   8.2952118
  15.4382010  23.3711586  86.7456207  14.9616528  22.5658398  86.5441360
  14.7552881  24.0052948  86.9641037  54.1867867  69.0641632   6.7940512
  54.5952606  69.9011078   7.0151982  54.7984581  68.6531143   6.1832128
  25.9920235  63.0090294  29.3195686  26.8921700  62.7566643  29.5251980
  25.8905506  63.8758583  29.7126846  33.7863770  10.3282299  27.4413567
  33.3610916   9.4785566  27.5571938  34.6262665  10.1217518  27.0312538
  24.3143635  24.4094124  23.7535725  24.0291958  23.7357063  24.3708477
  25.2297764  24.1962547  23.5724201  28.4352684  68.3432999  30.6730537
  28.8973770  67.6892700  30.1487103  28.2053566  67.8838806  31.4807091
  58.0171204  53.7897034  47.7419434  57.8633728  54.7329979  47.7947922
  58.8351936  53.6532249  48.2198105  48.2466774  71.1319351  49.9747505
  48.8988647  71.3416138  50.6432686  48.7585526  70.8046188  49.2351036
  23.1560478  69.9714050  86.1543274  22.2172565  70.1582260  86.1548004
  23.5147343  70.5449295  86.8315582  30.4664974  26.5860882  22.1404381
  30.7030220  27.4979134  22.3103294  30.6307240  26.4663391  21.2050648
  34.5258865   5.8733006  12.5346069  33.8996696   5.6446900  11.8477135
  35.3111343   5.3697114  12.3200912   3.4648035  51.0426712  82.8318787
   3.7679904  51.9247055  83.0471115   2.7092471  50.9031563  83.4027557
  73.8704529  12.4473238  77.7108765  73.4742661  13.0697546  77.1010818
  74.4033966  11.8762293  77.1576538  77.6810608  34.6371269   8.3367777
  78.2589417  34.8567963   7.6060033  77.9820633  35.1929359   9.0556011
  37.6514511  58.1285019  79.8546066  36.7417603  58.0309486  79.5732193
  37.5925751  58.5384941  80.7175522  84.3927460   8.1121922  75.4872589
  85.1195297   7.9239397  74.8934784  84.7329407   7.9010649  76.3566971
  82.3188477  52.9344635  28.7090206  82.7271347  53.1984253  27.8844872
  81.4933319  53.4183693  28.7332077  45.3196373  11.4921360  14.7118349
  45.4480896  12.3197460  15.1752939  44.3691788  11.3889647  14.6648226
  59.9271278  38.2443161  15.0054941  59.2871475  38.6115532  15.6152468
  59.9377670  38.8580627  14.2710323   2.3740470  14.5150404   4.6855979
   2.3425479  13.6447172   4.2883868   1.7538425  15.0344324   4.1739240
   1.0179240  33.2061882  30.0189419   1.2773056  32.6066360  29.3193054
   0.6957750  33.9828987  29.5615902  57.9709778  67.6053314  12.7114058
  58.3940353  66.8563309  13.1312304  57.3371162  67.2158203  12.1091375
  78.5093307   5.0932131  81.9179993  78.5038910   5.1034074  82.8751297
  77.7811966   5.6621575  81.6682739   1.2756947  12.3667450  43.3949738
   2.1036963  12.6496859  43.7830315   0.6181155  12.5673666  44.0609856
  83.5781937  42.5197983  69.9013290  84.3924866  43.0228844  69.9093094
  82.9083710  43.1438255  70.1809235  44.1799965   1.8677642  77.6726227
  44.3118401   1.9742662  76.7305450  43.9229927   0.9515740  77.7764359
  84.0250092  25.3176098  42.1413879  84.3740158  24.5058479  41.7733269
  83.0803452  25.2586117  41.9986458  70.0884247  36.5402603  88.3622894
  70.3339691  37.2464104  88.9600296  69.4303818  36.0377998  88.8426437
   9.5708055  54.4995346  82.5852966  10.4647417  54.7848625  82.3963547
   9.6222267  54.1141434  83.4599686   1.5891818  60.2871475  68.1763382
   1.6994106  60.5998650  67.2784042   2.4672956  60.0175972  68.4455795
  20.6113758  14.6136436  12.2525759  21.1884766  14.0201826  12.7331924
  19.9747105  14.0378590  11.8290653  70.2779160  63.5860252  86.2592468
  70.4240875  63.8980484  85.3662186  71.0935059  63.1439018  86.4949875
  12.5450134  65.1423798  36.9531708  12.0860443  64.6075211  37.6008682
  12.5544367  66.0214539  37.3318062  62.7179375  62.8771095  63.8370171
  61.7924767  63.1118584  63.9051895  62.8745270  62.7909012  62.8966522
   8.3098621  43.0633125  82.9522552   8.1746855  43.9947968  83.1263199
   8.3560362  43.0021858  81.9981232  13.2537899  34.4100266  23.2283573
  13.6552439  33.6885529  23.7126522  13.4876137  34.2447929  22.3149815
  31.8303852  55.9840927  80.0840683  32.2715187  56.6767387  80.5758743
  31.7004089  56.3554573  79.2114716  59.3198166  54.1792297  54.2068138
  58.5669174  54.3553123  53.6425743  59.3708153  53.2242393  54.2470589
  36.6676903  50.4578018  39.7312965  37.1666565  50.4537354  38.9144440
  37.3288574  50.5637894  40.4153023   7.4777870  54.7394409   2.9577291
   8.0116425  55.5335846   2.9338908   7.4345751  54.4524193   2.0455978
  30.2189865   9.1262865  31.9977341  29.7611427   9.9002409  32.3257675
  30.4817772   8.6513577  32.7861595  28.6750240  20.6242981   6.9742622
  28.4913445  20.0365238   6.2414484  28.4558201  21.4953423   6.6434097
  61.2691040  25.3004112  83.9095230  61.3656425  26.1261845  83.4351730
  60.4937096  25.4274559  84.4561996  63.6557808  68.9831696  15.9155836
  63.2209663  69.6324158  15.3627272  63.8676414  69.4568634  16.7199230
  11.9924545  27.9177532  73.8696899  12.6154518  27.2233982  74.0841141
  11.8898916  27.8625164  72.9196091  30.3013611  56.7924728  87.0797653
  30.8318901  56.1558609  87.5588303  30.9243259  57.4655914  86.8057938
  44.3655472   8.0010386  54.8155632  43.6569443   7.6777530  55.3719826
  44.0662308   8.8616734  54.5223923  64.5719604  66.7864990  40.2856293
  64.8737793  66.0525513  40.8208427  65.1530304  66.7831345  39.5249863
  40.9650917  19.9875736  15.7582235  41.6022949  19.5678635  15.1802559
  40.8206520  19.3507481  16.4580994  62.7696152  46.6128349  69.2474518
  62.9825401  47.4905853  69.5643921  62.5864143  46.1096115  70.0408249
  82.7870255  47.0513039  42.5874825  83.4131699  46.5562706  43.1157951
  82.2033463  47.4589729  43.2272949  83.0733337  26.2120132  82.1104355
  82.8762970  26.2712231  83.0452652  82.4147491  26.7659302  81.6912994
  69.8849487  19.5354862  18.5060959  69.9789734  20.0001049  19.3376732
  69.0119476  19.7751637  18.1951962  63.5573044  69.0571213   8.1932611
  63.2771034  68.1471176   8.2912683  64.4817810  68.9984360   7.9521480
  12.2098904  45.4944916  42.7218552  12.9009190  44.9437599  42.3538818
  12.1345472  46.2258034  42.1088791  12.9628716  11.8576012   1.0005031
  12.5837154  12.7328854   0.9208058  13.5954885  11.9347410   1.7147000
  20.0672131  17.0506725  83.1463165  20.4088306  17.9241390  82.9550400
  20.4306774  16.8340721  84.0049286  58.9810181  12.4247923  24.0503407
  59.6880798  12.5365734  23.4148884  58.6012039  13.2985954  24.1422176
  32.9149132  49.5233917  14.1533899  33.6531525  49.3217697  13.5784264
  32.6387024  48.6732063  14.4956169   8.1281252  46.2878113  27.1681824
   8.8371983  46.3334274  26.5268040   7.3347311  46.1905823  26.6415863
  59.1875496   1.8683207  10.9258699  59.7338676   1.2967309  11.4653635
  58.9643250   1.3356171  10.1625681  15.7025948  46.1245422   8.4966984
  15.5109005  47.0306892   8.2550755  16.1480274  46.1909866   9.3413324
  57.5403900  62.6316833  75.2411804  58.4796677  62.5008049  75.3710403
  57.4191513  62.5729713  74.2935028  83.3696671  68.6768341  32.6833191
  84.1835403  69.0770111  32.9894333  82.7414780  68.8440704  33.3859177
  46.1881752  22.1619930  75.8158722  46.5082321  21.4117908  76.3168640
  46.2717018  21.8924179  74.9012222  11.1410275  55.2175980  38.8989334
  10.6501341  55.9801979  39.2050362  11.2624598  54.6807823  39.6820755
  73.9818039  11.8845396  80.3078766  73.8912125  11.9993086  79.3619156
  74.0250549  10.9362822  80.4310455  41.0868073   5.3967743  88.5649796
  42.0066338   5.1722775  88.4244385  41.0742531   6.3536701  88.5855789
   8.0577307  15.6577568  52.6548767   7.7557292  15.2901316  51.8242874
   8.1031590  14.9068470  53.2467422  62.2737465  33.8020020  38.8751183
  62.5690117  34.2606735  38.0885620  61.3549881  33.5967140  38.7019882
  53.8456726  57.3800888   8.4597950  53.7278709  56.8690834   7.6590281
  54.7552910  57.6759033   8.4235086  73.1212311  42.7505951  30.8343086
  72.6255264  43.2549171  30.1892033  73.9259338  42.5038452  30.3784485
  82.7139664  39.9784698   9.7433939  82.5829163  39.9122467   8.7975225
  82.9517822  39.0919266  10.0148954  76.5696640   5.2823424  15.3331919
  76.3465042   5.2087855  14.4052811  75.8980789   5.8599067  15.6959963
  48.5731316  24.6368294  36.1828156  49.2588120  25.1287575  35.7310562
  49.0267830  24.2009907  36.9042549  52.7336731  40.7835960  18.1564255
  52.3550606  41.6453018  17.9822216  53.4424515  40.7000122  17.5185528
  17.7634754  62.8390923   3.1488266  17.3298473  63.1446915   2.3520777
  17.3435707  62.0012894   3.3437593   8.6183872  13.6325912  39.4063301
   8.7550640  13.7140074  40.3502197   8.5005474  12.6937809  39.2614822
  75.2527161  39.3426132  58.0249786  75.2478409  39.1782608  58.9679527
  76.1641998  39.2115440  57.7637215  19.0752430  32.9780388  27.5689011
  18.8022938  32.2374344  28.1104164  18.8744183  32.7066956  26.6732044
  28.2172871  65.4162140  31.7990780  29.0996838  65.7454453  31.9700012
  28.2809544  64.4726105  31.9466572  44.7614098  10.6928139  56.7029572
  45.6194572  10.7649202  57.1210289  44.8068733  11.2920523  55.9579201
  53.4093285  40.2284355  74.0905075  54.1795044  40.5483742  74.5602951
  52.9650764  41.0215187  73.7906876  20.9126415  51.3792953  34.7942619
  21.4978485  50.6577492  34.5637512  20.8489704  51.3405228  35.7485580
  82.5972748  50.5064201  10.9991407  82.8110123  50.2985344  11.9087181
  83.4433975  50.5222015  10.5518675  81.3208542   0.4323169  18.1683998
  81.6085434   0.7276822  17.3045578  80.3931808   0.6654290  18.2045536
   9.2252817  68.2008286  51.8637314   8.5670462  68.6428528  52.3999863
  10.0027676  68.7547302  51.9339714  49.7571754  54.5123062  30.9998817
  50.4203987  55.1669502  31.2185326  50.0688210  54.1185417  30.1849861
  32.5109749  34.4863548   4.0619454  32.8437958  34.3835144   3.1703818
  31.9010506  33.7574310   4.1754847   1.2887887   7.5000949  23.1691952
   0.9549963   8.1312752  23.8067112   1.8716429   6.9340062  23.6752148
  81.9819107  53.8615837   0.3724585  82.7918549  53.8812714  -0.1372874
  82.2650146  53.6595268   1.2642311  78.0971375  63.2808189  72.9322662
  77.4988556  63.3863678  72.1925812  77.5969086  62.7780151  73.5750656
  19.2110062  51.2350273   3.6933155  20.0307732  51.5556221   3.3172419
  19.4099388  50.3422623   3.9754994  64.4291992   6.4797726  38.5901031
  64.2431564   6.5429897  37.6532898  64.4908142   5.5396347  38.7591515
  65.4126511  19.8005276  28.2418556  65.0483627  19.0530510  28.7159863
  65.7145920  20.3954620  28.9282341  24.9730606  12.5857439  24.5343342
  24.1388092  12.5166683  24.9985390  24.9920731  11.8197498  23.9606419
  20.8631058  28.6374073  26.7095222  21.1134701  28.5700893  25.7880993
  20.3286762  27.8596668  26.8699417  42.3065300  33.0884743  59.3990860
  42.6852417  33.6321297  60.0899162  42.9629021  32.4098282  59.2414703
  32.3204231  -0.0945052  34.3901825  31.4954185   0.3367615  34.6129074
  32.8195915  -0.0930047  35.2069206  26.0369663  67.7425995  40.0264130
  26.5638695  67.5178909  39.2595291  25.7963238  66.8981323  40.4074669
  84.0748062  61.2196121   8.2872925  83.8897781  62.0611839   8.7041292
  84.5495453  60.7218666   8.9529505  46.5527115  40.0289116  72.3373489
  46.8455582  40.2656670  71.4573364  45.9951591  40.7581749  72.6085358
  48.5424805  41.0909462  74.0151672  47.8449402  40.6554527  73.5252533
  48.9873085  40.3821297  74.4798660  59.5136299  50.7367821  18.1173668
  58.7234344  50.4213219  18.5558968  60.2236252  50.5298996  18.7250996
  16.9762077  69.7724075  36.8708763  16.7144508  70.6884842  36.7785149
  17.1382713  69.4780807  35.9745865  24.0080147   2.0427701   1.0106162
  23.4952011   2.8132169   0.7663492  24.9153099   2.2944653   0.8382859
  31.4164944   0.8811754  24.7738724  30.5760632   1.2284197  24.4749928
  31.6581059   0.2347695  24.1105366  32.4460068   4.1629519   3.9263833
  32.0638237   4.8598461   4.4597740  32.9208145   4.6237726   3.2346945
  51.1388588  49.0449638  71.4653091  50.2273369  49.2108383  71.2248077
  51.1032982  48.2600060  72.0119476  56.0276566  24.5529289  36.2493858
  55.9089050  23.6445808  36.5269356  56.7032280  24.5102139  35.5726204
  14.4513760  61.4786224  28.5095367  13.5689621  61.5488586  28.1453323
  15.0073233  61.9388924  27.8808002  31.4560089  10.3224678  21.7249203
  30.7093620  10.5460529  21.1692581  31.7373543   9.4622431  21.4133301
  56.5594292  18.8702545  88.6561050  55.8619614  18.9244461  88.0027771
  56.7286911  19.7797794  88.9017563  32.4944267  50.5623817  16.9529419
  32.8186150  51.4325676  17.1851254  32.7876434  50.4302330  16.0513916
   9.9791336  48.1066437  67.5006409  10.6929569  48.6866951  67.2356339
  10.3920908  47.2489204  67.6007004  25.8787937  32.0793114  73.2053223
  26.5714703  32.5584335  73.6601562  26.1886730  31.1739330  73.1830673
  61.9315376  13.0057735  78.2239685  61.4218254  12.7158747  78.9805298
  61.4832115  12.6203251  77.4711990  69.8500595  61.4305229  50.2364273
  69.6629715  60.7654648  50.8989449  70.7408371  61.7205124  50.4330254
  72.1634979  65.2017136  60.8551254  71.8436737  65.9648972  61.3362617
  71.6616974  64.4676361  61.2094727  16.5979214  13.3699312  24.7246189
  15.7887335  13.8798628  24.7622757  17.2679424  14.0026731  24.4658909
  50.0944252  63.6369934  47.7516556  50.7524033  62.9581833  47.6016121
  49.9450302  63.6209717  48.6969910  65.5608673  53.3389587  41.6069984
  65.3287582  54.2623291  41.7057152  65.3786011  53.1431084  40.6879501
  26.5781021   5.6171341  49.7657547  26.1001434   4.8751564  49.3952751
  27.4411011   5.2630267  49.9804039   1.9211766  18.3863907  59.2466393
   2.5450742  18.8652477  58.7010384   2.3813481  17.5823135  59.4873352
  80.0087814  18.0031757   8.4488058  80.7767792  18.5503197   8.2843256
  80.2307053  17.5101109   9.2386618   8.6421280   7.3217835  45.9436035
   7.9977307   7.4417067  46.6411705   8.5618801   6.3997641  45.6993217
   1.3363322   8.3251076  18.9577427   1.8023490   7.5122924  19.1536789
   1.4427135   8.8580942  19.7456779  26.4869328  35.8400650  87.9018784
  26.6767235  34.9021683  87.9256439  27.0329475  36.2125359  88.5942459
  51.7955742  35.6538887   5.9493952  51.6091537  34.7356377   6.1450787
  51.3999443  36.1382980   6.6740017  35.4339600  44.9078751  83.9959412
  35.5411263  43.9670525  83.8559418  36.1934052  45.1598892  84.5212555
  70.6298676  56.1857834  48.6693726  70.9073639  56.6873207  47.9027672
  70.2249451  55.3980141  48.3064728  74.9529343  28.2842178  72.9049225
  74.4031296  28.1817608  73.6817474  74.9652100  29.2275238  72.7429047
  46.3071899  45.6695099  63.7805138  46.4650040  44.8787422  63.2647476
  46.9983368  45.6654396  64.4427338  13.0886898  11.8710604  15.6475239
  13.6846828  12.6149139  15.7353048  13.1390057  11.4229040  16.4918327
  25.6012783  66.4119644  15.0125313  25.7322521  65.6430740  14.4576645
  25.9987278  66.1734772  15.8500185  50.1396828  69.3747177  64.1036301
  49.9323921  68.4973373  64.4252930  50.6227875  69.7848740  64.8209915
  52.4095268  57.4116020  49.6252556  52.6710052  58.3288803  49.5448952
  53.2215996  56.9481163  49.8300743  61.9332581  65.3214493  57.0031433
  62.2642250  65.9008102  56.3168259  61.0433731  65.6319809  57.1701927
  42.4553719  27.6249485  87.8229523  42.1390877  27.5765095  86.9208145
  43.0471191  26.8775978  87.9097443  28.5998211  66.7893372  77.0249405
  28.2729721  67.5125275  76.4897766  29.5518456  66.8862381  77.0028381
  17.1715984   5.9751492  87.9405212  17.6982822   5.1961832  88.1195374
  17.4911804   6.6285419  88.5627518  29.8212013  24.7791138  29.7110405
  30.6193409  24.3030930  29.4816761  30.1166248  25.6731949  29.8830242
   6.2539005   7.4581976  70.1148682   7.1177254   7.6947131  69.7770844
   5.6633620   8.1125021  69.7415314  47.4126053  32.8310318  88.5705032
  47.9403992  32.1185417  88.9310837  48.0469208  33.4060707  88.1424713
  65.3485947  60.0000229  23.0440502  66.2995605  59.8947792  23.0155010
  65.1300888  60.4285126  22.2164745   8.5651846  26.3776398  19.3614902
   8.2269421  26.7375507  18.5415573   8.3742533  27.0503330  20.0151424
  83.6513214  32.5703888  17.9175739  84.2832718  31.9553108  18.2898006
  83.2938690  32.1146698  17.1554813  68.8644943  59.5567932  39.4388504
  69.7734451  59.7174606  39.6922874  68.8355942  58.6231575  39.2297668
  29.3015461   4.3153768  76.9558563  30.1708717   4.5354018  76.6210556
  28.8074665   4.0468473  76.1812592  64.4795380  60.6343880  31.7805634
  64.0336456  59.9811592  32.3197365  63.8935127  60.7709236  31.0361385
  68.1818848  30.2428970  72.7737732  67.4502640  30.5099926  73.3302078
  68.6897049  29.6413021  73.3182297  16.2910423  39.4002647  28.6405792
  15.7841015  39.4884377  29.4477158  16.5063801  40.2996140  28.3935356
  66.8687744   9.8292809  59.5472984  67.4626236   9.1978159  59.1413116
  66.8012772  10.5393066  58.9089088  72.9475250  16.9009876  12.8256712
  73.6660309  17.1703587  13.3978739  72.6566544  16.0627670  13.1848526
   9.3457537  64.9401550  46.0849953   9.6905460  64.9021606  46.9771309
  10.1183443  64.8578644  45.5259209   1.0154809  15.1351290  62.8850250
   0.4765771  15.8610878  62.5707016   1.0092065  14.5033379  62.1659737
  30.7607231  71.2798080  58.5171356  29.8326778  71.0868530  58.3839607
  30.9493217  71.9868011  57.9000320  85.7062149  43.0058441  17.8250656
  84.8016663  43.2593918  17.6413689  85.9131088  43.4395332  18.6529160
  44.9908371  14.0935574  22.1935806  44.9607239  13.1772833  22.4688396
  45.1012268  14.0547438  21.2435608   6.4376936  24.9337711   7.0543242
   5.9319134  24.9466152   7.8668838   5.8021083  24.6928558   6.3803639
  82.4651184  16.7396717  29.2495003  81.7366409  16.3445492  29.7284813
  83.2333832  16.2413673  29.5282440  24.3686371  46.2885246  43.4906616
  23.9533062  46.4364929  44.3402710  25.0978527  46.9082222  43.4693718
  52.8235931  16.7487354  31.1314850  52.3326950  16.3564510  31.8535404
  52.1837425  17.2961979  30.6763935  77.6498947  56.0343552  64.0653915
  76.7768555  56.1957664  63.7076454  78.1567993  56.8077660  63.8181648
  70.1378632  61.0090408   0.2491941  69.6646957  61.0657616  -0.5809387
  69.9424057  60.1311378   0.5767922  14.0723658  60.3625336   3.8422163
  13.4434156  59.7962265   3.3950567  13.8116827  61.2503624   3.5971909
  48.6427574  44.8199615  48.4140663  48.5073586  44.4539490  47.5400314
  47.8187752  45.2618942  48.6189499  45.1586647  53.7710533  76.5935593
  45.6912346  54.0375862  77.3429337  44.3070183  53.5510941  76.9711075
  73.6974869  41.4069977  16.6903229  74.1872864  40.9496346  17.3738003
  74.3711548  41.7836990  16.1241951  73.1742249  24.3034592  67.8010941
  72.6507950  24.9322586  67.3042450  72.5744171  23.5785255  67.9769669
  62.1920280   8.9251080  36.4947090  62.7665939   8.1717806  36.3583107
  62.7379799   9.6834326  36.2870789  50.0213470  30.8911629   0.5746733
  49.5630226  31.0348549   1.4026364  50.9194946  31.1745052   0.7457797
  26.9958019  19.2930470  16.1585827  27.8180790  18.9910793  16.5444660
  26.3171520  18.8214378  16.6415424  41.0661392  70.0233078  29.7932491
  40.1284370  70.0713654  29.6071472  41.4707870  69.8538055  28.9425087
   8.4773178  32.4131165  28.6067181   9.2948904  32.2689209  29.0831776
   8.3981190  33.3653221  28.5496178   8.9676647  67.6578217  46.8768082
   8.7373648  66.8039932  46.5105133   9.2253399  68.1821213  46.1185532
  37.6266098  22.7321262  81.0549545  38.4507713  23.2017918  80.9268646
  37.1909790  22.7762985  80.2037735  26.7184219  55.6660690  72.0504608
  27.3866081  56.3297272  71.8792343  27.1565590  54.8337250  71.8730774
  70.1498184  67.1401901  37.3781548  69.5801544  66.9985123  36.6220856
  69.7230835  67.8406067  37.8716583  37.5495796   4.7968249  85.7404861
  37.9591751   4.3012433  86.4496155  37.6663971   4.2471752  84.9655914
  59.6125374  34.6214180  34.4876175  58.6632996  34.6255379  34.3645020
  59.7841148  35.3751678  35.0521164  33.7492676  51.7238503  28.2574863
  34.3737068  52.3227539  27.8480663  34.2950287  51.0578728  28.6756382
  54.8837624  27.2484646  88.2081833  54.4350090  27.1857777  89.0513458
  54.3661537  27.8791904  87.7076797  64.6107025  46.4527664   3.3346083
  65.1949997  46.6849747   2.6128669  63.7576866  46.7996101   3.0732787
  66.5424118  49.9344559  59.5685539  66.8426514  50.3126678  58.7420883
  66.2935638  49.0375824  59.3451195  45.7743912  48.8185577  21.2597275
  45.3719788  48.6822624  20.4019871  46.5642815  49.3269081  21.0756531
  82.5426407  58.6726341   3.2682822  82.6626434  59.6133690   3.3980904
  81.9129181  58.6083336   2.5502648  76.5964203  57.3945923  74.7364426
  77.0803680  58.2197418  74.7024155  76.3120956  57.3210754  75.6474762
  13.4824429   1.2588581  41.4588394  13.0703869   1.0326872  40.6250000
  14.1966438   1.8499227  41.2205315  55.6516800   6.3011599  26.1954155
  55.7371178   6.1235957  25.2587185  54.8599663   6.8343754  26.2668762
   3.5983942   8.0575962  54.7408409   4.0640149   7.3407774  55.1716537
   2.7644877   8.1159906  55.2071228  62.7403641  39.3977356  19.4820309
  62.4283028  39.4440765  20.3857460  61.9627266  39.5695572  18.9510059
  77.9863739  25.5066547  60.7797089  77.8354874  24.6061459  61.0670204
  78.3095932  25.4209290  59.8828201  68.3621216  33.8354416   8.9948225
  68.2506409  32.8903046   8.8922472  67.4907455  34.1980972   8.8353767
  48.5076790  13.9376459  51.1506844  48.6318283  13.0774689  51.5518265
  49.1294098  13.9545937  50.4230881  19.6907692  70.4654465  27.0718765
  19.0691071  70.1113205  26.4359818  19.3748455  71.3517303  27.2476940
  72.1397095  62.1927681  76.7244339  71.3096771  62.6290894  76.5323181
  72.1055298  62.0162811  77.6646042  46.7025490  68.7133636  64.5250473
  47.1838493  69.3792572  64.0339661  45.7927322  68.8226776  64.2484283
   5.7596278  13.0591297   3.6514816   6.3549495  13.8081198   3.6225159
   5.5898838  12.8524113   2.7324135  63.9295044  68.2985458  62.9347305
  63.5614929  67.6188431  62.3700981  64.7972183  68.4700165  62.5687981
  21.1539154  69.8562546  56.0892258  22.0240631  70.2288513  55.9469261
  21.2084446  69.4426270  56.9507141  23.8009949  66.5181351  69.9123917
  24.4094391  67.2379532  69.7454071  23.8310452  65.9892883  69.1151199
  32.8203087  58.3758354  25.1668396  33.3340988  57.5910645  24.9760723
  31.9999275  58.0425148  25.5302963  80.2196503  33.8188095  35.2845688
  79.6031418  34.2708969  35.8605576  80.6943283  33.2219505  35.8630791
  49.0177040  42.7345619  56.0833702  49.3325195  41.8407516  55.9483452
  49.8109474  43.2702789  56.0845222  62.8687439  35.1978264   0.0513140
  63.3818130  36.0047188   0.0951049  63.2027054  34.6622887   0.7709643
  28.9502583  67.9987488  81.4752808  28.2031193  68.3242874  81.9773178
  28.6461735  67.9962921  80.5676727  49.6972313  55.2195549  19.0709152
  49.1251144  55.6439705  18.4315548  49.1046982  54.9180069  19.7595387
  84.4787521   7.8013649  20.9605656  85.3030243   7.5603781  21.3833332
  84.4921417   7.3336086  20.1255474   2.4732244  56.7221756  62.6782417
   3.2362006  56.4958267  62.1463928   2.8407133  57.0110931  63.5135307
  45.7350235  19.9576721  70.2458801  44.8109818  19.7161236  70.1823349
  46.1995430  19.2453804  69.8064499  31.2722969  67.3118439  77.2010574
  31.5512981  67.2249756  76.2895508  31.6413803  68.1478348  77.4858780
   1.3951118  65.2825775   9.8615942   1.9281811  64.4875565   9.8645325
   1.7550919  65.8096848   9.1482868  66.6102829  27.7317734  82.3234406
  66.1813431  27.9671516  83.1461411  67.4579849  28.1748276  82.3599930
  75.5884247  62.3399467  26.7722321  76.5319748  62.3800087  26.9282665
  75.5077667  62.0289459  25.8705654  83.7498627  52.5961990   2.5122957
  84.5380783  53.1385422   2.5407174  83.1721497  52.9784813   3.1728611
  15.7634001  52.4319725   3.7082047  16.4439754  53.0887032   3.8556929
  15.3211327  52.7205009   2.9098423  36.4725647  52.5489998   0.2962628
  36.6002045  51.6015930   0.2476440  35.6183090  52.6544075   0.7150268
  41.3247032  56.1512680  21.0536079  41.2005997  55.4135628  20.4564304
  41.5844574  56.8773689  20.4865665  35.3034668  46.8810806   7.9646621
  34.9397926  46.1164780   8.4111547  34.5769730  47.5030365   7.9245267
  55.6588593  37.5050507  20.6071396  55.5785675  38.0200043  21.4100132
  56.4182434  36.9423180  20.7584629  61.9950218  65.0501175  14.7283430
  61.4668427  64.4917297  14.1578541  62.8419418  64.6070557  14.7797756
  58.3329697   6.3723907  48.2951736  58.2546883   7.2781110  47.9955482
  58.3382454   5.8536115  47.4907684  84.2009430  20.0809326   4.8945456
  83.3823853  19.7059174   4.5696635  84.4370728  19.5302105   5.6409907
  64.6427994   2.9966414  68.2549896  65.5207596   3.1064451  68.6201782
  64.0643082   2.9978328  69.0176010  40.7080460  51.7968025  13.7986937
  39.9973907  51.3068199  14.2123642  40.3909454  52.6994591  13.7689133
  78.1197586  45.0300903  50.5939674  77.2609329  44.9159317  50.1870079
  78.0419693  45.8429146  51.0934639  15.6708031  56.9076614  71.1876602
  16.1439953  56.1378098  71.5033417  14.7476616  56.6930008  71.3216858
   7.5051527   9.5229607  74.5600433   7.5319843  10.3192558  74.0295410
   8.3251591   9.0725727  74.3576279  22.4299431  66.0438995  79.2609100
  22.1344643  66.6650314  78.5952377  21.6522427  65.8747711  79.7927094
  19.1817513  44.7681923  15.9035940  18.6356010  44.3757210  16.5847092
  19.0245152  44.2276421  15.1294422   1.2497449  39.1150475  40.6630936
   0.8456894  38.9465561  39.8118706   1.6407331  39.9842758  40.5747757
  77.8135071  18.3962193  18.6261787  77.2966232  19.0835419  19.0464764
  78.7028275  18.5313549  18.9534092  47.5175781  22.2681446  58.5359421
  47.4149590  22.9859772  57.9111061  47.1932182  22.6229057  59.3636894
  67.8877640   7.8572669  76.5757980  68.7590714   8.1333189  76.2914581
  67.9890747   7.6677680  77.5085678  32.1005363  40.2686615  83.6724930
  31.8655453  41.1425896  83.3606262  31.4522438  39.6891937  83.2722855
   3.4080520  44.3121605  32.9359169   2.4611659  44.2604332  33.0661583
   3.5677335  45.2258492  32.6994629  14.8572407  26.2788219  88.8215485
  15.4986143  26.7246418  88.2682724  15.3822460  25.7181835  89.3927689
  70.1530228  40.8782272  47.1179810  70.2523956  40.1802139  46.4705734
  70.8452759  41.5037041  46.9039879  49.3026085  66.4238510  67.5497208
  48.6289330  65.7872391  67.3107452  48.8256454  67.1179047  68.0047302
  32.3841591  35.2439995   7.8866596  31.9991016  34.4726486   7.4707522
  31.9266014  35.9844093   7.4883332  61.1755295  10.7546759  18.6922855
  60.2988968  10.8201866  18.3135376  61.6857109  10.2815723  18.0349255
  21.6707611  54.2010078  10.9863453  22.3452168  53.6671982  10.5663595
  21.5514660  54.9445992  10.3955240  38.8450623  18.8784466  26.1424599
  38.0578918  19.0246716  26.6670704  39.1650658  18.0215302  26.4244595
  73.7353973  46.6840401  70.8510437  74.4484253  46.1501274  71.2014236
  74.1578979  47.4983101  70.5777359  12.4100294  51.5003510  51.9575653
  11.8670025  51.5092812  52.7457771  12.1866598  52.3129158  51.5036087
  69.0227051  17.6356239  36.9138145  69.4752960  16.8326778  37.1720161
  68.4712906  17.3732967  36.1766891  50.2001686  60.9984779  26.9660339
  49.7745247  60.4467697  27.6222935  50.3299942  60.4199753  26.2145576
  84.4120636  34.6138000  68.5144806  85.0323715  34.1348915  69.0641174
  84.3166351  35.4632645  68.9452209  34.7240105  50.1923676  78.7759323
  34.2307663  50.0718994  77.9644928  35.6414833  50.1328163  78.5096054
   7.5682693  27.2333527  80.3529358   8.3975315  26.9182358  80.7124557
   7.6480827  28.1871147  80.3671188  50.9718781  50.4449577  60.6777534
  51.6208649  51.1424713  60.7700539  50.1449432  50.9048233  60.5330658
  86.1915588  66.1701202  47.3736877  87.0274429  65.8964615  47.7513771
  85.6379929  65.3910751  47.4273529  25.3380718  62.2900696  57.2256317
  25.5085716  61.3669281  57.0386162  26.0672302  62.7559967  56.8164024
  31.6739216  61.4186668  70.6005020  32.1866379  60.7987823  70.0817566
  31.7149200  61.0754471  71.4931107  29.9283943  14.8288021   8.2813959
  29.1235733  14.3199844   8.3793745  30.3345108  14.8038397   9.1478128
  49.8787079  62.4614906  63.7141953  50.1114616  61.5866394  63.4032440
  48.9664345  62.3818016  63.9928398  19.8621292  70.3262405  70.0622406
  20.0177021  70.4125290  69.1217194  20.0152435  71.2040558  70.4118576
  76.5940704  22.4896145   7.8181996  77.3927078  22.0398598   7.5422993
  76.2984772  22.9546223   7.0354943   3.5109320  69.3064423  52.8651772
   3.0448315  69.7351532  52.1474113   4.1313710  69.9659348  53.1755943
  20.3158112  23.3787804   5.0039182  21.2602539  23.2627697   5.1078534
  20.2299099  24.1314297   4.4187937  84.4197006   1.9470532  40.8379517
  84.9693909   2.5465500  41.3426056  84.5924683   1.0858976  41.2184677
   7.4624100   7.7415271  66.8339310   7.2119994   8.6164150  67.1307449
   7.8587523   7.3320146  67.6029816   1.5483637   2.6969628  55.2950821
   2.4531815   2.3934205  55.2216072   1.3952544   3.1908362  54.4895515
  81.3446503  25.3505535  63.2344971  80.7029190  24.8733749  63.7605362
  80.8368301  26.0369129  62.8017693  41.8196068  44.3823509  59.0733948
  41.5025024  44.9535217  59.7729950  41.3179207  43.5739326  59.1783104
  59.9617844   9.0908642  10.7432718  59.6554222   8.2047338  10.5505362
  59.3283882   9.6628456  10.3098249  71.4888916  60.2322578  41.2766495
  71.5608597  59.4822311  40.6863022  72.3890457  60.4093399  41.5497627
  26.9200668  23.5324879  23.8553047  26.6239357  22.8797474  24.4897099
  27.4800720  24.1213169  24.3611774  15.1340904  62.4647026  84.9422913
  15.0639362  63.3978996  84.7411423  14.3639088  62.2767487  85.4786911
  85.6906128  51.4177208  41.9566116  84.7861404  51.1214485  41.8547249
  85.7396088  52.2204704  41.4375534  55.8879852  10.3891449  14.6934652
  55.3100586   9.8734493  14.1310692  56.3472061  10.9751635  14.0918570
  81.5762939  44.3603134  27.6802711  81.7189789  44.8257713  28.5044231
  81.2777176  43.4902992  27.9451447  35.3471031  54.6638565  12.1977987
  35.9107895  54.8624725  12.9454880  35.4324112  53.7180099  12.0781107
  72.0282822  46.4487038  44.2599945  72.8446350  46.9350128  44.3753510
  72.1554718  45.9560928  43.4491997  47.6922989  61.2952919  68.7424698
  47.5685234  61.7578583  69.5712891  47.6518860  60.3682060  68.9772339
  77.1851807  34.9271584  35.0850563  77.9209824  35.0983543  35.6728706
  76.4862900  34.6161766  35.6604462  75.1585007   2.1126285  31.2734222
  75.8962250   2.5598679  31.6881161  75.5503616   1.6261017  30.5481853
  75.4346848  41.9897423  54.2801437  76.1851273  42.3734169  54.7338600
  75.0546570  41.3835487  54.9160194  17.1036224  42.1976776  33.3776741
  16.8810844  42.1507797  34.3074646  17.6738338  41.4432640  33.2295227
  47.0202484  26.9661274   0.8895175  47.5767441  26.5390644   0.2382406
  47.4961014  26.8657379   1.7139663  22.6402435   6.2154560  49.6734428
  22.3078041   7.0553870  49.9900398  23.0554466   6.4224257  48.8361855
  35.4629211   7.1229515   4.3311481  36.2130356   7.7162395   4.3708158
  35.4550362   6.6894398   5.1845164  10.9472017   0.8519121  59.6917419
  11.0999765   0.1544235  59.0542450  11.1465912   1.6585708  59.2165833
  85.3734665  55.9589500  41.3345299  86.0578003  56.4793930  41.7553024
  85.0866089  56.4939690  40.5944595  56.7488708   6.7942648  61.2626801
  56.1878357   6.4270625  60.5795708  57.5527802   6.2767711  61.2162209
  71.9096146  28.7078075  42.3218193  72.2796249  29.3504219  42.9271049
  72.0832367  27.8619728  42.7349167  50.0402489  58.5854836  76.7958603
  49.6038589  57.8382721  77.2050934  50.3170090  58.2612801  75.9388123
  37.7235336  70.0230942  29.2411995  37.7058830  69.1169052  28.9333992
  36.8598061  70.3691864  29.0166416  37.4758606  51.5190582  66.7047806
  37.3860245  50.5720215  66.8109970  38.3472595  51.6360359  66.3263474
  62.6466713  18.4545212  85.3894577  61.9535980  19.0967503  85.2364120
  63.4122696  18.8176537  84.9442291  71.6205292  31.2635384  65.8049393
  71.1435776  30.7678413  65.1393356  71.9411850  30.5988998  66.4145889
  57.9207726  14.0944490  37.7805023  58.5554581  14.2936325  38.4687843
  57.4466820  14.9152203  37.6470604  23.3435268  40.2496452  82.9843292
  23.4883633  39.5984879  83.6708069  22.7424927  39.8236961  82.3731384
  53.3511009   7.1467667  40.8001213  53.8196449   7.8214159  41.2915955
  53.8323822   7.0730534  39.9760056  80.7952805  48.0799103  34.2250900
  80.9541245  48.9080009  33.7720261  80.0795898  48.2718620  34.8310356
  84.5607834  41.3740692  11.1880846  83.7957230  40.9571724  10.7917128
  85.3077393  40.8972244  10.8262739  22.1058674  62.5753975  15.9173059
  22.2033577  61.6328354  16.0525970  21.6231098  62.6505470  15.0941839
  39.8730659  59.3106804  53.9432831  40.1584892  58.7723694  53.2050514
  40.2188339  60.1824722  53.7518234  71.8186111  46.7507057  26.0669556
  71.0066452  46.6711807  26.5675755  71.6225967  47.4033661  25.3947601
  32.2899437  54.2088585  57.2943115  32.6675720  53.6457710  57.9700050
  31.3771992  54.3220711  57.5594711  28.1108360  12.2087746  81.5323410
  28.3705769  13.0117149  81.9840622  27.4179478  12.4848909  80.9324265
  14.6160765  46.5359840  20.2506104  13.7436037  46.3842087  20.6139088
  14.7775650  47.4680710  20.3967743  38.1293716  69.3697968  47.3896675
  38.7125435  69.5307236  46.6478806  37.2553215  69.5707703  47.0551796
  31.1994324  43.5405617  71.8579865  31.3573151  43.8474617  70.9651718
  31.9711952  43.8234482  72.3484879  21.9045353  55.8343277  67.0472565
  22.0637798  56.2339516  66.1921768  21.9526405  56.5637360  67.6652222
   3.2822382  31.8212776  69.7012482   4.2085037  31.5799522  69.7063980
   3.2419441  32.6049461  69.1530991   5.3848629  16.6785984  46.6831970
   4.8905435  17.3537235  47.1480484   6.0313005  16.3738785  47.3199844
  30.5826740  41.0563965  87.9316101  31.3501949  41.4973068  87.5672684
  30.0436287  41.7650871  88.2829208  83.7640533   5.1941400   5.5647373
  84.1574020   5.8089857   6.1839895  83.6307297   4.3942900   6.0733600
  16.6356792   3.0656817  72.2526093  17.0033627   3.2695525  73.1125336
  15.6880989   3.0849962  72.3865814  78.4949875  56.1194344  66.7398605
  79.4132080  56.0305252  66.4845200  78.0196152  56.1701469  65.9105988
  23.0536671  60.8194847  68.9765167  22.3394127  61.4533958  68.9114761
  22.6426144  60.0310364  69.3309479  66.8034668  58.5140114  48.0085449
  67.6191559  59.0054588  48.1052971  66.3231049  58.6853256  48.8185654
  40.1699600  40.8433571   8.0364399  39.6170197  40.0667458   7.9506140
  40.1294785  41.2623863   7.1767864  36.9359741  36.6005402  11.6832218
  36.1590919  36.4617157  12.2248974  37.6399345  36.1562653  12.1557541
   4.3703074  27.1058483  50.3870201   3.7266345  26.9948139  49.6873169
   4.1473484  26.4299049  51.0270386  76.8737640  57.0140686  68.7632904
  77.4291611  56.7057724  68.0472412  77.0202255  56.3836327  69.4685059
  80.6218872  61.2399025  25.2694263  80.5194931  61.6607933  26.1230068
  80.4317398  61.9324074  24.6365643  46.1097527  48.9952087  24.6650867
  45.2177811  49.3338280  24.7422390  46.5276146  49.2300911  25.4936123
  79.7538300  12.6229916  61.0636749  80.1842804  13.0113955  61.8253136
  79.2954254  11.8581820  61.4117622   7.8601747  57.7094688  56.4882164
   7.0222526  57.8224030  56.0394821   7.6847301  57.9702148  57.3923531
  21.2073898  16.3633308  10.1058559  20.3738899  16.3329182   9.6361923
  21.1942310  15.5883598  10.6675301  76.4457169  58.2890244   6.0621967
  76.0173645  57.6276360   6.6056247  76.9543915  57.7845917   5.4273548
  63.6914711  27.1722507  81.8178635  62.8632164  27.5622768  82.0973434
  64.3630219  27.7439079  82.1899643  40.0592270  65.4438858  13.6330690
  39.4760284  65.6375885  14.3669567  40.0003395  64.4946976  13.5244122
  78.0212097  28.0503197  23.4154701  77.2586823  27.9600143  22.8439560
  77.6773300  28.4560452  24.2113132   7.8437028  29.3798542  26.4288692
   7.2971029  29.6528206  25.6920185   7.2724643  28.8224220  26.9572525
  73.9173431   3.4322925  84.8282318  73.9883957   3.8255959  83.9584656
  73.0187225   3.1052864  84.8705444  45.7719116  25.7678299  73.3901520
  46.1555367  26.5835686  73.0682297  44.8314896  25.9428177  73.4250488
  30.4844303  58.6890526  59.9110641  29.8969936  59.2703400  59.4281044
  30.4560909  59.0137672  60.8110580  56.1360817  47.9312820  22.9023762
  55.3727150  48.4360580  22.6218376  56.8501282  48.2501755  22.3504028
  71.7663956  43.6869736  67.3986511  70.9822693  44.0592346  66.9951630
  72.0055389  44.3143311  68.0809021  81.8990631   0.7242339  83.7251663
  82.0015182   0.0270677  83.0773239  82.7817841   0.8643991  84.0678024
  20.5701103  64.4518356  34.5578041  20.1317596  65.1632385  35.0246887
  20.1502686  63.6562271  34.8848724  35.4652634  16.5313492  23.7658081
  36.0848808  16.1898117  24.4105225  34.8394241  15.8191137  23.6343784
  28.1283340  65.0328979  49.2379532  27.4251347  64.8799286  48.6068115
  28.6207085  65.7687836  48.8742523  69.2934036  44.9948349  59.6706009
  70.0628357  45.5035858  59.9262924  69.2715759  45.0571365  58.7156792
  84.1553192  64.2595291  38.8522987  84.0585327  64.4972305  39.7744484
  83.3879395  64.6400757  38.4250450  55.0094833  63.8985291  80.2749252
  55.5347710  63.6351929  81.0305405  55.1293640  63.1909103  79.6415710
   5.8193245  59.5471535   3.5910485   5.8710790  59.0225601   4.3900199
   5.3741746  58.9805679   2.9609268  77.1113281   9.0086975  52.1454468
  76.8975601   9.9367704  52.2414398  76.5291672   8.5638618  52.7614365
  14.3566771  25.6016788   9.5387688  14.8185043  25.9417496   8.7724152
  15.0503912  25.2696819  10.1086550  53.2790909  44.4881325  71.1147156
  53.4006424  44.4677429  72.0639496  52.9326324  45.3624191  70.9363327
  14.4282141  30.3558540  61.3752098  13.9426241  29.5834255  61.0857506
  15.1113291  30.0083332  61.9486313  21.6594543  32.1964836  11.7249517
  21.2693863  32.9968491  12.0763674  22.4977531  32.1186256  12.1803894
  33.8442612  50.5979309  22.7204819  33.2350159  50.2898560  23.3914089
  33.2854271  51.0033188  22.0574608   7.3015680  57.0226059  17.4498043
   7.8858128  57.3426781  18.1371498   7.1461978  56.1054382  17.6754169
  22.6598301   0.8062460  87.6648636  22.9086952   1.6138361  87.2153168
  23.1711578   0.8152055  88.4739990  41.5375099  66.6205292  57.3220024
  41.3977928  66.6516266  56.3755646  41.0580902  65.8435211  57.6094780
  38.6146431  37.7205315   9.1353703  38.0301323  37.9809341   8.4234924
  38.0324860  37.5686111   9.8798466  80.7463531  37.1222343   6.2647285
  80.3506851  36.3201447   6.6057935  81.4168549  36.8173637   5.6534081
  70.6267929  67.0558929   7.0951509  71.1301498  66.2457352   7.1757660
  71.0742874  67.5484467   6.4071307   1.5485536  48.8613739   0.7726845
   1.9148502  48.7990341   1.6548253   0.9169004  49.5786095   0.8257636
   1.3312858  21.0038624  56.0273094   1.8413510  21.2166157  56.8088455
   1.3276916  20.0471573  55.9967461  71.0185089   7.3070436  17.9357700
  70.8161163   6.5311203  18.4584694  70.2851791   7.3824987  17.3252220
  64.3198090  65.8545609  58.9178848  63.5272446  65.5767670  58.4586487
  65.0367966  65.5762405  58.3480606  85.0214386  11.1702547   4.1248088
  85.2954559  11.5615940   4.9542670  84.8960114  10.2431545   4.3272533
  26.0693207   5.2720604  60.0856514  25.7455044   4.3957806  60.2942390
  26.3639889   5.2085423  59.1771507   9.2083454  51.7245331  37.2491875
   8.9859953  51.0286179  37.8676491   8.3634262  52.0327988  36.9215927
  38.8221893  12.8907986  88.1556320  38.1493912  13.2228565  87.5612335
  38.6196327  13.2978048  88.9979782  31.2438965  19.4559689  15.3878765
  31.0745106  20.3906097  15.2696228  32.0954475  19.3127460  14.9748631
  28.6357059  62.8051491  68.9720612  28.1117077  62.0704536  69.2912521
  28.4701633  63.5081711  69.6002274  53.9604683  26.8143692   1.4707091
  54.8796539  26.7354660   1.7258666  53.5337524  27.2087517   2.2313719
   5.2893047  14.8634119  68.0564880   6.0114989  14.5973692  68.6255951
   5.4323502  15.7983274  67.9091644  53.0330124  60.1102867  54.9622498
  53.4949913  59.2751732  55.0356827  53.0058250  60.2870903  54.0219116
  16.6393929  44.9236107  21.7406425  16.4863644  45.2990608  20.8735485
  16.0168247  44.1990585  21.8011875  80.0685730  47.0261078   0.7033110
  80.4093857  46.5300980   1.4476573  80.8197632  47.1272316   0.1187465
  13.6695423  69.0119781  77.9595642  12.8369637  69.0018005  78.4317322
  13.4846621  69.5023499  77.1585770  80.4298630  63.7101898  23.8577232
  81.3492279  63.8646431  23.6406040  79.9780807  64.5009995  23.5631943
  33.4083023  65.1325836  72.7275925  33.5660591  64.2184677  72.4915009
  32.9126892  65.4883499  71.9900131  76.6305923  60.9218063   9.8590517
  76.9715500  61.7899704  10.0741739  76.9850006  60.7338982   8.9899626
  68.2293777  32.6273422  65.2656631  68.9986649  32.6645584  64.6972961
  67.8078842  31.7969742  65.0441589  83.7804413  48.6293259  32.0616722
  82.9143829  48.9843826  31.8613911  83.9966583  48.0842590  31.3051128
  40.8752136  67.8643570  69.0565567  41.0459976  67.8813171  69.9982452
  41.2211838  68.6970444  68.7353516  41.1932640  61.5980072  77.4566345
  41.2331772  61.3680878  78.3849487  40.2691765  61.5029411  77.2258530
  23.9902840  55.9310760  40.6163063  23.6556263  56.6656761  40.1019135
  24.7718372  55.6442566  40.1439285  63.7508202  16.5144501  37.8378639
  63.6435280  16.5333881  36.8868866  64.6921082  16.4021225  37.9705086
  66.6083450  47.8699799  88.2429962  65.8773193  48.3974266  87.9210815
  66.9355164  47.4151154  87.4669189  53.9241791  15.3182545  74.8037643
  53.7051964  14.9377871  75.6543655  53.5785255  14.6938086  74.1659393
  68.6976700  45.5325928  83.9725952  69.2742538  45.7903671  83.2533417
  68.0435486  44.9657860  83.5638428   9.3001089   3.7600405  84.3747253
   9.5243254   2.9438968  83.9276581   9.5340548   3.6040213  85.2896881
  39.3004990  54.8277397  40.1860161  39.9994240  55.3294334  40.6055946
  38.5876083  55.4567757  40.0749817  12.1686878  34.4731598  50.4413490
  12.5540934  35.1744766  49.9161339  11.2814379  34.3750725  50.0958099
  68.4729843  48.7553062  18.6129513  68.1178207  48.9422302  19.4819431
  68.7055664  47.8273048  18.6438046  37.7557640  35.4965439  21.8394413
  37.3880386  35.2429352  22.6860199  37.0398903  35.3640480  21.2179909
   2.1014729  63.9992447  84.6792374   2.9501181  63.6382141  84.9355392
   2.0648952  64.8535995  85.1093216  36.6101189  43.1490936  80.1874161
  36.7713585  43.4345131  79.2881012  35.9415016  42.4689064  80.1065903
  59.1760712  21.8404770  34.7298431  58.3452187  21.9044552  35.2008209
  59.6489754  21.1360607  35.1730003  82.6849289   8.3402281  81.8040314
  83.4424591   8.2346649  82.3795624  81.9563675   7.9601827  82.2949371
  59.6781807   6.6236320  61.4622459  59.6343384   7.4832110  61.0433998
  60.0894165   6.0589991  60.8077927  31.2661266   5.3993969  48.4864845
  31.6007710   4.8016996  47.8179016  31.8192825   6.1769414  48.4111557
  71.5474091  44.8078804   2.8309565  72.0386734  45.4367065   3.3596084
  71.2092438  44.1749420   3.4644096  45.8692131   6.7479076  20.5727291
  45.2250977   6.3909616  19.9612274  46.3761826   5.9875536  20.8574696
  66.4690704  40.3814278  31.4934750  65.6166000  39.9460869  31.4960289
  66.4641647  40.9129906  30.6974545  62.1329803  34.0744820  26.1756535
  62.5783081  33.6763535  25.4277172  62.0112343  34.9895592  25.9225922
   5.1608138  22.0370426  77.4238892   6.0052752  22.1962547  77.8455124
   5.3829479  21.6103077  76.5963669   7.8142481  54.4530869  35.9592438
   7.0859013  53.8655777  36.1606789   7.3953748  55.2591171  35.6574287
   0.1317560  31.6992130  32.4832458   0.4191433  32.0118446  31.6253986
   0.9052727  31.7842541  33.0406265  81.8587570  56.9872894  19.9531956
  81.7093582  57.7004776  19.3324890  82.0689697  57.4269066  20.7770748
  62.7293396  52.7307129  13.4937181  63.0540237  53.1336670  14.2989750
  63.3620567  52.9902878  12.8240032   0.3158155  29.9475880  75.2068863
   0.7992277  29.2573090  75.6608200   0.1901831  30.6272240  75.8691101
  17.5843582  18.0383129   1.9734540  17.8751526  18.7981720   2.4777198
  17.3892803  17.3731747   2.6335802  30.4535198  49.2553253  83.5825195
  31.1423988  48.7811089  84.0481415  30.0137882  48.5856552  83.0586853
  71.9776077  68.4127655  69.0314636  71.2860336  69.0725479  69.0828629
  71.7531509  67.8899918  68.2616882  49.7960663   5.8169951  36.8827820
  48.8724670   5.5677772  36.9157600  49.8776512   6.5198698  37.5274086
   6.5198073  40.3005714  43.3441429   6.8987284  40.9700775  43.9137154
   7.2156873  39.6513290  43.2418327   7.9303780  39.1334190  27.9783859
   8.0245180  39.7400246  27.2439480   7.8400435  38.2731743  27.5684490
  57.9642143  49.1158028  83.5539703  58.6800652  48.5821266  83.8989105
  57.7353020  49.7036476  84.2738800  25.0096664   0.9895734  27.3075657
  24.3179417   0.9856306  27.9691792  25.2002811   0.0640641  27.1548214
  86.4260101  14.1687813  84.8250198  85.8657379  14.2815104  84.0571594
  86.7363815  15.0515146  85.0267181  60.4512558  64.6000595  21.0503178
  60.0913773  64.4111099  20.1837044  59.8804283  64.1262665  21.6552181
  82.3160934  37.5956116  42.0457764  83.0385971  37.0485535  42.3539162
  82.5013809  37.7364082  41.1172943  16.3232098  66.7331085  36.8248177
  16.6552887  65.8405762  36.7281761  16.7863216  67.2349091  36.1540337
  48.8937836  40.1305695  14.1810617  47.9694519  39.9650345  14.3666344
  49.2264290  40.5485229  14.9753513  76.4956894  21.5214767  14.8456621
  76.5370483  21.6166344  13.8941021  75.6145935  21.1879463  15.0149403
   0.9277768  46.3613319  59.4335670   1.3769057  47.0962563  59.8511772
   0.6687458  46.6956291  58.5748596  14.2551937  35.7471085  12.7997122
  15.0569544  35.2631149  12.9976025  13.6064110  35.0690155  12.6112947
  43.7739296  60.6792603  63.4816589  44.6303902  60.9272499  63.1335106
  43.2106743  61.4286652  63.2883492  47.7759361   7.3722091   7.2257433
  47.2472076   6.5744066   7.2119222  47.7600594   7.6542506   8.1403103
   1.0310590  21.5631447  63.0171127   0.8086947  22.4889584  62.9188576
   0.2371200  21.0970211  62.7551575   0.0094793  39.0014458  88.7098923
   0.0841710  39.7826271  89.2579880   0.1192025  39.3248634  87.8156891
  30.7722206  56.7091255  53.3416901  30.8341942  57.3546486  54.0457420
  29.8414097  56.6854095  53.1197357  66.0083084  36.5260620  14.1662645
  66.3283768  35.9760361  13.4512424  66.4934616  36.2259865  14.9349060
  62.6415672  61.6499405  67.5703430  61.7205811  61.8587341  67.4140778
  63.0892258  61.9286575  66.7714996  61.6739273  48.4192848  12.1707201
  62.2490768  48.6467476  12.9012661  60.8334961  48.8193474  12.3939981
  16.4990311  17.0889912   9.9635849  16.0634995  16.2747250  10.2156057
  16.6479874  17.5469151  10.7908401  83.6795425  29.9362507  75.3816071
  84.1663055  30.6152306  75.8488083  83.3459702  29.3628902  76.0716858
  41.6688194  31.1136208  85.4152145  41.0627480  30.7670746  86.0700531
  42.0590057  30.3365593  85.0150146  41.8183250   4.6101351  39.3500175
  42.0748749   5.4255433  38.9192924  40.9490852   4.4169483  38.9988251
  50.3694572  58.1908684  19.7168179  51.1324768  58.4403038  20.2381744
  50.6839409  57.4816704  19.1561279  45.1484299   4.4120765  15.3415575
  45.3460960   3.6570323  15.8956947  45.3316422   4.1106234  14.4517307
  55.5247192  17.8365993  75.2926178  55.7160568  17.4343433  76.1398621
  55.1687965  17.1227608  74.7634811  35.2432175  60.6900368  25.9857883
  34.4375114  61.2068100  25.9821148  35.2664223  60.2887497  26.8545017
   7.4285407   4.9951839  78.1954041   6.7843881   5.6001616  78.5632324
   8.2730656   5.3368511  78.4891281  59.3262520  37.5080032  64.4141159
  58.7965622  38.0131569  65.0309448  60.2273293  37.7721748  64.5998764
  17.5153847  35.0965843   9.9709911  17.2633171  35.1174736  10.8941689
  18.4701042  35.0291405   9.9848585  38.4832993  14.4973249  10.5473318
  38.7595024  15.0529966   9.8185158  38.9405060  14.8554497  11.3082132
  74.1485596  62.3233757  54.0741310  74.7976608  62.8517952  53.6097183
  73.8040466  62.9068794  54.7501984  34.7101059  52.5295143  80.2156525
  33.8328323  52.5185432  80.5984116  34.7366409  51.7539444  79.6552734
  38.1928482  44.9704285  20.3857307  38.9919052  45.4163704  20.6665783
  38.2939568  44.0738525  20.7053566  36.5551949  19.4074707  75.1603699
  36.4927063  19.5575542  74.2170792  37.4846344  19.5198612  75.3597260
  29.2102890  68.0083466  51.9425774  28.8177242  68.1919632  51.0891075
  29.2495022  68.8606262  52.3765259  20.7052498  40.6253471  65.5329895
  19.9502335  41.1662979  65.7644043  21.3579330  41.2488098  65.2143478
  61.5564766  71.3567505  57.8864670  62.4523544  71.1258621  58.1320763
  61.2934113  72.0141373  58.5305710  47.7669907  46.8787117  89.2886810
  47.2845345  47.0281677  88.4755859  47.9531860  47.7566452  89.6215439
  79.5655136  44.7045441  37.7243156  79.5746765  44.1998291  38.5375862
  80.2583160  45.3551216  37.8383636  86.3242645  44.4262123   1.5174148
  86.8866730  44.7666817   0.8217091  85.5973282  45.0472565   1.5632249
  11.6078796  48.2957077   6.5701499  11.5836039  49.1112137   6.0695558
  12.0444813  47.6716652   5.9903402   2.8086195  48.3535385  60.2524147
   3.3421564  49.0611343  59.8906441   2.0861726  48.8000183  60.6939545
   6.0387535  15.5549726  16.4984379   6.0468640  14.9278383  17.2215347
   5.1101975  15.6925602  16.3111267  41.9449844  62.8008385  62.2916107
  41.4622307  62.9699364  61.4825478  42.1591988  63.6706352  62.6289520
  42.1894493  32.8435249  21.3876228  42.6069031  33.2220383  20.6138725
  41.2746162  33.1180191  21.3246326  20.2967987  67.0613251  10.1567945
  19.5512505  66.4679184  10.2476692  20.7676525  66.7384338   9.3885002
  83.5700760  54.8621407  32.6197052  82.9276886  55.5516052  32.4517517
  83.7814789  54.9529266  33.5488434  48.4013214  13.1338959  54.8355484
  47.7936287  12.4491997  55.1150742  49.2447624  12.6881437  54.7571449
  38.7127380  11.1383181  70.3414154  39.3151741  10.8339052  69.6627121
  38.8231544  12.0890818  70.3507767   4.6902370  36.0391197  56.1085281
   4.7760863  35.3486633  56.7658958   5.5487976  36.0765648  55.6869812
  55.7326965  63.2318230  47.7334328  56.0599022  63.0678291  48.6178970
  56.4959717  63.1088638  47.1690559  70.9679489  22.4620266  16.4670963
  71.1513214  22.9722614  15.6782579  71.8290253  22.2973270  16.8513584
  40.6644096  62.0060997  53.3592834  40.5276947  62.8741417  53.7388229
  39.9832344  61.9266815  52.6915092   3.9022608  60.2163544  59.2059746
   3.2905896  60.9150352  59.4382172   4.4430156  60.1018715  59.9874535
  43.5849037  66.5898972  88.0479202  43.5106163  67.4120331  88.5324860
  44.4860039  66.5827179  87.7251205   0.7263126  42.0342216  79.4911575
  -0.1239014  42.4645576  79.4007111   1.1916751  42.5579681  80.1433563
  47.7907257  12.7673111  25.4390736  47.7048683  11.8845930  25.7991695
  46.8925285  13.0351562  25.2448311  78.2792740  29.8069592  78.2939301
  78.3169785  28.9175549  78.6457443  77.8862305  29.7051830  77.4271011
   5.7880344   4.8272357  69.7605820   6.7404122   4.8119211  69.6658554
   5.5862951   5.7300186  70.0065842  86.8713074  16.5519695  69.1695251
  86.6252518  15.7433290  69.6187363  86.1001282  17.1135750  69.2477188
   0.7822220  59.5888481  64.8918533   0.0656244  60.2220039  64.8490448
   1.0182105  59.4320221  63.9775505  11.9199390  64.0129318   6.2092381
  11.1751871  63.4478455   6.0036902  11.7339945  64.8312149   5.7487206
  75.7790527  30.9564991  32.9506607  75.4799194  31.8334503  32.7104378
  75.0778885  30.6064548  33.5002747  17.3552418  69.6877289  52.4687500
  17.6090164  69.4227829  53.3528519  17.9356461  69.1893234  51.8934669
  55.5068359  58.5838928  66.3133469  55.7146759  58.5437508  67.2468491
  55.0262489  59.4052353  66.2100754  84.9784393  55.1663818  69.0397949
  84.1538010  55.4109573  69.4597855  85.5846863  55.8686981  69.2752838
  42.9424629  65.5245972  47.1461334  43.2906265  66.0548096  46.4292717
  43.6458931  64.9090347  47.3522949  44.4875603  65.4202957  38.2975693
  45.1346130  64.7457352  38.5037689  44.5533142  65.5333786  37.3493500
  48.7509270  43.4301605   2.1958828  49.1426392  44.2405624   1.8702439
  49.0856476  42.7504272   1.6109378   5.3994794  58.0515289  15.4675684
   5.1300154  57.1480522  15.3021984   6.1791162  57.9721527  16.0172024
  25.5752716  24.5937386  13.0629778  24.9216957  24.6689587  12.3676996
  25.8817616  23.6886826  13.0066967  85.0528870  63.4546509  74.2622299
  84.9045258  64.1689224  73.6425247  85.9383545  63.1480637  74.0668259
  18.9126472  59.4737244   1.1737505  18.5506191  60.1668587   0.6217242
  18.6952629  58.6629906   0.7136528  74.0819321  52.8265457  88.1588974
  73.2114182  53.1752510  88.3508453  74.6604462  53.2729530  88.7771835
  68.3216171  71.0945206  52.2734680  67.4954147  71.5628891  52.1540642
  68.5097351  71.1752548  53.2085228  29.8232040  58.8999557  89.1881866
  29.9605274  58.2693863  88.4812546  30.0329266  59.7479515  88.7968369
  13.5296516   1.5257076  31.7350674  14.2083359   1.6233795  32.4029579
  13.1701536   0.6513401  31.8849812  73.6446381  67.0925064  73.1274033
  73.3014984  67.6956329  72.4680634  73.3325958  66.2312622  72.8496933
  81.7176208   2.9132833  40.1594429  81.1235733   2.1697073  40.0573082
  82.5446701   2.5221951  40.4409981  84.4627838  60.8392181  19.5255928
  84.1035080  60.4402351  18.7331505  83.7659760  60.7499619  20.1757603
  11.4835272  32.4387703  74.9944687  12.2333164  32.9617386  75.2782898
  10.7611303  32.7358284  75.5477600   2.0107687  44.8541527  56.7442627
   1.6823897  44.2466087  57.4070511   2.6868851  45.3590317  57.1961403
  50.7860527  59.9515915  63.0741539  51.5503960  59.7487183  62.5348473
  50.3014946  59.1275215  63.1225014  31.9714680  69.5522842  69.0882950
  31.3653393  68.9898911  69.5705338  31.5383568  69.7068863  68.2488022
  47.6494446   9.9581442  14.7859688  46.9147415  10.5581980  14.6579981
  47.4498749   9.5066185  15.6060467  35.0868759   6.2412944  48.5208244
  35.8905830   6.6745443  48.2334518  34.8892784   6.6406240  49.3680115
  57.2360611  62.6800613  17.5358181  57.1059952  63.3032532  16.8210144
  56.4678001  62.1102448  17.4995594  55.8236008  64.5985336  45.3329659
  55.5501556  64.5649414  46.2496643  55.2550850  63.9684715  44.8901978
  23.7964325  57.4437637  61.0981712  23.1125450  58.0515709  60.8169212
  24.4588184  58.0009651  61.5068283   7.3246255  66.1029739  44.5098801
   6.4034271  65.8652878  44.6153679   7.7731013  65.6448517  45.2206688
  64.3975601  24.5908298  82.3117447  63.8683128  25.3606529  82.1031723
  65.2541656  24.7778912  81.9277420  46.0464325  35.9476204  22.7948666
  45.6632500  35.5778732  23.5902843  45.3652000  35.8442841  22.1304302
   8.1013937  53.6913376  24.1817169   8.5482779  54.4828758  23.8817272
   7.6044302  53.3934975  23.4197788  23.6503067  67.9188156  58.2746964
  22.9099731  68.3206482  58.7293053  23.2482777  67.3603439  57.6093254
  45.0532608  35.5109253  80.5070343  44.2245598  35.0380020  80.4306946
  45.6960220  34.8347931  80.7213516  85.3903885  18.5491047  33.8734360
  85.6474838  18.9953346  34.6802902  84.4942322  18.2553654  34.0373001
  86.3411179   4.3883853   8.2245779  85.9882355   5.0820422   7.6673150
  85.5862656   4.0731878   8.7216492   0.5776362  27.2556973  22.8148422
   0.7937552  27.5880852  23.6860733   1.3832432  26.8370590  22.5115719
  66.0417252  51.7628059  87.7195282  66.7481613  51.2393303  87.3411713
  66.0467453  52.5743599  87.2119904  12.6891184   3.5725527  68.7000656
  12.3291159   2.9860826  68.0347214  13.5520144   3.2088006  68.8983765
  78.6073685  70.0897217  87.5037537  79.2973022  70.6722565  87.1861496
  78.9051743  69.8165283  88.3714600  59.7238731  63.6198654  81.8019562
  59.8334351  63.4387627  80.8684540  59.4601021  62.7807007  82.1793900
   5.7384257  17.8749142  44.2244720   4.9465585  18.3593044  44.4580193
   5.8486047  17.2403316  44.9325676  78.5299988  22.3383503  57.3787918
  78.3957520  21.3906136  57.3800888  79.3297501  22.4676647  57.8886108
  18.5167370  70.9329987   6.6817641  18.8582916  70.0599899   6.8752093
  17.6125431  70.7809525   6.4069076  85.7812271  22.7200565  65.6153870
  86.2230988  21.8763428  65.7109375  86.4610443  23.3685570  65.7984848
   2.3288457  14.0579491  51.4586983   2.3306115  13.1551952  51.7769203
   1.4094995  14.3222399  51.4931183  46.3308411  58.0934792  84.1920090
  46.3179817  57.1446381  84.3175812  47.2570801  58.3078308  84.0808029
  75.2966080  62.1932259  57.5971832  75.7149429  62.9667397  57.2191620
  74.5385971  62.5375977  58.0694695  77.8078003  52.4799232  20.4711056
  78.3587036  52.9446869  19.8412457  78.2822800  52.5471535  21.2997055
  81.0703506  53.3616867  75.6373291  81.2738800  53.8223305  76.4513397
  81.4518890  53.9087181  74.9507294  56.5190964  44.9764977  46.4867363
  56.7751236  45.7798691  46.9398079  57.2949333  44.4177780  46.5330048
  24.7428131  69.9935608  63.5499229  24.5810261  69.2569199  64.1393433
  25.5013027  69.7238388  63.0320663  24.5946693  64.8910370  58.8849716
  23.6931019  64.5708466  58.9148293  24.8144035  64.9014664  57.9533920
  37.3776588  15.7103205  79.7710342  37.4954033  16.5740986  80.1663284
  37.9351006  15.7249537  78.9930420  37.1513214  50.1689949  77.6462173
  38.0114937  49.8704720  77.9415436  37.1129570  49.9143677  76.7242966
  75.3615265  33.5968742  60.1810150  76.0624008  33.4700775  60.8204918
  75.6354446  33.0840607  59.4206047  12.3333530  40.7280807  22.5418739
  11.9353352  41.5533829  22.2649498  12.5120745  40.8493767  23.4743843
  58.0145912  60.5369682  63.0247421  58.7851601  60.4066887  63.5774422
  58.3164062  60.3297768  62.1403160  36.0557709  34.7733879  20.1035519
  35.3709030  34.1162338  20.2274055  36.3546867  34.6411743  19.2038860
  46.3288269  61.2190437  40.8824196  45.6183090  60.5791512  40.8384094
  46.1131020  61.7648506  41.6385841  56.1730766  44.8045006  28.1828575
  55.3344421  44.9709053  27.7524700  56.4192467  45.6482010  28.5620708
  66.6559143  48.6379089  73.9383392  66.1998520  47.8515434  74.2381210
  66.9333801  49.0753822  74.7432404  16.8166618  37.4832535  84.0941162
  16.6410046  38.3588753  84.4385910  17.1137409  37.6340485  83.1967697
   2.8827648  62.2990189  66.5898590   2.2304871  62.8382721  66.1426773
   3.5726235  62.1687584  65.9392014  46.5149612  55.5241280  46.9304008
  46.9337730  55.2886810  47.7582855  47.0285378  55.0678024  46.2638893
  20.8010788  29.3572063  17.9866562  19.8799114  29.1699371  18.1672478
  21.2232628  29.3328457  18.8453751  24.0376511   2.8982897   7.4025493
  24.3171959   2.9736638   8.3149118  24.8167076   2.5928137   6.9378037
  23.7609444  11.3986673  72.2140579  23.6144962  11.7357340  73.0979004
  23.7765121  12.1788502  71.6597061  46.2560272  -0.0202429  43.7409706
  45.8399734   0.0718846  42.8838539  45.5606995   0.1802285  44.3675156
  32.0589142  16.2262363  13.4160976  32.0935211  16.3882599  12.4733458
  32.2171593  17.0830784  13.8123474  55.9196625  57.5402145  25.7391853
  56.3121109  58.3808632  25.9748192  56.2002220  56.9423141  26.4320316
  44.5874100  28.5919037  82.0626526  45.0391121  29.0069408  81.3278503
  44.5033112  29.2868633  82.7154846  40.4296036  49.0416832  62.0179825
  41.2898903  49.4341927  62.1665497  39.8237610  49.6017761  62.5032501
  62.6803856   1.3793489  22.7578716  63.3861847   1.5900978  23.3691540
  62.2258110   0.6404772  23.1624222  81.9010620  26.0013390  51.4595032
  82.3020401  25.3625088  52.0488586  82.2386169  26.8462944  51.7567253
  49.7715721  66.6188812  13.8516769  49.7234840  67.2366638  13.1221113
  50.7091141  66.5030899  14.0060682  25.5092487  56.1242371  10.5538883
  26.3187351  56.5301208  10.2436934  24.8270054  56.4895287   9.9905586
  40.8161926  32.3213806  80.1320953  40.5898132  31.4209957  80.3650970
  40.9797440  32.2909470  79.1894608  51.8631401  43.5513725  18.8915710
  51.4216728  43.3770180  19.7227955  51.2051468  43.9997978  18.3603554
  17.9622898  15.5562725  82.5253601  18.5675049  16.2904701  82.4209518
  17.3054256  15.6882601  81.8417358  23.0648308  12.7508917  29.5153351
  22.9818783  13.6227942  29.9015198  23.8193874  12.8188562  28.9303093
   9.1270361   9.0675583  81.0089493   8.4983368   9.1899986  81.7202759
   9.8811846   8.6500225  81.4250717  71.1759872  17.5368099   1.2127733
  71.6173782  16.6929607   1.3093346  70.9805069  17.8088512   2.1094415
  56.1878967  13.9510660  40.1829643  56.7524834  14.7209969  40.2513809
  55.3320847  14.3026609  39.9375992  63.9171104   3.1769366  74.5898743
  64.8560257   3.3580775  74.6329346  63.5036812   3.9773433  74.9133835
  82.8654556  11.0833025  17.5548191  82.1000977  11.6418743  17.4189644
  82.7626953  10.3769445  16.9170647  33.7915840  55.0082550  72.8405380
  33.8183098  54.8087578  73.7763367  33.0307503  54.5273857  72.5147629
  44.7754860  65.0805511  65.5303268  44.9327316  65.9769821  65.2338181
  45.2434311  64.5339279  64.8990936  16.6428986  49.6635933   4.5472240
  17.1714916  50.4574814   4.4661980  17.0537643  49.1739655   5.2597442
   3.2725277  -0.0281373  69.4991150   4.0427485   0.4785835  69.7564545
   2.8902285  -0.3198097  70.3267593  50.4548836  37.6826363  12.6009655
  50.3468094  38.3555717  11.9288731  49.5908890  37.6078453  13.0061264
  14.0046215   1.0328590  62.1052322  13.5534658   1.7840396  61.7199821
  14.3301201   0.5376393  61.3535385  50.2021408  39.5560455   9.6676512
  50.0921860  40.0606308   8.8617125  50.9284325  39.9840698  10.1210041
   9.7610006  26.2564926  60.3091469  10.4773645  26.4629364  60.9095116
  10.1673145  26.2564735  59.4424629  48.7531395  48.7650604  68.9847565
  48.1469383  49.4063148  69.3556290  49.5150833  49.2806625  68.7205048
  23.6777954  47.3370628   9.4188156  23.6391125  48.2799416   9.5791807
  23.6200619  47.2534256   8.4670258   7.0983138  23.8134880  12.3166075
   6.8956718  24.4840927  12.9688778   7.6104774  23.1613255  12.7947350
  42.0446815  65.5295105  62.8162308  41.5474930  65.2100067  63.5691948
  41.9039993  66.4763031  62.8206100  70.1523972  20.4322491  37.0371513
  69.5667953  19.7069092  36.8199463  71.0291901  20.0493870  37.0072861
  50.6655121  34.7868195  12.0207748  49.7412338  34.7543793  11.7740135
  50.8097343  35.6938629  12.2904119  11.8587637   6.1354861  40.1973763
  12.2659225   5.7055583  40.9494514  11.3445177   6.8474832  40.5779610
  21.7857399  56.7390213  18.4345589  22.3219471  57.3673096  18.9182606
  22.3374424  56.4682541  17.7007027  85.7196198  63.8451920  10.3021040
  85.5357513  63.9614563  11.2342558  86.5357513  64.3239670  10.1574249
  71.0236588  17.2798939   7.3158035  71.2260666  18.2102070   7.2169223
  71.7158051  16.9433594   7.8849311  26.8771305  11.4499741  34.8264122
  25.9975090  11.0732012  34.8496666  27.1949024  11.3720942  35.7259636
  24.2892189  60.4738159  26.0270901  24.3781281  61.4188881  26.1502590
  25.0309334  60.0994987  26.5024624   0.4301181  61.2371063  86.7526550
   1.2299767  61.7491226  86.8722229  -0.1765568  61.8380661  86.3201904
  12.8476772  15.9559021   3.2917626  13.4717903  16.3055611   3.9277303
  13.3209362  15.9686251   2.4598398  45.9907951  41.8786697  25.1808624
  46.1874504  41.2272415  25.8540668  46.8453064  42.2300301  24.9306889
  75.8755493  35.2940369   0.9961893  75.6083679  35.9004669   0.3054746
  75.1734543  35.3453712   1.6447675  77.7601700   2.8038163  44.6916466
  77.8861618   1.9277816  45.0562325  76.8364868   2.8287017  44.4418068
  48.6732483  11.2228756  52.0640411  49.0917816  10.4097757  51.7813187
  49.0456352  11.3958693  52.9286995  51.4512291  11.9922581   8.6845760
  50.5453377  11.8388052   8.9529867  51.4221611  12.8207016   8.2059641
  31.6269188  28.9448452  20.9016762  31.8763847  29.8239956  20.6169071
  32.0881615  28.8219357  21.7313633  51.6852913  39.3881264  20.3238831
  52.1681366  39.8621597  19.6468449  50.7657394  39.4911804  20.0788593
  42.2162018  17.4711113  24.3051224  41.2835732  17.3571491  24.1222382
  42.6567802  17.1167507  23.5327549  79.4475098  36.3846130  31.2774601
  79.8714371  35.9550781  30.5344791  79.5651321  37.3200912  31.1123142
  49.3711586  64.0904465  39.3971672  49.6541405  64.0571976  40.3109779
  49.0625267  64.9881897  39.2745247  54.5846519  67.6197433  75.6013489
  54.0762558  67.1037750  74.9756241  55.2211723  67.0015335  75.9603500
   9.7036762  13.9756403  14.8845043  10.1708488  13.2824707  14.4181376
  10.2492809  14.1596422  15.6491556  48.3888550  56.1138000  16.4999962
  49.1513290  56.6308517  16.2401428  48.2508469  55.5079765  15.7718725
  32.3565788  57.3092461  19.7976532  32.8745689  56.5044174  19.7847042
  32.3601151  57.5816154  20.7152767  52.6484261  53.1107674  57.8802834
  51.7465515  53.4049950  58.0078812  52.9913254  53.6810341  57.1922073
  19.5874405  62.2231255  38.1061783  19.7244625  63.1571045  38.2647514
  18.8195324  62.0009308  38.6326561  75.9578247  41.6862068  72.8854218
  75.0484390  41.6050797  72.5978928  76.2810440  40.7857018  72.9145737
  73.6827621  45.9252052   8.2735434  73.8845673  46.8449402   8.1015186
  73.7387085  45.5032997   7.4161644  84.8682861  67.8896484  65.2911377
  85.5121307  68.5949020  65.3567886  85.2571411  67.1641006  65.7796021
  71.0374527  53.2200584  85.4525299  71.0486832  52.6803513  86.2429886
  70.2611923  52.9284325  84.9744034  21.8943768  42.1437149  16.4557037
  21.0657902  41.7434349  16.1921616  21.6431732  42.9840202  16.8391247
  32.8874817  69.5026703  77.7560120  33.3210411  70.3366165  77.5749283
  32.6904526  69.5334778  78.6922073  21.7687511  22.6703224   7.9385724
  22.7206917  22.7373848   8.0130358  21.5771523  21.7532978   8.1350088
  31.6804714  47.6283875  59.9257507  31.4565201  46.7566261  59.6000137
  31.0196285  47.8116188  60.5935402   5.6934876  57.1357651   7.0956297
   6.4052200  57.5250931   6.5876026   4.8965120  57.4944954   6.7052774
  55.5298500  13.2633562  56.4848251  56.4749184  13.1339045  56.4053116
  55.4377327  13.9678345  57.1262741   1.6183394  43.4720039  70.6764755
   1.9521399  42.8622322  71.3344955   2.2094924  43.3671074  69.9309845
  43.7547073  14.2674751  57.6091728  44.6508675  14.1378622  57.2988052
  43.3872948  14.9209900  57.0140572  44.1551399  32.0317078  62.6539268
  44.0539627  32.8717308  62.2063179  43.5803070  32.0959435  63.4166031
  65.5541382   0.6284136  51.3106995  64.6920929   0.8671006  50.9699020
  66.1330490   1.3286830  51.0095139  66.1344452   1.9902605  19.2073364
  66.3581467   2.7040675  18.6101189  66.6144562   1.2348005  18.8680763
  33.1143265   5.2294059  21.6664734  32.4574242   4.7596269  21.1526432
  32.6236954   5.9254909  22.1034851  59.0815506  14.7469578   0.5998951
  59.0398636  15.6868057   0.4233156  59.4924927  14.6832333   1.4620428
  46.3698502  61.8271675  43.7078667  47.2288933  61.8289757  44.1300888
  46.1487885  60.9001312  43.6186180  68.8249435  28.0054073  23.3300476
  69.4436646  27.4389858  22.8689747  68.9549484  27.7987690  24.2555904
  37.9870338   8.6730022  78.9120789  37.1045036   8.3030167  78.8901062
  37.9002686   9.5249987  78.4845200  10.8063669  27.4210758   2.8138030
  11.7150879  27.4219856   2.5130403  10.8121481  26.8635426   3.5918479
  48.6946564  15.8762999  19.6345901  48.6202850  14.9973230  20.0062084
  49.0140915  15.7334223  18.7436466  81.4074326  12.8208542   7.4940233
  80.7234726  13.4024057   7.8260260  81.4619446  13.0238619   6.5601883
  54.7716064  27.8772964  83.8759766  55.0843277  27.1075783  83.4006119
  55.3689461  27.9586582  84.6194763  18.7103329  69.3783188  61.0041580
  19.6651764  69.3455353  60.9455872  18.4118176  68.6499023  60.4596100
  16.0383587   3.9946005   0.6461133  15.2286396   4.2293711   0.1928266
  16.6469822   3.7628026  -0.0553701  81.5889435  56.6004639  54.9528999
  82.3616943  57.1653442  54.9545822  81.5548477  56.2386131  55.8384132
   0.8955941  28.2990322  14.0455875   1.7097088  28.3074741  13.5422211
   0.4566313  27.4917526  13.7775517  84.5274506  34.1849289  50.1924057
  85.2540512  34.7942963  50.3226013  84.4921951  33.6774864  51.0032616
  13.7162066  24.9609795  17.3188000  13.1278620  25.0676098  18.0662708
  13.1821203  24.5267582  16.6536427  69.8768311  49.7212372  38.9083710
  69.2921600  49.1291771  39.3815041  70.3090591  49.1642456  38.2609367
  54.2191696  56.7242317  59.1715508  53.9743614  56.3569717  60.0209160
  54.5409355  57.6026573  59.3741951  14.3829241   6.5820899  45.5965424
  13.4927597   6.5920701  45.9483109  14.6060505   5.6532435  45.5357857
  65.5399246  33.0416527  19.2833023  64.9229279  33.2337418  18.5771484
  65.2930984  32.1677284  19.5858974  24.1000729  31.1681080   9.6764917
  23.2234974  30.9031830   9.9551716  24.4827023  30.3742981   9.3027391
   2.8755965  15.0690174   0.3452158   1.9256563  14.9530716   0.3652607
   3.0043612  16.0108166   0.4577609  45.5680275   9.7125721  71.6717300
  45.6490593  10.6603327  71.7785797  45.7695389   9.3559141  72.5368423
  64.9740906   4.1896114  87.0056076  65.8239594   4.3560705  87.4133377
  64.9026566   3.2353778  86.9817963  34.2476349  51.3916168  37.8525848
  35.1792221  51.1975479  37.9561119  33.8067932  50.7598267  38.4206810
  26.4891682  16.7078705  76.4331665  26.5599098  15.8025846  76.7359619
  26.1753063  16.6351128  75.5318146  49.8158607  64.1678696  50.5588188
  49.1178055  64.7052231  50.9332466  50.5536613  64.7694168  50.4587173
  85.9043655  69.1807175  57.4278488  86.5304260  69.8438339  57.7186279
  85.0639038  69.6382675  57.4055252  39.3563576  38.4815292  17.3676586
  40.2299728  38.8663025  17.4382114  39.1100922  38.6127243  16.4520321
  82.2035751  24.7594872  29.6393166  81.6862564  24.4272289  28.9056816
  83.0171738  24.2563171  29.6059990  80.1508789  46.7257462  26.7080574
  80.7353592  46.0390739  27.0291367  79.3480759  46.2635612  26.4669800
  72.6266708  38.6602554  89.3614502  72.5946045  38.8338966  88.4206772
  73.4164505  38.1327934  89.4808655  43.3288040  70.6991196  33.1374054
  42.6860809  69.9898682  33.1471596  43.0814972  71.2566223  33.8751488
  76.4600677  28.5122490   2.3461115  75.6167908  28.9544697   2.2483072
  76.9336548  29.0392551   2.9897010  47.4460411  43.7435379  15.6284866
  46.6690826  44.2759438  15.7990999  47.2542992  42.9010849  16.0404778
  75.4534683   6.0764279  61.0452347  75.4273376   6.5712442  60.2262688
  74.6506653   6.3271365  61.5022659  37.5739288  65.3648453  71.0610580
  38.1196442  64.7100296  70.6255798  37.5432091  66.0980606  70.4464951
  46.1093407  67.3162689  87.5407867  46.7255859  67.2481766  88.2700577
  46.0282478  68.2568436  87.3827591  65.6450806  66.4943848  25.6487465
  65.6544189  67.2715683  26.2074337  65.3151321  66.8085251  24.8069115
  67.9674530   7.3482065   9.0540380  68.8600540   7.5345998   8.7629204
  67.6359024   6.7136660   8.4186945   7.3034778  43.4184303  72.0204773
   7.7890444  43.4583321  72.8444061   6.6084456  44.0689621  72.1203232
  84.0563889   7.2643161  14.5758305  84.9979782   7.3420744  14.7294579
  83.6568222   7.7991047  15.2618160  57.2274284  62.8426933  24.7508602
  58.1197662  62.8026695  24.4068146  57.3128624  63.3041382  25.5851288
  61.9023132  41.9212952   2.3323040  61.1168251  41.8971634   1.7858055
  61.9717712  42.8341827   2.6116683  79.7695160  37.2280388  59.7861862
  79.4424973  36.3425674  59.9450378  80.6899948  37.1053581  59.5540161
  59.5313034  25.4875145  43.8413620  59.1995430  26.3852406  43.8254089
  60.1603737  25.4518051  43.1207886  57.2298698   7.5670781  13.1903334
  57.6420517   7.7156906  14.0413637  56.2918739   7.5425487  13.3795271
  62.2291527  17.0938492  59.2616196  62.5958786  16.5924568  59.9898720
  62.1756401  17.9908714  59.5913467  67.8573685  65.8315353  29.9093246
  68.5744400  65.3364716  29.5131588  68.2804642  66.5983734  30.2955647
  32.9198685  26.5284443  25.1439991  33.2211952  25.8478050  24.5421982
  32.0176468  26.2838211  25.3498764   1.0518204  56.0035591  79.4910507
   0.1288755  56.2309227  79.3783112   1.1365403  55.1393890  79.0882263
  23.4007797  56.8674660  22.2284355  24.0760708  57.0359306  22.8855743
  22.7720833  57.5801125  22.3429279   2.4763215  69.2533264   8.3483477
   3.1465158  69.9325333   8.4241753   2.0335774  69.2579117   9.1969872
  14.5965328  39.6503906  16.1276093  15.1869659  38.9589615  15.8283663
  13.7237797  39.3424416  15.8832712  79.3073349  46.7028313  57.3221359
  79.0952377  46.8045082  56.3942871  79.2892609  45.7572517  57.4697380
  66.8803329  49.6273079   4.6028442  66.1380920  49.7605171   5.1923904
  67.1368027  50.5104523   4.3373098  73.6619339  34.4516068  63.0892868
  73.6723404  33.6902695  63.6693649  73.1843719  34.1557236  62.3142929
  74.1615982  66.8931961  65.8340759  74.4993591  66.2138672  65.2504196
  74.1731491  67.6908875  65.3051224  14.5075912  59.1278648   9.2757730
  14.9507198  58.3941917   9.7019081  14.5206680  58.9072952   8.3444242
  85.4557724  25.2664318  57.8643761  86.0260849  26.0256634  57.7437782
  85.3830490  24.8804398  56.9914742  72.9060440  58.5416565  68.2373047
  73.3886871  57.7783623  68.5545883  73.0840073  59.2237206  68.8848801
  46.7703705  20.5646324  11.1658564  46.8533936  19.8496895  11.7968836
  47.1176605  21.3299751  11.6239738  56.1093788  48.3631706  48.0535660
  55.7901993  49.2652092  48.0796165  55.3793488  47.8611603  47.6912460
  70.7933884  31.5635281  45.4148865  70.6964798  31.2922974  46.3277245
  70.9085388  32.5127983  45.4580154  51.1235466  24.0251808  57.2771225
  51.3067741  24.4426765  58.1187630  51.8414307  24.3054790  56.7094002
  69.5038757   0.8239948   3.4262745  68.6110306   1.1518346   3.5338898
  69.8618851   1.3374113   2.7020736  55.4029579  63.2577171  84.6784363
  56.1485023  62.8325691  85.1022797  54.7897339  63.4331436  85.3921661
  74.1824799  20.4992275  80.9254990  74.5862350  19.6332493  80.9829178
  74.1992798  20.8313160  81.8230896   3.6139200  64.7455368  60.5458641
   2.9042902  64.1052551  60.4939461   3.3277023  65.3665009  61.2157288
  41.4685631   4.4865179  17.5868416  41.5502625   5.3983622  17.3073845
  40.7302361   4.4879460  18.1960258  10.3201447  25.9615040  10.8237925
  10.8882179  25.1918869  10.7889385  10.5892229  26.4919720  10.0738373
   7.2868800   6.4722300  39.5887451   6.5127420   6.1910181  39.1010323
   7.5842028   5.6832128  40.0418243  43.0327911  61.0389023  38.2756348
  43.3477020  60.9942665  39.1784477  42.2788887  61.6274681  38.3137589
  77.7611542  68.2903900  71.7753983  77.7450256  68.0777893  70.8422394
  78.3391953  69.0507812  71.8378525   5.4904261  42.3456726  56.9554596
   4.6690679  42.5220146  57.4142647   5.5337620  43.0175819  56.2750969
  50.9924278  48.1148224  59.3356323  51.1275482  48.9438324  59.7946701
  50.0831261  48.1508369  59.0388107   8.7790356  20.5145988  52.1422577
   7.8260236  20.5562878  52.2213860   9.1039667  20.8888206  52.9611626
  38.8225517  35.9596214  68.3362579  38.5862656  35.3621178  69.0457535
  39.7246971  36.2151642  68.5287781  47.0357742  49.1616554  46.8823051
  46.2758980  49.4717369  46.3896942  47.7653732  49.2323112  46.2667389
   2.2740178  53.6624680  16.4562664   2.2382858  54.1823769  17.2591686
   3.1343508  53.2435646  16.4802723  65.0972214  30.7332821   8.8298426
  64.6485214  29.9339619   9.1054945  64.4543762  31.4287968   8.9685268
  32.5370293  30.5735207   8.7923031  32.7590332  29.8824730   9.4163218
  33.3537369  31.0576496   8.6704845  73.7877655  16.5176163  79.7613373
  74.4899902  17.0069504  80.1899033  72.9871826  16.9787426  80.0116730
  32.5513763  65.3904190  63.4414482  33.3610573  64.8882065  63.5332680
  32.4079742  65.7739182  64.3066635  42.0985603  70.0582809  82.8796387
  42.2825317  70.4823151  83.7178421  42.6608620  69.2836685  82.8745804
  20.1458569  30.7784176  77.2050781  21.0484943  30.8134060  77.5217056
  19.7105236  31.5109501  77.6410980  64.8048553  41.4042816  48.1611595
  64.9121933  41.0045891  49.0242691  65.6982040  41.5151367  47.8357773
  24.1886063  53.4302177  85.9208755  24.5793209  54.1654663  86.3930893
  23.3067036  53.7292824  85.6994247   4.6842556   8.1723366  50.8304558
   4.1044188   8.2371807  50.0716324   5.2037034   7.3848510  50.6683655
  62.9656944  30.0168285  54.3498116  63.9039574  29.9795208  54.5355492
  62.9092178  29.9867954  53.3947487  14.1174698   6.3193502  59.5437355
  14.4229021   5.4312296  59.3588409  14.8674231   6.8779526  59.3393669
  56.9458542  45.0169792  15.7247801  57.3926926  45.8427048  15.9111824
  57.4954758  44.5902977  15.0674429  80.2848892  17.7431755  11.4326296
  79.6591339  18.4509850  11.2787857  79.8699875  17.1977119  12.1008768
  59.8851509  57.0460625  51.9736214  59.8260269  56.3232307  51.3489227
  60.1568527  57.7970428  51.4459496   6.4413996  42.8824501  59.4102516
   5.8352656  42.3002357  59.8683548   6.3442531  42.6506386  58.4866409
  53.1074677  55.6824799  54.9155006  52.9235077  56.4134445  54.3255196
  53.9027557  55.2838287  54.5621948  42.7027359  27.1751366  18.3158436
  42.6578941  27.7538395  17.5547104  41.8129692  27.1741982  18.6687584
  71.9723740  69.9833450  36.8515816  71.8018646  69.4939804  37.6563683
  71.1191711  70.0420761  36.4216614  83.4847794  69.7631836  71.1759262
  84.0402298  69.1671219  71.6783371  82.9411469  70.1960602  71.8341980
  16.6495895  60.2931366  20.7438087  15.9222641  60.7984772  21.1069336
  16.5339661  60.3544121  19.7955952  50.0921860  12.3000412  12.4271059
  50.3000755  11.4090071  12.7083044  50.8413239  12.5634584  11.8926592
  47.3383865  50.9793930  38.0358200  46.4861679  50.6015320  38.2530174
  47.7172203  51.2180290  38.8818512   2.6670289  57.9322472  71.4406891
   2.2779398  57.2914314  72.0358353   3.4720740  58.2081604  71.8788757
  61.0999451  16.5943851  50.9192886  61.6484756  17.2651768  50.5126114
  61.5629578  16.3619576  51.7241669  86.2627411  14.3714542  70.6500092
  85.7958908  13.6688347  70.1976776  86.1276779  14.1888552  71.5798721
  12.9176664  67.4683762  48.5226593  12.9166231  67.0494766  47.6619911
  12.0013676  67.6968613  48.6789360  64.5078735  33.0577202  43.2960663
  64.0810013  33.2711449  44.1258011  63.9126778  33.3952866  42.6267204
  33.5265732  57.2153358  53.0073967  33.7898979  57.6112900  52.1766663
  32.6232758  56.9336090  52.8627625  59.4266663  36.6476822  54.8614426
  60.0403557  37.1364326  54.3130455  59.7148590  36.8220673  55.7574158
  18.6163864  12.9011669  20.8833752  18.1153603  13.6912565  21.0857677
  18.1570854  12.5101185  20.1401691   9.0448275  47.6212463  52.7818871
   9.5753393  47.7239914  53.5719719   9.1294079  46.6950874  52.5553665
  74.4576035  61.4133797  62.0239716  74.0582504  60.7862816  61.4210625
  74.8789749  62.0575981  61.4550591  45.1898994  25.9503727  80.4354248
  44.3632431  26.3371773  80.7239609  45.2916946  26.2492752  79.5318069
  18.0844498  38.2896614  78.6269150  17.3059769  37.8265839  78.3174438
  18.7557964  37.6107559  78.6948395  61.4314690  50.6019821   2.0754428
  62.3294945  50.8616409   1.8696129  60.9055977  51.3749657   1.8700445
  14.3106060  38.7307739  22.3774719  13.6032858  39.3373528  22.5965405
  14.5575361  38.9639626  21.4825516   3.6035395   4.8615017   6.1140833
   3.4638779   5.4027967   6.8910818   2.9702549   5.1903644   5.4760928
  36.6917915  38.5899963  84.5788727  36.4446449  38.7559509  83.6691360
  37.5195160  38.1130028  84.5189972  46.3594208  69.5153885  85.8096390
  45.6108322  69.9375916  86.2310562  45.9975548  69.1246719  85.0142593
   8.8309164  55.4268646   0.2494389   9.3632650  55.5607758   1.0335982
   8.3529863  56.2491074   0.1411185  80.4294281  55.2157288  36.2667923
  79.9463730  54.3932419  36.3467751  81.3454895  54.9489746  36.1899376
  41.4491119  13.2989960  80.0659485  41.5087891  14.2326183  79.8634109
  42.3348007  12.9656391  79.9221954  67.1807785  52.6494675  52.3072166
  66.3991241  52.5876617  52.8562355  66.8624725  52.4906273  51.4185753
  30.0895596  46.5502472  85.6576462  29.2573986  47.0187836  85.5927124
  30.0817432  45.9443588  84.9166565   6.0631175  36.4227524  33.3253784
   5.4013195  35.7745819  33.0842857   5.5606704  37.2058678  33.5501328
  28.2796955  67.3598785  67.4158478  28.3331642  67.0688705  66.5055237
  28.9494343  66.8489151  67.8703766  80.3368988  21.6463852  52.7790070
  81.1152954  21.6806107  53.3350296  80.4411469  22.3819847  52.1754684
   7.6008067  62.6385765  71.8220673   8.2736034  62.9472008  71.2151642
   7.6022201  63.2835312  72.5293655  75.4785309   6.4904628   1.2246747
  76.1644592   5.9235339   0.8720832  75.2504959   7.0706868   0.4983334
  22.5949745  58.3643150  45.9452286  22.7120667  58.1669731  45.0159416
  22.9081612  57.5811157  46.3977165  35.5971375  10.0124807  74.9209900
  35.0911713  10.8130178  75.0601730  36.2264481   9.9984684  75.6421051
  61.7863731  57.6724129  79.3576736  62.6286850  58.0869408  79.1708298
  61.1391335  58.2562485  78.9621429   9.4255543  11.7187519  80.6315994
  10.3606434  11.5187693  80.5886154   8.9987459  10.8625746  80.6636429
  70.7078400  25.5444679   3.4761837  69.8099136  25.7903805   3.2537320
  70.6709747  24.5971584   3.6083863  27.8873844  63.3622894   9.2941246
  27.3479271  63.6807289   8.5703745  27.5502300  62.4851456   9.4762678
  16.7559700  50.7838211  29.1209240  15.9926929  50.4566803  28.6448784
  16.7416534  50.3088722  29.9518585  65.2773209  62.9488602   2.7788262
  66.1366882  62.5597992   2.9411490  65.3082657  63.7937508   3.2276423
  36.5822296  57.6108513  31.1604538  35.9687843  56.9718628  31.5232353
  37.1413422  57.8521576  31.8989639  36.3011475  66.1093369  86.2113419
  35.7435875  65.3429031  86.3452530  35.6925659  66.8479309  86.1927185
   2.4747322  32.6113701  39.6512871   3.0624042  33.3256721  39.4050179
   1.7975066  32.6143608  38.9748344  28.1972828  10.6689053  88.2930984
  28.6030197   9.8375692  88.0471497  27.5982399  10.4419003  89.0043335
  34.6029510  59.8974495  31.4413586  35.1092834  59.5793877  32.1888199
  34.8752136  59.3395081  30.7127934  59.6913795  44.3225937  86.9008408
  60.4067841  43.9198418  87.3929977  60.0888405  44.5821266  86.0696411
  61.6837273  44.7176743  17.8536205  62.4368591  45.2707520  18.0613003
  61.4238777  44.3412590  18.6944656  51.5238647  60.7477112  59.0767174
  52.3671684  61.1942558  59.1520004  50.9282990  61.2681313  59.6158867
  80.6157455  65.3960724  40.4321671  80.2984772  66.2991638  40.4295883
  79.8946991  64.8899689  40.8065720  55.9440994  20.0183487  47.1359482
  55.8199272  20.9491329  47.3215637  55.3915787  19.5705700  47.7766075
   8.5904398  23.6859818  57.1127625   9.1196184  23.4053535  57.8593864
   8.9840250  23.2438221  56.3605499   0.7589786  71.3254700  63.0699615
   0.1082065  71.7042389  63.6609459   1.5980276  71.6469727  63.3999138
  27.9147682  49.9905739  78.2085953  28.7093868  49.4749260  78.3461533
  27.7054844  50.3433838  79.0734406  36.0922852  22.6646900  19.4331150
  36.0844154  22.4506130  20.3660355  36.2020760  21.8209190  18.9946747
  76.4728317  10.0951338   1.5878434  76.3785019  10.8766985   1.0433341
  76.4319534   9.3658600   0.9691988  62.1043510  61.6131554  73.1990051
  62.3700638  60.7040520  73.3374329  62.0866776  61.7152748  72.2474289
  16.6389694  49.5284157   7.9746637  17.0689068  50.2838020   7.5736914
  15.7644291  49.5162239   7.5857377  34.9248543  50.4781265  32.2112579
  35.0324402  49.5270119  32.2053757  35.6830864  50.8019295  32.6975365
  48.6201210  11.6365871   8.7877855  47.8030243  11.8495760   8.3369856
  48.3778992  11.5883074   9.7125731   7.3262944  18.7369690  68.7727661
   7.1986256  19.5875816  69.1927567   6.4509420  18.3508434  68.7428360
  79.5296860  64.3908615  28.6609325  80.3354263  64.4286957  29.1762791
  79.1780090  65.2802277  28.7006035   6.2389541  38.6534500  47.6784744
   6.0051298  37.7255898  47.7035675   5.8219991  39.0266151  48.4550896
   8.6180782  14.1731825  73.9990997   9.1742077  13.9345446  74.7407227
   8.6235304  15.1303520  73.9938736  69.5827942  35.7464828  37.4072075
  69.9296951  34.9180412  37.7382240  70.3553543  36.2294998  37.1138229
  38.1666260   6.4817147  51.0868530  37.6908035   6.7878757  50.3147812
  37.8694572   5.5801029  51.2094078  43.4046326  26.2272167   7.5535355
  43.9778633  25.6177673   8.0185175  43.8919182  26.4583912   6.7627501
  36.3999748  33.2754631   0.7275940  35.9891129  34.0907440   0.4399379
  35.9772682  33.0759621   1.5629100   1.7801330  67.7015991  18.6801224
   0.8465995  67.5592117  18.5236855   2.0140679  68.4215622  18.0943260
  37.4784279  23.9754219   9.6033936  38.1129913  23.3079453   9.3425617
  37.9960175  24.6250858  10.0790691   4.4189692  63.1006546  53.2540550
   4.7837262  63.9845505  53.2103577   5.1684122  62.5245628  53.1034470
  43.5614471  54.8559952  54.1283684  43.9652557  55.6601906  54.4546127
  43.6456757  54.9146919  53.1766891  72.7696838   6.3913469   8.1222324
  72.9797974   6.7682452   8.9766512  73.2512894   5.5644193   8.1002483
   0.7442900  39.4038734  75.7125702   0.8146451  39.4097748  76.6671677
   0.6438873  40.3254433  75.4741135  53.2393417   3.7089453   7.2321658
  52.7837105   3.0412936   6.7194538  52.5406952   4.2678647   7.5723615
  85.6743698  43.6010208   4.4683127  85.8959656  44.4471703   4.0795193
  84.7185516  43.6039886   4.5196638  17.0721512  27.0226631  75.5827637
  17.3349876  27.9417477  75.6320724  16.4726830  26.9051132  76.3196793
  71.8026581  34.4672279  84.9727402  71.9551392  35.1144257  84.2841721
  72.3110504  33.7033386  84.7002792  39.3328438   1.2393020  65.2561264
  39.3248100   2.1936181  65.1823120  38.4092178   0.9962180  65.3198318
  68.2037201   6.5599389  70.2956848  68.2488937   6.3079085  71.2180023
  69.0621643   6.3277173  69.9416122  47.2129898  51.5464249  30.2581043
  46.2735596  51.5818825  30.0779800  47.3781548  52.3044968  30.8187122
  40.2570076  38.2204132  86.6621094  39.9270287  38.5900536  87.4810791
  41.0369911  38.7382050  86.4627380  32.7223778  59.4917641  43.6350746
  32.8779335  58.6821175  43.1487541  32.0379105  59.9411850  43.1393433
   8.6884480   6.3006592  26.7348099   9.5785036   6.4300270  27.0623741
   8.5863171   6.9626179  26.0509892   5.2781668  22.2962265  10.6264753
   4.9486923  21.4648800  10.9678555   5.6144729  22.7548714  11.3963947
  -0.0737822  36.0862770  39.8917503   0.1672057  35.9980621  38.9695930
   0.7611346  36.1869888  40.3489189  59.5697327  66.3226700  17.4487076
  58.9993668  66.9558411  17.0128002  59.7905006  65.6893158  16.7658081
  16.6618690   6.1289544  75.0583344  16.0383606   6.1587276  75.7839966
  17.3983269   6.6645947  75.3532104  46.4103165  66.1076431  28.1369839
  46.5785828  65.2780151  28.5837784  45.5032463  66.3189774  28.3578835
  67.7069473   7.6877708  61.9782562  68.0154800   8.1217270  61.1828194
  68.1237564   6.8263183  61.9581757  20.3768272  20.9942894  17.3798580
  20.6524963  21.1010170  18.2902679  21.0892754  20.5038815  16.9698009
  86.8399734  10.9381371  60.3139992  86.5318527  10.0632496  60.5503578
  86.8356705  10.9431076  59.3568230  47.1767845  21.7968616  83.8855515
  47.7307854  21.7534294  83.1061783  46.2901535  21.6460419  83.5578766
  20.2962208  27.0464287  73.2144623  20.0620537  26.3579922  73.8369217
  19.4657269  27.4752331  73.0079727  53.5522766  21.9942341  74.2521515
  53.0295334  21.6508160  74.9767456  53.0779114  22.7737083  73.9629593
  82.8473434  45.7281685   6.1481481  83.0698013  46.1452599   6.9804797
  82.5479813  44.8522034   6.3916721  66.1824570  52.5291862  43.9961014
  65.9497452  52.9062424  43.1476288  66.8964691  51.9223289  43.8007851
  23.8810196  15.4453897  87.4086685  24.2260723  15.8776026  86.6274109
  23.3737392  14.7077055  87.0699692  12.4386673  27.8099556  27.2443657
  12.5673981  28.7582722  27.2255154  11.5255251  27.6974049  27.5084400
  68.5374298  30.7584915   4.9119163  68.7364120  30.7517529   3.9756501
  68.1931076  31.6361752   5.0772891  54.0174408  58.6082993  57.0301895
  53.5091476  57.8246536  57.2393990  53.5790596  59.3126564  57.5076141
  56.0396767  53.7285271  36.3505516  56.1758575  53.1468811  37.0984650
  56.8721695  54.1904907  36.2517014  15.3833570  24.4131718  57.9581184
  15.1846952  24.9243202  57.1735840  16.3377113  24.4406357  58.0265732
  60.1119041  23.7812462  69.9716721  59.9369736  24.4453125  70.6384964
  60.2676125  24.2814560  69.1705627  25.3763847   3.6207130  48.4132156
  24.6540890   3.4949718  47.7978210  26.1507263   3.3182960  47.9386940
  25.8468819  65.5458069  30.2882862  26.0975609  65.8288956  29.4089394
  26.6215267  65.7153168  30.8244057  31.7436771  45.4053955  54.0455132
  32.0234451  46.2289658  53.6458969  32.3009071  44.7410240  53.6401253
  83.3889923   5.1733341  30.9460754  82.5026779   5.3572950  30.6348724
  83.3824615   4.2377648  31.1483116  26.4222794  57.6669197  86.1622238
  26.3032322  58.0839806  87.0155258  26.1739025  56.7536392  86.3052750
   3.6576793  46.3562546  85.9545288   3.2397466  46.6419716  86.7668915
   3.4840622  47.0641136  85.3340302  76.2477493  26.6483917   6.6501164
  75.7610855  26.9099903   5.8684802  75.7479935  27.0177021   7.3781857
  40.5024681  54.6802444  74.2005386  40.6041641  53.9058838  73.6471329
  39.9342308  54.3913727  74.9146042  61.4153671  15.1346998   8.8088169
  62.2849236  15.0235929   9.1932106  61.5790138  15.2342339   7.8709764
  59.5352974  32.6484947  49.7890892  59.8478622  33.4048576  50.2855225
  59.7615433  31.8944874  50.3336258  53.6942787  68.9823914  82.3451691
  53.4788971  68.1251678  82.7126083  53.4747658  68.9069366  81.4165344
  56.6063919  14.0858850  30.7967644  56.1404228  14.0601721  31.6324959
  56.0666389  14.6457882  30.2387257  34.3270340  52.7786446  24.2450752
  34.0094261  51.8853455  24.1132488  34.9427795  52.9224129  23.5264492
   1.0500902   2.2948828  30.7755489   0.9272651   1.4357767  30.3717136
   0.3289436   2.3711522  31.4003391  65.3057327  61.7405815  74.0956192
  64.6675873  62.4104919  73.8502121  66.1169586  62.2260361  74.2455444
   5.6314845  20.7073708  81.9111328   5.1842632  21.3809986  81.3988419
   6.3194175  20.3821335  81.3304443  68.9169235  29.4950275  36.4056053
  68.6428070  29.0689907  35.5934563  69.7249603  29.0446148  36.6514435
  78.4322205  47.4443512  11.3256159  78.9635391  47.6930809  10.5692625
  77.7388535  46.8944435  10.9608202  41.6664772  39.4660416  69.3514709
  42.5736542  39.4955139  69.6554337  41.4307327  38.5391579  69.3906860
  36.0932541  68.8498535  14.0724030  35.5179367  69.5068512  13.6804943
  35.5409241  68.3976364  14.7101040  34.7267303  70.6260376  83.9218521
  34.5695572  71.1927109  83.1665955  34.8758430  71.2311401  84.6483841
  24.8813076  10.5344315  21.1122208  24.6564445  10.2365561  21.9936619
  25.0349503  11.4742584  21.2089252  82.2456741  26.0301323  84.8534470
  81.5345764  26.6230373  85.0964127  82.6800690  25.8251648  85.6814041
  79.5804214  11.3770113  82.5728989  79.4277649  12.0256109  81.8856964
  79.7004242  11.8950567  83.3687973   1.2934536  39.8934860   7.4274569
   0.6297417  40.5531731   7.2261310   1.9554573  40.3660202   7.9321313
   7.8298569  34.7974434  75.7369232   7.5299520  35.6052856  76.1536713
   7.1910043  34.6344604  75.0429993  54.7415695  18.3657341  28.6219902
  54.6534653  18.9682446  29.3605385  54.4044228  17.5325146  28.9510975
  84.2729645   6.3306861  18.5442562  83.5616989   6.0856276  17.9524136
  84.9163437   6.7602592  17.9805508  37.5451736  57.2316170  14.8818808
  36.8016357  57.6077194  15.3529739  37.3845367  56.2880821  14.8949766
   5.4296131  52.6316223  65.9718323   5.6822801  51.9405136  66.5840073
   5.1520247  53.3572006  66.5310440  12.1310186  47.6033859  40.3240433
  12.8089437  48.1036987  39.8698006  12.0435905  46.7991180  39.8124352
   4.4276042  27.1847134  26.2014751   4.3737259  27.9726410  25.6606426
   5.2953401  26.8257504  26.0159683  16.9418507  63.9772606  18.5566444
  17.6853943  63.3746223  18.5423756  16.9437351  64.3390274  19.4428463
   2.9316363  71.2317429  28.6079445   2.9989970  72.0967636  28.2036819
   3.2741489  70.6308136  27.9462776  24.0082226  42.5746536  88.4491425
  23.5168285  43.3402977  88.1515579  23.6731949  41.8532372  87.9166565
  83.5900803  19.2327938   1.4107533  83.0807800  19.7418461   2.0413945
  83.7708740  18.4070168   1.8597927  75.2925262  34.6832924  66.2574158
  75.9755936  34.8128433  66.9153366  74.5811768  35.2611122  66.5337067
  18.2977161  48.5275116  68.1300354  17.7331028  49.3002510  68.1122208
  17.7316208  47.8106041  67.8440018  45.8605499   4.8535113   7.3646250
  46.4171295   4.2382298   7.8419890  45.6424065   4.3979588   6.5515332
  48.4846687  23.6592369   2.6800673  48.0190849  23.7075558   3.5150094
  48.8369789  24.5398312   2.5509810  79.8516617  66.3857880  70.0921402
  79.6157074  66.1085510  70.9774094  79.0128937  66.4989929  69.6450653
  80.9216766  71.2512817  48.6974525  81.8269501  71.1581192  48.9941597
  80.9399872  70.9734192  47.7816505  73.1487045  55.9917221  40.2975388
  73.3718033  55.1014023  40.0258980  73.9447556  56.4980545  40.1358147
  20.1618214  34.4670143   5.0966878  19.2338829  34.6360779   4.9336581
  20.5596943  35.3365250   5.1400123  28.2640800  60.9812431  12.7994366
  27.5970173  60.8009377  12.1370544  28.9776955  61.3953667  12.3141661
  56.0948143   4.0336990  56.2089806  55.6619835   3.1874998  56.3222771
  55.7115364   4.3935819  55.4090958  62.0985756  37.8514442  34.5010948
  61.3432007  38.1318436  35.0178337  61.7599106  37.7633705  33.6101532
  75.8639069  21.9412270  27.0745506  75.1986542  22.2925835  26.4827576
  76.1767502  21.1481266  26.6394005  29.3415108  70.4517517  32.6746979
  29.0741653  69.5532608  32.8682632  29.7943516  70.7426910  33.4662285
  39.4736443  -0.3284072  45.1755409  38.6959877   0.1518365  45.4598846
  39.8762360   0.2365958  44.5160522  45.1318741   8.1439791   1.1664943
  45.0618095   8.5394926   2.0353389  46.0695648   8.1524210   0.9744024
  75.8770599  53.3762665  18.4380970  76.4072189  53.3108025  19.2323761
  75.0506973  53.7591782  18.7325935  45.1292839  58.4233665  62.4139748
  44.6391907  59.0872841  62.8990021  46.0247993  58.4982758  62.7436333
  82.7739410  50.1940765  28.9802494  82.2365265  50.0464401  29.7584648
  82.7054367  51.1347275  28.8167973  54.1733322  11.8850851  20.2138672
  53.5702629  12.2117853  20.8815556  54.9564285  11.6309757  20.7021465
  55.1366158  23.3347206  83.7066193  55.4474106  22.4412422  83.8526840
  55.2872200  23.7800121  84.5404510  82.8772659  64.3189163  47.9253540
  82.9834824  63.4284325  47.5907021  83.4889145  64.3733826  48.6596260
  63.1644249   3.3820183  70.4558640  62.2942619   3.1730764  70.7955627
  63.1982346   4.3386211  70.4559708  74.1595840  63.4985046  40.7277145
  75.0295639  63.4123726  40.3379135  73.5628662  63.1647110  40.0578308
  26.1042500   2.5447812  84.9618607  25.9639740   3.2237353  85.6218414
  26.8677368   2.8445079  84.4684219   6.2437162  38.3170319  30.0592098
   6.2364364  38.7206345  30.9271297   6.8873105  38.8243217  29.5645599
  64.9636688  44.6906166  52.0531654  65.2429199  43.9530220  52.5955734
  65.7793961  45.1165810  51.7897797  65.7586441  41.3122673  65.6919632
  65.9899292  40.7313194  66.4167023  66.2365799  42.1218224  65.8720398
  75.5546570  50.9088516  45.3880615  76.1650772  50.6580963  44.6947060
  76.1078568  51.0410156  46.1579475  44.1519203  66.8660812  20.0453968
  44.3615456  66.0559464  19.5806675  44.4070396  67.5623169  19.4400864
   4.3460493  29.7011547  38.8110619   4.2213516  29.9512081  39.7265701
   4.8328366  28.8779812  38.8517799  55.8898544  32.8564110  28.6725197
  55.2317429  33.3027954  28.1397362  56.3317528  33.5605850  29.1469631
   0.2070164   4.5078478  17.2578087   1.1245962   4.2739139  17.3976440
  -0.1284834   4.6958685  18.1343460  61.3073921  45.7363014  21.8960381
  61.9170952  46.2000771  22.4699745  61.8202133  45.0122490  21.5368843
  28.1904545  60.2374992  19.5871887  27.6298752  60.0693932  20.3446331
  28.9813442  59.7254829  19.7562065  47.6727943  18.7519131  30.7927589
  47.7817078  17.8861752  31.1862907  48.1549110  19.3411160  31.3729610
  80.6766891  42.2039642  46.7360649  80.4984512  43.1444206  46.7380905
  80.2354660  41.8782539  45.9515495  30.4209023   7.8359346  82.7161865
  29.6852436   7.4197445  82.2669449  30.3931427   8.7479897  82.4270248
  16.5849648  69.0183334  39.6553650  16.3649921  69.9471893  39.7264748
  16.8844662  68.9115601  38.7525177  49.9560013  52.3066444  46.3186760
  50.0762215  51.5002556  46.8201828  50.4250526  52.1510544  45.4989128
  36.6189346   0.8019215  42.2616234  36.8494225   0.8434131  41.3335114
  36.6165810   1.7149994  42.5488777  33.7126160  66.0553360  25.3952541
  34.0983200  66.7445679  25.9360218  34.2586746  66.0337067  24.6093884
  12.3032980  40.6135559  25.1998940  11.9028873  40.1574554  25.9400806
  13.2430191  40.5823555  25.3792858  60.6628075  10.9208422  62.7308350
  60.7071609  10.3610306  63.5059967  59.7378769  10.9158945  62.4844284
  35.2015343  13.3733835  35.8623657  34.8757744  12.4893160  36.0312996
  34.4662323  13.8243542  35.4474068  31.2363491  58.8833008   8.5546103
  32.0136070  59.0425377   8.0191250  31.4404430  58.0848961   9.0415688
  71.8171997  38.4941368  39.1430893  71.5912323  37.9637947  39.9072304
  71.5689774  37.9526253  38.3938332  41.7671814  22.2164364  84.5274963
  42.2796059  23.0204716  84.4427643  41.1749878  22.3859253  85.2601700
  85.4583206  37.0063248  63.9070053  84.7704086  36.3877640  64.1527634
  86.0723267  36.9857559  64.6410370  62.5738449   8.2407351  39.5426407
  63.3287048   7.6792521  39.3661346  62.1298561   8.3176250  38.6981316
  78.1152573  50.8860092  34.5723457  77.3915405  50.5945473  34.0178032
  78.3541794  50.1112518  35.0811653  58.0835533  42.2377357  58.1998634
  58.8114471  41.9121475  57.6703377  58.3720131  42.1157112  59.1043701
  62.1977959  67.1025696  85.3272247  61.8222885  66.6452255  84.5748520
  61.5341835  67.0217285  86.0122910  16.1022015  49.0853882  16.5700607
  16.4486637  49.9452171  16.8085709  16.8702068  48.5865364  16.2915878
   9.8024426   9.8685179  59.5212173  10.5536604   9.3134346  59.3119659
   9.6206970   9.6879063  60.4434853  19.7475281  69.3463516  23.0736866
  20.6316376  69.0691299  23.3139687  19.4176273  69.7956848  23.8518200
  57.8625450  18.3649292  31.9982281  56.9926796  18.0020561  32.1652145
  57.7470741  19.3115406  32.0808372  30.3853683  55.8359413   4.9347782
  30.6769238  55.4150620   5.7435350  30.7803669  55.3132668   4.2369089
  21.1826229  63.3731384  64.6781693  21.8243237  63.7573586  65.2755203
  20.5057106  63.0145950  65.2521591  10.0705805  60.8433876  20.6555271
   9.5853558  60.8486557  21.4806099  10.8377609  60.2989464  20.8323135
  39.1447449  53.1558647   5.6859488  38.5593567  52.4828758   5.3386192
  39.6142426  53.4839439   4.9190297  85.7022858   7.7609501   1.2737154
  86.4849930   7.2114801   1.2327148  85.2846451   7.6469746   0.4200061
  66.6045761  13.9374294  42.5972404  65.7289734  13.6150827  42.8108902
  66.4493942  14.7105436  42.0546150  64.6975250  63.8837280  51.0134583
  65.1955338  64.1858978  50.2539101  64.9568787  64.4746323  51.7204247
  80.5220490   5.6352043  41.1513863  80.3291473   4.7354913  40.8876839
  80.0680771   5.7423601  41.9872475   6.6263504  -0.1547332  12.6946964
   7.0877581   0.6354718  12.9756079   5.7572279  -0.0772653  13.0882149
  30.9982281  30.4785004  85.3214874  31.6811237  29.9599380  85.7469025
  31.4413834  30.9002476  84.5852966  15.6145163  58.2781410  25.0813637
  14.7064295  58.5399017  25.2333279  15.5878716  57.7863655  24.2605839
  75.6558380  31.7819233  77.7216568  75.6884460  30.9740791  77.2092514
  75.0987625  31.5684395  78.4701996  34.5843544   7.4711137   9.8434238
  34.2882500   8.1114979  10.4903116  34.0074959   7.6058822   9.0915565
  80.9316025  27.1095181  87.0420761  80.2824173  26.5843353  87.5100098
  80.6688232  28.0155144  87.2043991  21.1094456  45.4639282  74.5642319
  20.9781532  45.4753609  73.6161423  20.2244148  45.4737053  74.9287186
  74.0393524  68.1508713  80.4682617  73.8324356  67.6533661  79.6771164
  73.6290894  69.0043488  80.3286438  64.9648895  21.0708237  52.7999039
  64.2471161  21.7040291  52.8095016  64.5451813  20.2302265  52.9828606
  84.8296051  15.9686213  19.8998489  84.2966003  15.6222401  20.6154957
  85.4992981  15.3002625  19.7547817  79.3363724  63.8656311  85.1929703
  80.0057907  64.4023895  85.6172409  78.5074615  64.2707520  85.4479446
   1.2190014  64.0394974  27.6353455   1.2695247  64.8749084  27.1708336
   1.6189677  63.4082794  27.0371666  17.0709305  25.1133823  85.0593567
  16.4441624  24.5972691  85.5663223  17.8949661  24.6324730  85.1363068
  75.7166443  43.6458549  37.4921379  75.4350891  44.5576515  37.4174042
  75.6554260  43.4521790  38.4275360  23.4784565  51.9381104   6.5081291
  23.6065903  52.1699181   5.5883031  23.9479885  52.6163368   6.9937005
  24.9862633  13.0726824   8.7410088  24.7825375  12.1443443   8.6273565
  24.2680264  13.5307055   8.3044529  66.8182220  57.4115448  23.9111938
  67.2676773  57.6522141  23.1010704  66.0215836  56.9676895  23.6203518
  85.3201065  68.5089722  73.0304947  85.0806808  67.8064117  73.6349030
  86.1387787  68.2135468  72.6320801  28.5447216  71.1201935  21.8746319
  29.1326427  71.7674789  21.4852734  28.9877281  70.2824707  21.7397099
  74.1919403  32.1471405  65.2292023  74.6355133  32.8683739  65.6756287
  73.3337173  32.0965919  65.6500626  12.8057861  65.3589783  81.1030045
  12.0308409  65.8355026  81.4006882  12.4843817  64.7942657  80.4001312
  49.3316765   4.1842761  66.2193832  48.5584679   3.6236408  66.1556091
  49.9080353   3.8779614  65.5192337  81.8174057  31.2384491  52.3146820
  82.4549789  31.8999367  52.5833206  81.5230179  30.8425045  53.1349220
  60.8780518  56.2619820  83.3600388  60.0310173  55.8820267  83.1267929
  61.0147362  56.0015068  84.2709122  29.5466423  54.6748428  58.3245773
  29.3238277  54.8967285  59.2286530  28.9507275  53.9603882  58.0994720
  58.4228096  23.9131451  58.0860481  58.8377190  24.4108067  57.3814812
  59.1445045  23.6742401  58.6676941  58.6271744  43.5265007  37.3936615
  58.6978989  44.0865555  38.1666870  58.6091881  42.6358871  37.7439766
  70.3755646  20.1873417  14.1938276  70.5303497  19.8706684  13.3038883
  70.8917389  20.9911022  14.2552109  76.9258194  18.4797173  29.6028061
  76.6327820  19.3890152  29.6622925  77.8812408  18.5363979  29.5889130
   9.2528858  29.5751038  17.8865128   8.7088623  30.1360283  17.3336697
   9.2474365  30.0043240  18.7420654  53.2006950  67.2954941  26.1209736
  53.3606911  66.5115814  26.6464329  53.9282227  67.8796768  26.3346710
   1.6987977  21.5702324  86.9700928   1.8762541  22.0872307  86.1843109
   0.8118892  21.2343121  86.8405380  63.6518097  50.4477501  17.3146057
  64.0064163  49.6001968  17.0460262  62.9965897  50.6552277  16.6483688
  20.3028355  19.9890537  82.6059418  21.2293663  20.1471844  82.4249191
  19.8975067  20.8546371  82.5539398  63.7826958  37.4317856  22.7662392
  63.9879379  37.5030251  23.6984577  64.5318832  37.8318825  22.3247910
  32.8949394  26.9474583  86.4933929  32.0795784  27.0284233  86.9882278
  33.3253212  27.7957172  86.6004562   8.0696888   4.9416285  24.2825985
   7.9003186   3.9995360  24.2853661   8.1059761   5.1811767  25.2086296
   6.7725511  30.1189957  82.8084641   6.4153008  29.7886715  81.9841537
   7.6776862  30.3513737  82.6011887  71.3234024  61.8732262  45.6882782
  71.7555084  61.0417862  45.4927826  71.4125671  62.3844261  44.8839417
  35.2314301  55.4986191  54.2103958  34.9817085  54.6060181  53.9713707
  34.4944077  56.0382576  53.9243584  84.1827316  11.7869148  82.6088181
  84.8940353  12.2817802  82.2021332  83.6485291  11.4870462  81.8733292
  68.2938995  30.7985897  33.6258087  67.5267639  30.7875290  34.1981888
  67.9513168  30.5701103  32.7617111  82.5336380   1.7996494  36.0594788
  83.0199203   2.1730840  36.7945328  83.1207199   1.1367644  35.6959572
  63.8192749  25.2942715  15.3175564  64.1756973  25.7595348  14.5607691
  64.5643234  24.8103676  15.6738892  57.2739792  33.4935303  42.9500885
  57.5408096  33.2444725  42.0652122  56.8970108  32.6953049  43.3201714
  78.0058289  27.3287601  41.3586121  77.7518997  26.9970112  40.4973984
  77.1768494  27.4587746  41.8191681  10.4005013  12.0418062  24.6294899
  11.2409315  12.1934252  25.0618324   9.7468767  12.2435312  25.2990532
  62.9786415  43.1965027  72.9720459  62.8008003  42.5821800  73.6842346
  63.7977791  43.6234512  73.2229614  83.4378052  11.8573370  37.6379700
  82.7355270  11.2207232  37.5046997  83.8693008  11.5728035  38.4436302
  59.3299942   5.6498237  86.5398788  60.0830765   5.8060546  85.9700623
  59.3229485   6.3972421  87.1378326  69.3430405  37.4231567  85.4934616
  68.8337097  36.7006454  85.1263275  69.7294083  37.0625648  86.2915421
  38.7703934  31.2026424   9.3749552  39.6882706  30.9424019   9.2973986
  38.5100746  31.4313602   8.4826803  32.3761597  14.9133778   0.2685405
  33.0511169  14.2527943   0.1126786  32.3099060  14.9678001   1.2218927
  55.1514511  15.6484575  86.2846909  55.7241173  16.1142921  85.6753540
  54.3849030  15.4142342  85.7614594  28.6765404  62.5606384  42.7379913
  27.7325325  62.6818275  42.8399353  28.9264336  61.9985352  43.4713593
  33.9095993  48.1553726  65.5096588  33.8513374  48.5752678  64.6514435
  34.4186859  47.3600426  65.3531036  75.7559433  50.4633484  19.3915634
  74.9697723  50.4329834  19.9367619  76.3636398  51.0200996  19.8783512
  42.6123238  21.3367863  68.3647003  43.1435242  22.0496655  68.7194672
  43.2141037  20.8447342  67.8061523  59.0710449  41.5589561  67.1108856
  59.3747368  40.7388191  67.4999619  58.5756073  41.2883301  66.3378830
  51.5863991   8.1186514  30.0429001  51.6691971   7.8460026  30.9567051
  50.6673126   7.9596820  29.8278599  23.2085571  16.8429050  80.6511459
  22.9740887  17.3978024  79.9072723  22.4630146  16.2512779  80.7530136
  86.2878036  71.1202850  52.9857635  85.7772903  71.4604721  52.2509956
  86.3415451  71.8527908  53.5995827  76.0495377  41.1242256  14.8765936
  75.4345627  40.8093758  14.2140913  76.1325607  40.3956490  15.4918289
  64.2484741  23.9937134  78.7206268  65.0224457  23.7509537  79.2288208
  64.5082169  23.8585052  77.8093185  42.9269371  39.6435356  11.2457685
  43.7066879  40.1775322  11.3976383  43.2683563  38.8003731  10.9478779
  47.5793457  15.7323418   4.3812127  48.3218842  15.2023716   4.0913858
  47.7436829  15.8864193   5.3115273   5.8405938   2.1092486  68.9617081
   6.0215101   1.7720850  69.8391037   5.7365613   3.0528276  69.0844574
  16.7523003  37.7840347  23.4191856  16.3599834  37.7517853  24.2917004
  16.0079956  37.8822708  22.8253899   3.3703945  48.4673119  84.7288437
   2.8557663  49.2711563  84.6566010   3.7971563  48.3787308  83.8766327
  13.4815903  37.8488960  32.2746429  13.1235714  37.0355453  31.9189491
  13.1041126  37.9132767  33.1519089  42.0673637  30.0970039  21.5929604
  41.4575233  30.2548523  20.8722572  42.4276733  30.9604111  21.7952900
  41.0671768  51.0071793  74.9669342  41.5774765  50.4801826  74.3520355
  40.5854988  51.6217651  74.4133072  69.5301895  34.0661659  86.3390732
  70.3355026  34.0669708  85.8216782  69.4881744  33.1870537  86.7154160
  29.4979649   0.7437877  39.9022408  29.5300941   1.5126237  40.4715309
  28.8798122   0.9828170  39.2116013  75.8796005  65.2096176  28.4525967
  75.8943558  64.3853302  27.9662189  74.9561768  65.3462372  28.6644058
  52.2813911  12.8658924  22.0750389  51.4963608  12.6467762  22.5769825
  52.0198898  13.6115570  21.5348225  46.0613022  39.9155083  14.5132170
  45.6449089  39.3302612  15.1459341  45.9715691  40.7872772  14.8981857
  65.7956848  37.1965942  31.9452133  65.5018158  36.5847130  32.6201019
  65.1574478  37.9093895  31.9738579  67.1786804  42.4553795  25.6387005
  67.4491196  41.9299507  26.3917046  66.8198471  43.2558746  26.0216827
  11.0057688  15.3749752  51.7574081  10.5375614  16.1330280  51.4075928
  11.9312048  15.6004868  51.6628304  45.6207619  67.1952362  54.0861740
  46.1174240  67.3596115  54.8877563  45.6871910  68.0120087  53.5915070
   5.8635917  56.6618843  74.6357040   6.5261350  56.4955597  73.9651794
   6.3536625  56.6783447  75.4577637   8.5626812  46.3274536  83.6912155
   9.3754101  46.2139854  84.1839905   8.8325930  46.2953491  82.7734146
  79.0744781  60.6925812  21.0535927  79.7130127  61.3828430  21.2326145
  79.2095642  60.4746666  20.1313686  20.8476906  12.1150293  79.1412125
  20.7940464  12.9758902  78.7261581  20.1213722  11.6204433  78.7616348
  75.2871704  36.2888756  82.9436874  74.5521164  35.7483253  82.6543198
  75.4346542  36.8992004  82.2211990  73.7598877  66.2696228  29.7044678
  73.8596420  65.9832382  30.6123581  74.0080414  67.1940231  29.7162743
  34.4127274   7.8452249  45.7450638  33.8490257   8.4269781  45.2351303
  34.4827499   8.2688656  46.6005516  18.2423992  22.6456757  19.7810383
  18.3693352  23.1703682  18.9905853  18.5203342  23.2183914  20.4958668
   5.1234145   8.7151117  27.3707161   4.9256115   7.9498506  27.9106064
   5.0318413   8.4031982  26.4704056  41.9309883  34.1181221   5.2718663
  42.0995522  35.0599518   5.2439070  41.1177521  34.0350342   5.7698407
  59.8442993  46.5678635  19.7768803  60.4169998  47.0269432  19.1624737
  60.3600197  46.5005760  20.5804596   8.6797352  41.6660233  44.9745903
   8.6902142  42.1265106  45.8136787   9.5949554  41.4339371  44.8172989
  36.2682343  46.9065628  21.0140820  36.8606033  46.2131920  20.7232761
  35.4106598  46.4841499  21.0627460  58.2919044  61.3465042  82.3940430
  58.1493683  60.6183929  82.9988403  57.5521965  61.3028679  81.7881088
  22.6301804  41.6370049   6.0298762  21.8212605  42.0758286   6.2931485
  22.5874119  40.7805557   6.4551950  42.9096107  33.2444344  75.5440903
  43.0971146  33.9970360  74.9831390  42.8540840  32.5036888  74.9404068
  41.4683418  71.5236893  61.8488884  41.5846443  72.3413010  61.3649178
  41.1610069  70.8984604  61.1924858  77.1837311   8.0534954  69.2637405
  77.6330185   7.2086654  69.2889175  76.4200363   7.9021277  68.7068863
  21.9469643  58.0529938  68.6271973  22.1062584  58.0820961  69.5706024
  21.1052895  58.4942436  68.5126877  41.0154228   7.3154559  64.8858643
  40.9439507   7.4426317  65.8318787  41.8383064   6.8405156  64.7695389
  15.6288471   8.3388205  27.3631172  15.7414265   7.9979959  26.4757652
  16.1131077   9.1644812  27.3657932  80.9210739  29.9379349  78.3858032
  81.0032272  29.8910866  77.4332886  79.9785614  29.8953514  78.5473022
  83.6261139  25.5886574  19.4029312  83.9197006  24.7073746  19.6339722
  82.8018036  25.6984673  19.8769455   8.9706459   4.1744161   3.0921259
   9.7209711   3.9474673   3.6414332   8.6765919   5.0217390   3.4265010
  77.8941345  14.6030436  88.8889771  78.1251450  14.8821659  88.0029984
  77.0486221  14.1655188  88.7894440  73.2064056   1.3642368  75.7059021
  73.0609207   0.5590222  75.2092133  74.1197510   1.5914799  75.5315399
  82.1610565  18.7674408  69.9070740  81.4424210  18.9001427  70.5252991
  82.9529800  18.8945427  70.4295044  81.7725449  44.2140770  41.3126335
  82.3070679  43.8792152  42.0326233  81.9207458  45.1596680  41.3239708
  51.4595833  61.0520401  81.1676712  51.6553192  60.5990486  80.3474808
  52.1883163  60.8262825  81.7457886  24.6151371  41.8155594   1.8536918
  24.4150944  40.9301872   2.1575496  24.5828419  41.7541542   0.8990095
  78.1123657  50.6175156  43.6927223  78.6447144  51.2017517  44.2326469
  78.7482376  50.0591660  43.2453423  70.6999130  41.4183998  79.9303665
  70.3233261  41.1257515  79.1004486  70.0548325  41.1624184  80.5895920
  39.3044510  60.7395630  82.0968704  38.3690147  60.5706673  82.2094269
  39.6903229  60.5259476  82.9464035  41.4644432  37.7689629  32.8810272
  42.0517578  38.2435532  32.2927589  40.9764328  37.1784439  32.3071251
  53.8449974  61.4031219  57.2603035  53.6920700  61.0770950  56.3734283
  54.7857056  61.2915688  57.3976097  69.7163849  19.7370396  29.4825268
  69.1975403  18.9420166  29.3601570  70.6220016  19.4290276  29.5173588
  28.8224983  47.9201508   3.0258932  28.5197296  48.6626663   3.5486104
  29.6004181  47.6047592   3.4858952   7.2786307  10.1781454   9.5632439
   7.7093573   9.5932302  10.1866055   7.9621015  10.3991661   8.9305906
  61.7465477  18.5702991  33.0215073  62.1280594  17.8660431  32.4973831
  61.1224709  18.1289558  33.5976830  40.1704292  10.7385540  29.9341450
  40.9922180  10.2762175  30.0989056  39.8806267  11.0276604  30.7993984
  70.3483810   3.7249444  81.0431824  70.5435104   3.4783580  80.1391068
  70.3464432   2.8963194  81.5223541   3.4698248  23.6104126  35.1075783
   4.2831674  23.5677338  35.6104546   3.0914302  22.7349949  35.1893921
  17.3641968  40.1538010  18.5277023  16.5292549  39.7676277  18.7922230
  18.0228043  39.6537018  19.0097504  58.3637657  53.7607002  42.6824760
  58.5896111  53.6584091  43.6070099  57.8316727  54.5558167  42.6524544
  78.9156342  57.6173019  57.5313911  79.6213760  57.4136887  58.1451569
  78.1143494  57.5122108  58.0443497  41.2944946  13.4495831  56.1899796
  41.9270744  12.9049082  56.6583862  41.8186073  14.1583319  55.8168678
   5.2332006  43.5550652  41.3488693   6.0589347  43.6865540  41.8148155
   4.5665059  43.9059715  41.9393044   5.7523904  41.6072922  73.1914825
   6.0208521  40.9338722  73.8165131   6.5747309  41.9722099  72.8646469
  11.7615538   4.4946027  37.8863487  12.0462208   5.0324993  38.6251755
  11.0512018   4.9953146  37.4851990   2.7228880  65.0548477  14.4047480
   3.2816269  65.6557999  14.8976021   2.8705351  65.2878036  13.4881439
  74.4899826  35.3087997  73.2805481  75.0650558  35.9049950  72.8008804
  74.4229050  34.5368385  72.7185745   8.2614212  12.1438437  36.4664078
   9.2093010  12.2336855  36.5648232   8.1406527  11.2679968  36.0996132
   4.0066466   3.1773186  49.1659203   3.4038985   2.8647976  49.8406487
   4.8487005   2.7849512  49.3966255  55.7679291  33.5914726   9.2834711
  55.2169952  32.8164215   9.3930073  56.0657578  33.8006859  10.1687737
  75.9641647  10.1921787  70.5932541  76.3939896   9.4093208  70.2488556
  76.1236115  10.8641462  69.9304810  54.8095818  16.6212997  48.1264343
  54.1328621  16.2280598  48.6774750  54.9893608  17.4678936  48.5353203
  17.7368431  15.9862967   3.7594657  18.6441231  15.7225132   3.6061964
  17.5977249  15.8338356   4.6941495  51.5617485  13.3252859  88.1393738
  51.6813049  14.2581615  87.9613800  52.3549576  12.9126654  87.7976151
   3.5709343  44.3692932  27.4407787   3.4180973  44.4693260  26.5011692
   2.9207537  44.9394035  27.8512287  60.0556602  48.0845985  15.2540884
  59.6166573  47.3745117  14.7858105  59.7456398  48.8820953  14.8249969
  77.8730545  23.3034039  69.2212753  77.4503708  23.7413979  69.9600143
  77.1978302  23.2713718  68.5435791  57.2314796  23.0878582  43.3539963
  56.4551659  22.5692825  43.1427002  57.8667221  22.4480267  43.6754227
  58.0941772   7.1709270  63.8973846  58.7573967   6.9953785  63.2298851
  57.6358376   7.9493165  63.5807304   6.0008969  24.5743122  70.9428940
   5.9703097  25.3514805  71.5008392   5.8045039  24.9017487  70.0651398
  74.3773804  54.3870392  49.3125305  74.2458344  55.3226357  49.1589622
  73.6043701  53.9707298  48.9312477  86.4729614  34.5359001  54.2989426
  86.9803543  33.8344536  54.7072983  86.2843552  35.1429367  55.0145988
  60.5081596  44.8937492  33.1959686  59.9997253  44.3416519  32.6019058
  59.8501930  45.3628960  33.7090111  71.2000504  60.1801071  72.8396301
  70.7535477  60.7028084  73.5056992  70.8860931  60.5337830  72.0074158
   7.0510178   3.1868219  12.7865095   6.5723519   2.9930873  11.9805460
   7.9551501   3.3202124  12.5019321  47.5998497  64.4196701  21.5297508
  46.8312683  63.8851433  21.3302555  48.2346153  64.1890182  20.8514423
  50.9137154  65.7098007  25.9612446  51.7917938  65.5157013  26.2891750
  50.4010658  65.8993988  26.7470398  26.3735638  44.5667763  83.7464523
  26.3310146  44.9484177  84.6232529  26.9155865  43.7848663  83.8516235
  19.5535793   5.6726294  43.3178673  18.9395027   6.0820441  42.7083397
  19.0160351   5.0679855  43.8294182  70.7069931  31.1141720  55.0648384
  71.0584793  31.0884590  55.9547958  70.3558350  31.9997311  54.9715004
  80.4558792  19.1767197  18.7882824  81.1210403  18.7598782  18.2405224
  80.1484909  19.9193382  18.2684193  75.4942856  14.1126804   2.1435628
  76.0335083  13.5914154   2.7383394  75.0568848  14.7474623   2.7109778
  86.3941498   5.9516854  50.2937469  86.6499634   6.0387044  49.3754768
  87.0243149   6.4921732  50.7701874  70.0949249   6.6620941  88.4963989
  70.4660034   6.5803719  89.3749542  70.0209503   7.6058192  88.3544769
  31.9082146  42.6158562  77.8943481  32.8132133  42.6740799  77.5880508
  31.3809776  42.6876526  77.0986710  12.7842388  19.5826759   5.2520037
  13.2418184  20.0732040   5.9348178  13.2259235  18.7337551   5.2301140
  55.7972984  47.9375725  77.0656891  55.0564270  47.4206581  76.7492371
  56.1071205  48.4100533  76.2930298  48.6309509  57.3747559  10.9528189
  49.4531822  57.7820511  10.6802769  47.9535141  57.9863243  10.6642094
  11.8332176  45.8039703  67.1541061  12.4166880  45.0729790  67.3576889
  12.2699661  46.2671318  66.4392929  74.9364395   6.9170737  40.8431854
  75.4106064   7.5418973  41.3918152  75.2054749   6.0587020  41.1703758
   9.5895472  17.2271996  54.4601097   8.9849319  16.8540020  53.8187065
  10.4555483  17.1094971  54.0696983  56.4157867  35.2022324  -0.0858091
  55.9764748  35.8412094  -0.6470077  55.9840393  35.2926941   0.7636860
  82.0476303  65.6011047  37.8782158  81.5088577  65.3151474  38.6159096
  82.2770386  66.5068588  38.0860863  81.3243561  29.9702129  54.6910782
  81.7636795  29.1676273  54.4098587  81.9536972  30.3965149  55.2728310
  34.1375847  41.5911255  88.2492599  33.6681824  40.7648468  88.3639755
  34.5592537  41.5102692  87.3937531  72.8595200  32.0146332  48.7423706
  73.4146576  32.5365753  49.3217049  72.5057144  32.6464767  48.1164131
  21.8965702  45.9386978  19.2621346  22.4433403  46.6040421  19.6799736
  21.9724178  46.1200981  18.3253460  16.2815704  45.0790749  77.9747849
  15.3285713  45.0593071  78.0621567  16.5669765  44.2137642  78.2680588
  45.4573746   2.9992154   5.3005056  44.7942352   2.3343565   5.1149302
  45.9306755   3.1024003   4.4749312  45.7254601  46.9453850  67.8761520
  45.2402000  46.2371368  68.2994003  45.5624275  46.8219757  66.9410477
  13.8247690  70.2501602  81.3519211  14.4971657  69.8260345  80.8187790
  13.0628195  70.3074417  80.7753906   1.3229332  53.5467606  23.2387161
   1.6440148  52.6456337  23.2720375   0.6058784  53.5222511  22.6051044
  80.3747711  12.0938740  86.4716110  80.7850189  12.0115643  85.6107101
  79.9852448  12.9682274  86.4686966  30.9935665  36.1874161  16.4047089
  30.0866241  35.8889809  16.3367081  30.9285679  37.0700760  16.7692871
  58.3009796  13.9863071  65.1041641  58.0989418  13.1781292  64.6327133
  57.4738922  14.2365561  65.5159149  33.1798744   9.2451029  73.3017197
  34.0053596   9.5886192  73.6434860  32.5124321   9.8378954  73.6471939
  41.0990639  51.0575752  81.0151825  41.9030075  51.4980087  80.7396393
  41.2470436  50.8431625  81.9362488  50.1574783  17.6080875  28.0349655
  49.8343163  18.2058525  27.3608170  50.5790672  18.1779289  28.6782207
  32.5417557  46.7602158  81.6557388  32.4171181  45.9634018  81.1401901
  31.6551933  47.0360413  81.8884659  52.0754128  48.0214157  77.8843994
  52.4671478  48.5477676  78.5813370  52.7984657  47.4909821  77.5496292
  86.0266647  70.2216339  82.0387878  86.9672089  70.3994293  82.0381927
  85.9159851  69.5155640  81.4020386   9.1166105  58.9887085  16.2738838
   9.1410093  59.9188271  16.4986305   8.4179144  58.6285667  16.8201027
   9.5433283  63.9694405   8.8714380   8.8363705  64.1515427   8.2523403
   9.8355255  63.0857010   8.6481447  68.6079788  58.0998192  55.5863037
  68.0850449  57.6285095  56.2348671  68.5922699  57.5377274  54.8116798
  43.5600891   2.2499154  43.6140976  43.7226143   3.1172137  43.9850578
  43.6852760   1.6482350  44.3479500  59.1110420  42.7709541  17.6381512
  59.0393448  42.1831589  16.8860970  60.0485344  42.9482079  17.7150860
   2.5877092   6.6531701  60.7440910   2.9400182   6.2787247  61.5514946
   3.2516954   7.2823777  60.4622192  18.0101929  33.6265984  52.8820190
  18.1503448  34.3355026  52.2542877  18.0640259  34.0508537  53.7383728
  20.3682175  50.0143127  65.9539490  19.5332012  50.0016403  66.4217300
  20.9018555  49.3557014  66.3985748  65.2921066  50.7565460  35.5758286
  66.1940384  51.0047798  35.7786484  65.0412750  50.1647949  36.2851524
  70.5960846  62.7191391  68.1549683  71.3704910  62.2876282  68.5159760
  70.2598038  62.1027145  67.5044556  34.3365326  60.8924637  20.6009197
  34.4707527  60.7703972  21.5407677  33.5996857  60.3198509  20.3878441
  86.4206161  25.7564754  48.4829712  86.0421066  26.0241108  49.3204269
  86.8866959  24.9438553  48.6795654   1.3711711  41.8819504  28.6671448
   1.2480984  41.9723892  27.7222080   2.3180873  41.9443359  28.7924061
  65.6843185  54.5487556  61.8879700  65.6820145  53.6896172  61.4659462
  64.8061905  54.8954811  61.7301598  33.9860687  56.1956367  57.1821365
  33.5290146  56.6566238  57.8855743  33.3368340  55.5836487  56.8354416
  56.2001266  55.2345314  62.3215904  56.9076767  55.7327309  61.9124413
  56.6363678  54.4803619  62.7180138   9.7113237  45.3599052  64.7250824
   9.9890127  46.1813583  64.3197021   9.5915852  45.5774879  65.6495056
  14.2124109  39.0994034  69.2698822  13.9780779  38.3810883  69.8575439
  14.9983950  39.4815559  69.6602936  61.5436096  68.2670059  27.8111973
  60.8812218  68.9548340  27.7450848  62.2990379  68.6994553  28.2093735
  48.6322708  36.9640541   3.7331612  49.5313454  37.1703568   3.9887745
  48.5426712  36.0271530   3.9075649   2.7976811  37.7387314  54.4418297
   3.3814533  38.4969864  54.4196510   3.2010858  37.1443024  55.0744019
  78.6373367  61.7196693  30.3725147  79.2077713  61.7500305  29.6044579
  78.8697586  62.5008278  30.8745136  53.6262627  66.1176453  73.4317017
  52.7617874  66.2915878  73.0593338  53.9507256  65.3623428  72.9413147
  64.9618454  44.8338585  36.0720253  64.3807144  45.1773415  36.7506599
  65.2239914  45.6046028  35.5685768  53.2672501  43.9326057  22.5414257
  52.4484253  44.3138885  22.2245903  53.7330284  43.6714630  21.7470150
  66.8377762  53.6715431   1.2011893  67.6481018  54.0116844   0.8218258
  67.0330124  53.5715981   2.1329231  31.4250469  62.2670517  39.7853508
  31.3668785  61.3924522  39.4007416  32.1409912  62.6900406  39.3112869
  46.7350311  15.8905392  74.7923203  47.5071449  16.2298317  75.2450333
  46.7310104  16.3467579  73.9508438  18.9564972  58.6088829  41.9637871
  18.0984230  58.7683220  41.5706978  18.7897339  58.5971222  42.9062729
  36.2694130  63.4614906  10.9569788  35.4753838  63.5032806  11.4899015
  36.7947006  62.7722473  11.3634825   3.6504347  18.8395252  56.9403992
   2.8056717  18.4211426  56.7743759   4.1905055  18.5952778  56.1888008
   4.2107921  15.0581942  56.7803040   4.6799927  14.2300463  56.8815575
   3.6954184  15.1411362  57.5826378   0.7806460  64.1007385  79.4680023
   1.0123450  63.1724854  79.4977875   1.0805527  64.4495163  80.3074341
  81.3468094  11.8125677  21.8086071  81.0088806  10.9226303  21.9088364
  80.9688492  12.2964067  22.5429649  67.5177689  42.3055916  78.9404678
  67.2708740  41.9665794  78.0800323  67.4139633  41.5592613  79.5307617
  63.2558327   3.6004770   2.2691152  62.7227631   4.1371660   1.6825730
  63.4029503   4.1560154   3.0345995  55.7704811  45.8660660  31.2398567
  55.0521049  46.0864944  30.6469135  56.5605011  46.1259384  30.7659721
  43.6458588   6.4848399  62.4968872  43.6052628   6.9541221  63.3301659
  44.2167511   5.7365122  62.6710091  68.1183090  55.5558395  41.9086533
  67.7268753  55.9747734  42.6751442  68.9743652  55.2535057  42.2119598
  52.6901932  56.2531738  69.1015244  53.4496689  55.9201660  69.5795746
  52.8787460  56.0548897  68.1842651   7.5009551  22.2405014  78.5174866
   8.2006063  22.0683765  77.8873367   7.9583435  22.4609871  79.3289108
  53.4307632  58.5782738  64.2332001  52.6957436  58.1599236  64.6814804
  54.1028137  57.8981094  64.1889496  53.8075600  50.5661354  24.0151901
  53.4788132  50.2912598  23.1592693  54.6478310  50.9838066  23.8261738
  43.9237213  44.1165352  32.0638504  44.5533028  44.4162598  31.4080887
  43.2205429  44.7653236  32.0348930  59.9332886   8.8193884  20.2108059
  60.4914780   9.5039959  19.8420639  59.1852074   9.2914457  20.5765495
  12.4087858  18.7108536  42.7455139  12.1691360  18.6411171  41.8214264
  13.3658161  18.7288227  42.7440567   3.2392488  35.1882401   4.5285096
   4.0372610  34.9716263   5.0106802   3.2326872  36.1447792   4.4936118
  32.9479752  57.4568558  67.2187347  33.8270531  57.6330757  66.8834686
  33.0799255  56.8020859  67.9043732   8.6292181   1.9375178  75.0510864
   7.9917021   2.4760194  75.5199356   8.6099033   1.0945127  75.5040741
  72.2938843  39.8822250  45.4430275  71.8620224  39.3522644  44.7730522
  72.9947205  40.3357964  44.9746895  77.0439453  29.7680645  25.5220242
  76.7683563  30.6591911  25.3071499  76.8609085  29.6797314  26.4573994
   3.1826098  55.8381119  87.1356659   3.3388548  56.4469833  86.4137955
   3.4792123  54.9910202  86.8029633  60.9726410  21.9782887  46.3537445
  60.7788582  21.6384621  47.2273560  61.9225807  21.8956966  46.2699013
  15.8207636  21.0663891  73.6023178  15.0371981  21.3262863  73.1178513
  15.6766710  21.4003258  74.4877319  69.9453201  57.4452438  37.6029053
  70.6649551  57.5935822  38.2163811  69.2713699  57.0100174  38.1250153
   9.5381298  62.8324890   5.4062176   8.7346191  63.2749786   5.6797252
   9.3740444  62.5776176   4.4982810  45.7834740  65.9003601  80.7617264
  46.2007942  65.4369736  81.4879150  46.3082314  66.6931076  80.6503143
  62.3277321  22.3135643  70.9027328  62.5401764  22.4654675  71.8236160
  61.4669342  22.7156124  70.7860336  67.4514465  49.9316559  43.1513481
  67.1681137  49.0249405  43.2689285  68.2298203  50.0127525  43.7025299
  82.7530365  37.8829193  58.9484978  82.6259613  36.9511375  58.7699890
  83.6170044  38.0804214  58.5868416  49.2769241  43.9963150  86.9027100
  49.8478622  43.8488121  86.1487198  49.3639755  44.9309998  87.0898438
  77.3532333  14.6273842  55.9729233  77.4633026  14.5089521  56.9163704
  77.4657898  15.5678616  55.8348465  10.1502495  47.8315392  63.4609795
  10.5434179  48.7011948  63.5340996   9.9546356  47.7347107  62.5289993
  72.0306625  69.0804672   5.8228650  71.1775894  69.4926529   5.6864839
  72.5959320  69.4742813   5.1583223  44.5295258   1.6007338  72.2793274
  45.4029884   1.4477351  71.9189301  44.2381096   2.4126561  71.8644867
  45.0813751   0.7473642  84.6686096  45.5952606   0.7712515  83.8614044
  44.3308182   0.1917622  84.4583664  35.2745399   9.5400715  61.6352005
  34.5179443   9.5684280  62.2208519  34.9331932   9.8286886  60.7887878
   4.6524715  35.7538643  77.8346329   3.8069434  36.1872406  77.9508286
   5.0612669  36.2182465  77.1042480  62.1625671  47.5200157  83.3887100
  61.6786804  47.5308952  82.5629044  61.5706139  47.9311790  84.0186081
  85.2727661  66.1279373  87.6092529  85.2350464  65.2598038  88.0106888
  86.0211563  66.5531387  88.0279999  57.6908493  46.0332603  12.0739727
  58.3040009  45.4719086  12.5484867  58.2045555  46.3904419  11.3495712
  74.3024368  21.2248116  57.6847115  74.7575989  20.4043560  57.4952011
  74.7813339  21.5991154  58.4241638  58.1323776  46.1007462  66.0827255
  58.0234299  46.3329468  65.1605301  59.0383034  45.7986908  66.1482468
  15.7085924   1.0313410   7.4641938  15.9309044   1.7804716   6.9113717
  15.7597923   1.3697730   8.3581028  67.7928391  50.3062859  78.6490707
  67.7677765  51.0187187  79.2878571  66.8763809  50.1653175  78.4114380
  36.0180397  63.1342392   1.7403704  36.4490891  63.8962288   2.1274066
  36.0463066  62.4683914   2.4274499  19.6321983  65.4241943  53.3958511
  19.8240185  65.0746765  54.2660675  20.0001678  66.3077774  53.4061699
  74.1344528  47.0413628  15.5785904  75.0510254  46.8536263  15.7807856
  73.9028702  46.4041557  14.9028950  57.3015289   9.4923677  30.4488144
  56.6525040   8.7890882  30.4686108  56.8777695  10.1955748  29.9567184
  52.4956093  42.4225807  77.8234711  51.9343338  42.8963737  77.2096863
  52.5082550  42.9704018  78.6082993  74.8115158   2.9683657  46.5515671
  73.8591614   3.0335424  46.4808121  75.0198593   2.1057041  46.1929016
  63.0429764  44.0398636  20.7433701  63.9679070  43.9041748  20.9490948
  62.7418861  43.1899529  20.4220791  44.7865982  61.4268341  88.7556534
  44.7097015  60.9552574  87.9262314  44.2669945  62.2206726  88.6288910
  20.9758110  61.1454086  57.9057198  20.0902214  61.0567932  57.5534286
  21.3958759  61.7915344  57.3380051  14.3040190  69.3450623  44.9504318
  14.6981096  68.5482330  44.5954781  14.0462952  69.8491287  44.1786003
  10.0414133   1.4158695  35.5378151  10.7376776   1.7054025  34.9482231
   9.2316322   1.6695638  35.0949516  13.1454983   5.4224596   2.3285005
  12.4044285   4.8218637   2.2489271  13.5100937   5.4713922   1.4448105
  50.2433090  31.5687752  31.5746479  49.5684128  32.0560417  32.0472107
  50.3639412  32.0558739  30.7595310  57.6112404  37.2214699  80.3752975
  56.9962578  37.9122505  80.6219788  57.5277252  37.1549225  79.4240723
  83.9414215  30.7862930  59.2045593  84.4543381  30.9708748  59.9913788
  83.0307693  30.8717556  59.4867706  60.1159172  24.3782043  18.3624935
  59.1651154  24.4007950  18.2543316  60.4113045  23.7085571  17.7456074
  85.5622025  61.6193733  64.4051208  85.4605255  61.8612785  63.4845924
  84.8864822  62.1214104  64.8607407  45.3605881   7.7452865  50.2002792
  45.8411026   8.5514393  50.3885765  44.4551697   7.9450364  50.4380836
  48.5444069  34.5733681  65.9770660  48.8700180  35.2127724  65.3435287
  47.6617622  34.3625679  65.6725464  17.9409351  67.1936646   2.6866472
  17.8879395  66.8484268   1.7954493  18.4474812  66.5390320   3.1673720
  59.5874138  16.5931644  61.8961143  58.8293953  17.1718178  61.8136292
  59.5453110  16.0314903  61.1221771   6.0280676  62.8069305  47.9673576
   6.9785118  62.7099266  48.0263214   5.8043165  62.4544678  47.1060028
  60.0920525  32.2481308  85.5542908  59.4463043  32.6202278  84.9536362
  59.8569527  32.6059608  86.4104004  11.5479364  26.9101086  31.4371948
  12.1508970  26.6420593  30.7437820  10.6937180  26.5878906  31.1495895
  61.4125786  68.1631927  82.0218048  61.9051857  68.5959854  82.7191315
  61.4030418  68.7982254  81.3056488  32.8202171  35.3631172  10.7795181
  32.2082253  35.4719658  10.0516100  33.2506332  36.2142982  10.8598871
  32.3360367   4.7039943  27.9535599  32.5656052   4.0547271  27.2887402
  33.1108055   4.7581506  28.5130501   0.1982416  14.1133289   1.4552581
   0.9424418  13.5475540   1.6609186  -0.5490808  13.6886368   1.8764201
   1.4852079  41.2429428  19.4998703   2.1819472  40.6490746  19.7793446
   1.3116893  40.9977112  18.5910320  48.3695946  52.3821411  67.6748123
  48.3330498  51.5422478  67.2171249  48.4835014  52.1481857  68.5959625
   2.1716154  35.8435211  43.2566338   2.3572454  36.4503670  42.5400391
   1.7530417  36.3844872  43.9262505  38.5938759  49.6550331   0.7083065
  38.0196304  49.4748878  -0.0360195  38.7381363  48.7992668   1.1121404
   0.2649273   7.8098979  14.9852333   1.1581348   8.1503353  15.0353785
  -0.0234565   7.7588706  15.8965302   4.9616661  23.1368294  87.1134644
   4.9860716  22.3111591  87.5970993   4.2597651  23.6373863  87.5294113
  29.5109634  14.4503260  79.7574463  29.3202038  15.0587988  79.0435791
  29.2262821  14.9105768  80.5469742   9.5698986  35.3412895  49.3280106
   8.7660208  35.6113625  48.8840828   9.5971231  35.8767967  50.1209335
   0.8739951  19.6835690  71.0145264   0.7830535  20.0377884  70.1299438
   0.3342537  20.2568989  71.5587692  69.2287750  11.8048916  36.1449547
  69.7504807  12.1008902  36.8909035  69.5779419  12.2934427  35.3995476
   4.7605362  67.6250076  23.6113510   4.2293119  67.8753128  22.8554535
   4.1593447  67.1397934  24.1764793   2.7784631  60.6379166   4.6577249
   2.1120496  60.5540962   5.3397064   3.0784471  59.7419357   4.5045681
  83.6153717  38.6042137  88.2433853  83.5665207  39.5445442  88.4155121
  84.4766235  38.4780426  87.8451920   3.2922153   1.5123868  63.8971252
   3.3273461   1.5509001  64.8529053   3.9466553   2.1480818  63.6075859
  62.0786667  46.7140694  63.5854874  62.9828377  46.8614006  63.3079910
  61.5647812  46.7991295  62.7824211  38.0925102  61.1540260  37.5134163
  38.4451485  61.8096237  36.9116936  38.7427406  61.0971832  38.2135582
  16.3685970  12.4106083  28.8592396  16.0085106  11.8494186  29.5459976
  16.9424438  11.8338423  28.3549862  47.7655525  36.5665550  71.3875046
  47.1289024  37.0240211  70.8382950  47.2821846  36.3498573  72.1847687
   5.4766479  62.2069130  32.2783661   5.2080159  62.4927788  31.4052391
   6.4101610  62.4140816  32.3215561  20.0745487   5.4467597  29.3829651
  19.3053246   4.9106522  29.1903152  19.7459793   6.1402354  29.9551239
  85.7406998  45.1658936  56.6004372  85.6766434  44.8061371  57.4851418
  86.1077347  46.0412750  56.7238426  22.7973843  19.0944500  20.9777584
  22.4260921  19.5032749  21.7595749  22.1393147  18.4543648  20.7067070
  60.3287506  37.2768669  76.7889938  60.4581299  37.1914330  75.8444290
  59.7495575  36.5500450  77.0181122  78.7169189   0.7535641  17.8788357
  78.5185776  -0.0559416  17.4081001  78.2503281   1.4336225  17.3929863
  83.2808075  13.7307148  -0.0852509  84.1051865  13.9086800  -0.5379723
  83.5434189  13.4763536   0.7993759  50.0652847   7.0014534  34.4803238
  49.7614365   6.4978032  35.2354698  51.0200768   6.9556003  34.5303230
  60.1419983  47.1399422  80.8566284  60.5645599  46.3976402  80.4245911
  59.2624016  46.8260117  81.0663528  73.3250809  37.5609589  77.8992920
  74.1352081  37.9952164  78.1663895  72.6910782  38.2721977  77.8075638
  83.5872726   0.1961168  25.3227768  83.1244583   0.7789331  24.7208138
  83.1514359   0.3265013  26.1649609   9.2434416  43.6478195  17.0578594
   8.9517231  44.4308205  16.5909061   8.7033014  42.9419289  16.7026138
  11.3713388   2.3842921  54.5407600  10.6886101   3.0004041  54.2752075
  11.8312979   2.1718407  53.7286415  38.0318680  60.9671669  43.8689537
  37.5521317  61.7176933  44.2193718  38.4050484  61.2842331  43.0464973
  46.9729652  16.0960712  71.7910843  46.7981949  16.5295925  70.9557724
  47.3598213  15.2549324  71.5480652  22.7540283   3.6731284  19.6230297
  23.1948833   2.9628761  19.1567478  23.4662628   4.2137284  19.9646511
  25.4833965  61.7914124  50.7170258  25.6528130  62.3532524  51.4732437
  26.2441730  61.2121162  50.6738167  17.9405670  45.7894592  38.5547447
  17.3978252  45.1728706  38.0633354  18.7799683  45.3409271  38.6569862
  12.8244209   0.8631986  86.8172989  12.3084745   1.0199220  87.6081696
  13.6321831   1.3575647  86.9564133  47.3065948  50.3659210  43.9070930
  47.2209854  50.0977173  42.9922333  46.5340080  49.9995956  44.3373833
  27.0958424   6.0452709  13.9366550  26.8533497   6.5546031  13.1633434
  27.9455624   5.6640458  13.7155781  86.2411957  71.1967697  25.1529541
  85.3070755  71.4039154  25.1254902  86.4741821  71.0198441  24.2415581
  24.9246960  48.6839447  84.0094528  24.4140854  48.0608978  83.4924240
  24.9233036  49.4862595  83.4874115  45.4513435  43.6540527  87.1599655
  45.9737473  43.0201035  87.6513214  44.8273773  43.1202545  86.6680679
  13.1687965  25.9787102  29.4537735  13.9832344  25.4773293  29.4145470
  12.9734182  26.1900215  28.5408630  31.0848274  13.5283070  83.1566010
  31.9773045  13.3539677  82.8577271  30.8844090  12.8030529  83.7482681
  18.3724899   1.2379627  83.3677139  19.2983513   1.1927863  83.6063995
  18.3143997   0.7578551  82.5416641  56.8298454  30.3836823  80.3474426
  55.9865837  30.0450573  80.6482391  56.6072807  30.9796848  79.6322708
  13.5615501  54.6791954  46.9748001  14.2162361  55.3734703  46.8999557
  13.2122383  54.7738991  47.8609390   1.1864113  53.2565842  43.4667778
   1.6017081  52.5294647  43.0030365   1.7390059  53.3971558  44.2356148
  76.0355682  70.3906708  34.5550690  75.4577866  69.6446533  34.3942604
  75.5346069  71.1501083  34.2575340   7.6081767  47.2661819  74.2292633
   7.3516159  47.4394646  73.3235168   7.7183361  48.1342621  74.6172562
  10.1030102  28.7715282  66.8969879  11.0080242  28.4902592  67.0314102
   9.6542845  28.5300617  67.7072754  12.0467663  38.0207596   9.1859684
  12.6228266  37.3167381   8.8880739  11.4729080  37.6046638   9.8292274
  59.7273712  21.1474380  29.9242802  59.7835579  21.8691406  29.2980061
  60.2538567  20.4499092  29.5337677  53.0938911  64.7416763  76.0162735
  53.4160004  65.1960907  75.2378235  53.5755463  63.9145622  76.0272598
  59.4982719  46.7862053  88.3905411  60.2578545  46.6431961  88.9551773
  59.2976456  45.9203835  88.0351028  84.0185471  55.7289429  64.1499329
  83.9055328  54.9795303  64.7346039  84.9428329  55.9625015  64.2358322
  76.4753876  19.9144230  62.7956886  75.9701004  19.1499710  62.5190544
  76.3633575  19.9445457  63.7458305   2.3775001  55.4330330  21.1391850
   3.0907505  54.9293060  20.7470551   1.8844061  54.7916870  21.6508141
  47.6931419  65.9253006  43.1721230  46.9903641  66.5014877  43.4726868
  48.0797729  65.5793686  43.9765358  23.6191998  52.7765083  69.7498627
  23.6632500  52.1277618  70.4523010  23.8489456  53.6037521  70.1730804
  64.3002930  34.4913750  80.2499619  63.5921021  35.0474930  79.9252625
  64.5706482  34.9027214  81.0708923  52.5219612  71.2274933  32.3830795
  51.7236595  71.3943329  31.8819656  52.3099518  71.5105209  33.2725601
  41.9714165  69.4288177  14.0526676  42.0341606  68.9563904  14.8827896
  41.0385246  69.4143982  13.8387976   3.4760618  17.7934227  89.2464523
   4.2018499  17.8622169  88.6261902   3.1810672  18.6954842  89.3709412
  75.2076340  64.5113373  83.0240784  75.9696960  64.8013382  82.5226822
  74.4695282  64.9734879  82.6267776  20.1934357  43.0676270  63.4008904
  19.9963856  42.2732544  62.9045258  21.0376472  42.8881760  63.8148193
  30.4900265  18.9795914  67.0613174  30.7088070  18.9813137  67.9931793
  29.6337757  19.4049969  67.0155334  30.2574825  63.7162704  36.7729721
  29.7603397  64.1864853  37.4422836  30.3037472  64.3259354  36.0364952
  26.3953857   9.0612507  76.4818344  25.4859791   9.2869129  76.2861633
  26.8243999   9.0326576  75.6266327  82.6322479  15.5644188  57.1588478
  82.0392227  15.1926231  57.8117790  82.4809036  16.5083122  57.2077370
  45.6649666  69.9914856  37.2622566  45.4044991  69.4918900  38.0360680
  45.2895660  69.5071487  36.5269165  59.7240219  62.5653381  58.5290756
  58.9359207  62.7998772  58.0390587  60.4296875  62.6112289  57.8839722
  75.1670532  60.0863342  48.8399353  74.8076630  59.9486160  49.7163506
  74.7397156  60.8842125  48.5284843  71.2714005  40.8943176  67.0857773
  72.1117783  40.4626427  67.2396164  71.4438782  41.8208466  67.2531891
  23.0763741  42.7208252  69.6555710  22.7263012  42.7240677  70.5464554
  22.8933010  41.8396912  69.3294983  17.5743504   5.4615231  47.3824997
  18.1914597   5.9102378  47.9604797  17.4003658   4.6276064  47.8190155
   6.1210260  54.1873817  76.5747681   5.5998659  54.6669006  77.2187271
   6.9661427  54.6367836  76.5680618  44.3978882  27.1619492  78.1421738
  44.0009613  26.5046463  77.5706558  43.9388390  27.9741364  77.9280396
  67.5263290  59.9743652  88.4125443  66.5939026  59.8563385  88.5938644
  67.6433487  59.6313095  87.5266266   9.5503941   0.8157102   5.1653581
   9.2869072   1.4535459   5.8286619  10.4689121   1.0192212   4.9888926
  59.1801414   6.6015749  77.6666946  59.3142242   6.8544431  78.5801010
  59.8180389   7.1217260  77.1780624   0.0786888  23.3070011  27.1129494
  -0.1013065  24.2326527  27.2772675   0.2057314  23.2521610  26.1658039
  81.6118164  12.0118656  69.9792023  82.5105591  11.7073727  69.8535919
  81.3798447  11.7168465  70.8597641  16.1360035  24.8392601  11.3858938
  17.0513535  24.5841446  11.5011396  16.0941429  25.7367973  11.7159042
  60.1278725   4.1238399  64.6629562  59.6533012   3.8361700  63.8830414
  60.7079277   4.8171706  64.3482208  16.8153248  12.7285070  59.0551910
  16.5071869  13.5713606  59.3881760  17.2870655  12.9465380  58.2513504
  74.5715485  32.6144524  88.3196945  74.2259445  31.7353554  88.1648483
  75.4407654  32.6041069  87.9189682   1.1988082  17.3499775  17.9831314
   1.9766170  17.8127594  17.6715565   1.1333679  17.5873337  18.9081249
  18.5799847  70.7745438  15.9318037  18.5952454  70.0066833  15.3604994
  19.3506813  71.2802811  15.6739473  10.6522350  49.0490036  36.3888550
  10.3825092  49.6756248  37.0602875  10.5508204  49.5235558  35.5637817
   3.2160606  51.1442032  67.6923218   4.1484542  51.0236740  67.5124664
   2.9247499  51.7750931  67.0340271  42.8553162   8.7400894  22.3754578
  43.7226791   8.3887205  22.5765781  42.4367065   8.0583687  21.8498573
  79.3341446   1.6339619  83.2460175  80.2362900   1.3904762  83.0384445
  78.8514175   1.4791515  82.4340820   6.4943242  15.9296074  11.5865507
   6.1239533  16.4233131  10.8549004   5.9656672  15.1328144  11.6298485
   7.2109456  52.4124451  78.2759399   6.6513281  52.9403877  77.7064362
   7.1904759  51.5377350  77.8877335  40.8125076  58.4107933   0.7429149
  41.5725136  57.8354073   0.8298218  40.2190933  58.1306763   1.4397823
  10.6666183  47.6864433   0.4718685  11.4312954  47.7017899   1.0474248
  10.9885130  47.3028603  -0.3439000  79.6529236  18.7788963  82.6504059
  80.4601669  18.4833126  83.0713806  79.6170197  19.7176762  82.8338089
  55.4298058  18.8340397   2.5115721  54.5564117  18.7259083   2.1351111
  55.9473076  19.2250595   1.8076364  34.0443344  54.5301704  15.0597200
  33.4387016  54.1441498  14.4269257  34.5160408  55.1986008  14.5628023
  67.4817963  21.1570034  15.0009975  68.3968277  20.8762074  14.9907026
  67.3580170  21.6008739  14.1620169   0.0112295  16.9616776  85.1449509
   0.8818119  17.2627354  85.4051132  -0.3509990  17.6871624  84.6363297
  32.7766190   4.7447515  68.6836548  33.3846207   4.1174970  69.0749588
  31.9961491   4.6982203  69.2358627  42.8329468  11.3961000   8.3013334
  43.4487267  11.7829218   8.9237614  41.9830856  11.7620821   8.5463352
  69.9644241  41.1920967  29.4794922  70.0801697  40.6152458  30.2345257
  70.8541870  41.3663826  29.1726036  19.2206287   7.1675515  60.1114655
  19.3643227   6.2746167  59.7980156  20.0385475   7.6246362  59.9157219
  77.4053574  50.2398605  25.3163013  77.0353546  50.3237038  26.1951065
  78.1336441  50.8608627  25.3028088  11.0364094  33.4374504  16.8598461
  11.8428822  33.9409866  16.7490063  11.3196449  32.6176376  17.2647076
  82.5303955  66.8639984  50.6949387  82.7735901  67.7618561  50.4692421
  82.6216660  66.8232346  51.6469040  36.5908508  16.1344738  18.2013302
  35.9142723  16.2853718  18.8614101  37.3199120  16.6916046  18.4739227
  82.9493561  42.8385162  59.0279846  83.8447571  43.1085930  59.2318268
  82.9747772  41.8821487  59.0587387  12.6164370  46.5148201  34.5824547
  12.5932388  47.4497986  34.7861786  12.1555328  46.4402504  33.7468452
  65.5421295  64.5185471  61.8560371  65.3762360  63.8153000  61.2282219
  64.9795456  65.2364731  61.5656776   1.0464658  54.3422432  84.6839676
   0.9758687  55.2944069  84.7520370   1.9356495  54.1902771  84.3638306
   2.3883896  21.9837646  77.5352402   3.3437955  22.0423393  77.5359421
   2.1953163  21.2255287  76.9838486  68.4878387   2.1813648  66.7464142
  68.0051804   2.8829017  67.1835861  68.0250397   1.3812206  66.9950562
  77.0376358  54.5708427  26.6257286  76.5582199  55.3023453  27.0146885
  76.4226761  53.8379707  26.6566181  74.6402664  64.0145035  22.3372746
  74.0289764  64.6357880  22.7329540  75.2809067  64.5636597  21.8853359
  20.8278942  61.7263641  13.4366379  21.6557846  62.1882324  13.3043213
  20.6628513  61.2868538  12.6024790  13.9739208  12.0222206  79.2896042
  14.4063692  11.2831364  79.7173538  13.6446199  11.6629324  78.4657669
   3.1687806  53.4435577  69.9526443   2.8194008  54.3346863  69.9601593
   3.0459721  53.1457405  69.0512772   5.5271902  43.0641899  80.4767075
   5.0668111  42.8768845  81.2947540   5.3607688  43.9929123  80.3154449
  76.1631012  58.8688393  80.2977524  76.4087982  57.9991760  80.6132736
  75.6335373  59.2390594  81.0039597   5.6467886   9.0601730  12.7883854
   6.0973454   9.8926573  12.9305124   5.6678443   8.6276436  13.6420288
  48.2613678   3.5338326  18.3334274  48.1960182   4.2638330  17.7177486
  49.1619873   3.5719466  18.6553955  37.1992874   2.9695168   5.9471116
  36.5567741   3.5121300   6.4042578  37.8634949   3.5886557   5.6442509
  77.7693024  50.7102356  84.1134186  78.0070343  49.8839493  83.6927490
  76.9654541  50.9819450  83.6704254  81.5459595  28.2405930  33.6762352
  80.8942184  27.7502155  33.1752396  81.8546524  28.9154720  33.0716896
  37.4362373  11.7632065  11.6305647  37.1976967  12.2836161  12.3977060
  38.1654968  12.2404222  11.2347431  19.9666061   3.0912750  32.6365852
  19.1392918   3.3779728  33.0233498  20.6378536   3.4276974  33.2302818
  24.0178127   2.1501937  45.9181747  23.5455170   1.3292646  46.0568962
  24.6949062   1.9317105  45.2778282  56.1106148  13.1539335  69.7556000
  56.2731514  14.0401392  70.0787888  55.3393860  13.2409973  69.1953659
  63.7668991  30.0375309  36.4588509  63.9021988  30.9742413  36.6020317
  63.6416206  29.9553852  35.5134468  53.3058090  40.8802795   1.6244383
  54.0157471  40.2875290   1.3777298  52.6105881  40.3029976   1.9401072
  35.4406013  30.4036350  77.1912155  35.3800621  29.4632797  77.3594284
  36.3801117  30.5757256  77.1284561  62.9544830   1.6849186  36.9864464
  62.1109543   2.1343067  37.0388336  63.0441971   1.4508454  36.0626526
  38.1799316  53.0171890  38.3774872  37.3575325  53.3104286  38.7697906
  38.8575859  53.3446045  38.9689369  22.5555706  42.1568604  72.4103394
  22.8850384  41.7550583  73.2142258  22.5528393  43.0959473  72.5956421
   2.2684119  29.5069523  71.3836594   2.9666703  28.8641472  71.2592926
   2.4903038  30.2204056  70.7853470  54.7064323  27.5926895  39.5167961
  54.2063446  28.1494293  38.9199867  55.2435532  28.2038498  40.0209923
  63.3319511   2.0314295  88.4498596  62.5148392   1.5616224  88.2829895
  63.6038475   1.7376907  89.3193512  35.8917503  13.8246908  52.3908386
  36.0835800  12.9355021  52.0928879  36.0283279  14.3712854  51.6170082
   5.2890892  69.0111389  29.4413776   4.9544282  68.4772873  30.1619549
   5.0759659  68.5109024  28.6536160  63.5096779  44.1013985  40.6611710
  62.7960854  44.1723747  40.0271530  63.1010132  43.7248955  41.4405746
  52.9187164  38.8196602  87.6133957  53.5857201  39.3950005  87.2387924
  52.3940430  39.3931618  88.1720047  45.5319519  64.7754745  56.6240005
  44.8489990  64.8005905  55.9537926  45.1188126  64.3421326  57.3708344
  39.5990677  36.9762383  13.5993118  39.5613365  36.2667046  12.9579306
  39.9548874  37.7199936  13.1130438  71.5140991  18.7843704  22.6570053
  71.2148285  19.5705032  22.2002087  71.8799820  19.1099110  23.4794292
  47.7858620   0.6495535  76.0044098  47.7145004   1.5578368  75.7108841
  48.3815308   0.2409700  75.3763428  28.1500435   1.9699342  51.4371872
  28.4582291   2.7861564  51.0434418  28.6825905   1.2893847  51.0255089
  51.2787209  45.2931900  41.4794960  51.4360237  45.0820808  42.3997803
  50.4910088  44.7993622  41.2517395  80.7324295  21.3858204  49.3402176
  80.7324066  20.5899239  49.8719864  79.8334351  21.7100277  49.3942909
  47.7197456  25.4106312  75.5335388  47.8730240  26.2849941  75.8916321
  47.0781364  25.5464458  74.8363190  63.2918015  32.4817238  66.6411285
  64.0946808  32.8182106  66.2431335  62.6077881  33.0823097  66.3450623
  52.2696114  10.4046078  28.5506134  51.9332771  11.0200863  29.2019958
  52.0771790   9.5408401  28.9154530  71.6467667  20.8105812  33.6306038
  70.7556076  20.5600643  33.8741531  72.0579910  19.9922657  33.3522491
  86.1395035  19.6747398  83.7352905  85.4210434  20.3052921  83.7847519
  86.9118347  20.1697159  84.0086670  35.4399490  46.1129150  64.4323959
  34.7288780  45.5433769  64.7260513  36.2379913  45.6567688  64.6994095
  40.8367805  42.3991051  24.0563889  40.2229729  41.9175987  24.6110287
  40.6066132  42.1406479  23.1639442  79.3715668  19.1953487   5.3525376
  79.0009918  18.5333881   5.9362445  79.1267929  18.9041786   4.4741659
  18.4035110  10.6479340  71.3002319  18.1769295  11.2872152  70.6247940
  18.5881481  11.1756477  72.0771866  77.5285721  43.4603310  55.6074181
  77.9245300  43.2264519  56.4469109  78.2407608  43.3724823  54.9739342
  21.4179993  71.2316284  24.5275383  21.0597229  71.8881836  25.1248703
  21.9803276  70.6876144  25.0789604  12.7477007   4.6665883  82.9045486
  12.1245575   5.3561730  83.1334534  12.4377880   3.8960886  83.3804855
  52.5812263  63.2840042  23.5827274  51.7152328  63.6436577  23.3905563
  52.7579002  63.5535507  24.4840393  60.1143036  63.5892143  12.9737558
  59.2143936  63.6503830  12.6533613  60.1911087  62.6935577  13.3025894
  29.6398773  27.4873104  27.5883884  29.8543949  28.4079323  27.4378223
  29.8811321  27.3313999  28.5014706  78.4100723  47.6111717  14.1622581
  77.5566711  47.2428513  13.9336042  78.7426834  47.9729042  13.3408251
  57.1646881  36.2633133  70.1080627  57.0531349  37.1862221  69.8799667
  57.2892303  35.8222656  69.2677078  14.1731300  53.2781143  39.3623619
  14.1796083  52.4519310  38.8790283  13.2772141  53.3568954  39.6900215
  68.5455780  56.1022682  83.9835281  68.2888794  55.4767914  83.3059464
  69.3491211  56.5009422  83.6494370  22.2497864  40.0988197  29.0304756
  21.8781834  40.6540222  29.7159615  21.5588875  40.0379486  28.3707905
  15.3616419   4.9340296  31.4862099  14.4216986   4.8667116  31.3182621
  15.6028261   5.7990131  31.1547508   6.6828132  70.4496918  40.2396393
   7.6244340  70.6091690  40.3040581   6.6080489  69.6831360  39.6712799
   2.4947426  23.2931118  81.9450836   2.9643438  22.8370724  81.2467041
   1.7309289  23.6735115  81.5113602  71.4805222  55.9747086  83.4909744
  71.9988327  55.1793137  83.6131897  72.0414200  56.5482025  82.9687424
  12.5201130  55.5739098  74.3895340  12.6490860  55.0406456  75.1738968
  11.7125645  56.0588226  74.5597076  24.8618507  22.0746174  73.6144409
  24.6893063  21.4517899  74.3205185  24.2990131  21.7847462  72.8965149
  25.8081722  67.1513824  18.3732052  26.3202305  67.9381409  18.5604057
  26.0930176  66.5178833  19.0318203  55.4857407  18.0563011  22.1474571
  56.4117851  18.2949753  22.1061325  55.0736008  18.7772446  22.6234970
  24.6677265  50.4315186  71.4876328  24.5985088  49.6397324  72.0210266
  24.9825630  50.1215210  70.6385040  33.4958458  59.7942200  64.3333054
  33.8268242  59.8639069  65.2287598  32.7062912  59.2586517  64.4107971
  34.7646904   6.1909289   6.7710123  34.0411720   6.7547631   7.0445848
  35.5368042   6.5723882   7.1888170  63.1862335  45.3938179  80.5218048
  63.7051811  46.1972961  80.5585175  63.7857819  44.7078323  80.8153992
  55.5286217  21.6232281  17.8025551  54.6013947  21.5735207  17.5701599
  55.7131577  20.7876587  18.2315121  81.1344223  32.8418808  78.8238831
  80.2898178  32.8292732  78.3736343  81.4144440  31.9266071  78.8334122
  63.3889732  36.6277580  75.0779037  62.7364120  35.9406891  75.2133026
  64.0396729  36.2294922  74.4997940  70.3338242  25.8803654  45.7916145
  69.8357239  25.8702850  46.6089439  71.0611343  25.2777576  45.9469223
  18.7412930  51.6468163  77.2434616  18.6294231  52.0043221  76.3626022
  18.2141495  52.2177353  77.8023911  53.4967995  24.8828068  56.2457619
  53.4368896  25.5452614  55.5574341  54.4297333  24.8389111  56.4553833
  41.9308510  27.3009586  85.1160355  42.2947540  27.8516388  84.4228134
  42.0955124  26.4051762  84.8216019  28.8755894  65.8643265  64.8051910
  28.7553692  66.4854889  64.0869064  28.2042904  65.1975861  64.6601334
  26.7069035  22.0978985  13.6240463  25.9341240  21.6533394  13.9724903
  27.2002068  22.3642082  14.3999090  57.7978363  25.7635498  77.8070221
  58.7234573  25.8489075  78.0354385  57.4220390  26.6211834  78.0056992
  16.0560341   0.3682671  54.0192146  16.4465466   1.2364019  53.9188461
  16.7841492  -0.2387087  53.8863182   1.9561471  31.2396297  52.7845345
   2.4654276  30.6464520  52.2322617   2.6134040  31.7486305  53.2590485
   0.1316021  39.5685997  25.7837257   1.0586557  39.5335045  25.5479889
   0.0752072  39.0831299  26.6067505  -0.1009784  66.7223511  56.4732628
  -0.3114697  67.6508484  56.5723801   0.4587718  66.6851273  55.6976814
  47.1448517  63.5538940   5.4379272  46.7500687  62.9772644   4.7838025
  46.4013252  63.9031715   5.9292541   5.8592110  46.9837952  52.5896149
   6.2504377  47.8101196  52.8730965   6.5855713  46.4953346  52.2022667
  17.3885746  49.8211327  31.4564991  17.0967751  50.0317001  32.3434868
  17.9469814  49.0512314  31.5645046   7.3460536  30.9651165  30.9063301
   6.4520373  31.3071175  30.9080276   7.7739849  31.4170227  30.1790829
  56.2451630  66.9027405  18.2709026  55.4528122  66.3855286  18.1263084
  56.4590340  66.7605743  19.1930084  61.0298958   0.3532674  66.0329895
  60.9666176  -0.4647507  66.5260162  60.5701637   0.9952151  66.5740814
   4.4014525  68.3288116  17.7052326   5.0301828  67.9087067  17.1183414
   3.7020838  68.6346893  17.1276894  81.1842194  18.0733948  86.4990005
  81.7862625  17.3716965  86.7467880  81.4148483  18.8016644  87.0757675
  70.0837173  24.8350315  10.9877977  69.4493637  25.1054535  11.6516562
  69.7502365  23.9979630  10.6647797  21.0794601  61.7653732  80.8924561
  20.5657768  62.2133827  80.2204056  20.4777412  61.6715012  81.6309433
  39.1416016  32.6953888  86.5505447  39.4832802  31.8575420  86.8627930
  39.6291008  33.3528099  87.0469055  84.2203522  14.9940681  30.9282265
  83.5237274  14.3383741  30.8964729  84.7706833  14.7234344  31.6631584
  22.7578335   1.4995871  28.8805599  22.2245083   2.2845564  29.0055351
  22.2467518   0.7964689  29.2813721   5.4432955  40.5830421  32.7702179
   5.4005384  41.3748322  33.3063812   6.2080026  40.1113091  33.1002464
  19.9206696  59.3082047  19.2206726  19.9509907  59.0875511  18.2897453
  19.3602886  58.6357994  19.6080685  22.4135303   2.4259911  70.1894913
  22.5600452   3.3434548  69.9592133  22.2271023   1.9963522  69.3546906
  51.7461739  55.1469612  11.7651377  52.2673187  55.0897484  10.9642820
  52.3912277  55.1325073  12.4721956  43.5493164  10.3695908  69.6709061
  43.6703796  10.0452318  70.5633011  42.6210213  10.5980835  69.6229935
  16.8704853  30.0918388  62.4386787  17.5000648  29.7441959  61.8070107
  17.4029789  30.5922756  63.0569382  41.6651306  58.4388580  23.2007065
  41.1803741  57.8340111  23.7623138  42.5708427  58.3730049  23.5033283
  86.0971527  41.9627724  75.3063354  87.0145721  41.9982948  75.5771027
  85.8389816  42.8798714  75.2140656  62.5148430   7.6760893  32.9747963
  62.3285217   8.3800249  33.5960770  63.3115883   7.2651682  33.3103104
  43.0602875  20.7225056  77.1143265  42.6086502  20.8478661  77.9489212
  42.5525017  21.2376938  76.4874573  78.7766800  60.1310196  87.5397720
  78.0316010  59.5862122  87.7932892  78.6404190  60.9554443  88.0066605
  21.2444439  19.1455059  11.2558193  21.1989460  18.2021961  11.0998383
  20.8060398  19.5348015  10.4991932  68.1020279  46.0246239  80.3821182
  68.8037415  45.3736305  80.3753967  68.3135681  46.6123009  79.6567764
  11.8869972  39.2953491  72.7246017  12.5358667  38.6027031  72.8488617
  11.1126566  38.8413124  72.3922195  34.7864723  56.4059029  85.4532471
  34.1436501  56.1710968  84.7840195  35.6112442  56.4886513  84.9745636
  28.5365963  18.5371704  82.8771210  27.9832745  18.2509613  83.6038589
  29.0726643  17.7720966  82.6685028  21.9716873  12.9430637  13.8656349
  21.6566334  12.8523378  14.7649345  22.0543079  12.0435715  13.5489025
  16.8507957  58.6817856  11.5534620  16.8286839  57.7355766  11.4105015
  16.4243088  58.8059387  12.4013567  52.0212059  38.3094482  34.7530518
  52.2881432  38.4924660  33.8522301  51.0851135  38.1192474  34.6915245
   2.4707918  37.7737503  31.7836819   2.8510883  38.2929649  31.0751495
   1.6992266  37.3637962  31.3927116   8.5902576  43.1345100  74.3310242
   8.3564749  42.5296516  75.0351028   9.4914160  43.3918762  74.5257263
  58.6587143   4.6477904  53.0806084  59.3674240   4.2798314  52.5528107
  58.1194344   3.8931146  53.3169823  69.9822006   1.4123918  82.7653885
  70.3118439   0.6795417  83.2854767  69.4277878   1.9051929  83.3703690
  78.0410385  34.8542595  45.8489609  77.1800995  34.8966827  45.4327812
  78.6614304  34.9452438  45.1257210  66.1340332  67.6445084  20.8793354
  65.5417862  68.2634811  20.4523106  66.2901001  66.9684906  20.2198811
  58.2246628  14.6749878  33.2452927  58.4944611  13.7584381  33.3034363
  57.4309464  14.7252731  33.7779388  69.2184219  28.3979073  83.0793533
  69.6464310  29.2174530  82.8315964  69.3287506  27.8300037  82.3167572
   2.7960551  31.6197014  42.1606903   2.5677433  31.5456276  41.2340736
   3.4853709  30.9683418  42.2903366  27.3696976  64.8310852  72.9596100
  27.2319431  64.9787674  72.0239563  28.0626583  65.4462204  73.1997070
  41.5223846   7.8727894  83.3401337  40.6159172   7.6423182  83.1365814
  41.7007332   7.4322395  84.1709976   8.8222580  10.0908232  87.1326752
   8.2439232  10.7305088  86.7172699   8.4952164  10.0190811  88.0294037
  19.5313282   1.8761152  56.8117943  19.0027905   1.4252062  56.1533394
  20.0497169   1.1821377  57.2191048  51.8272247   7.9986305  48.6282730
  52.5412674   7.7180738  48.0558548  52.2609062   8.2666101  49.4384193
  58.4358101  43.7354393  31.9362354  58.4192543  43.6048241  30.9881325
  57.6535072  43.2844887  32.2538338  37.0559311   2.7785230  55.9225349
  37.3569679   1.8714765  55.9761429  36.7880936   2.9951692  56.8155975
  15.1919661  30.5246658  65.8180237  14.6730127  29.9737740  65.2319870
  15.7359076  29.9076519  66.3075638  49.8969307  62.0325241  70.7275772
  49.0727234  62.5022163  70.8552628  49.9481697  61.8913116  69.7822418
  48.8780708  15.1191645  63.6148796  48.6441650  14.5951376  62.8487740
  49.4852600  15.7780342  63.2780724  42.7219276  26.3633652  23.2067165
  43.4764366  26.8271236  22.8435631  43.1020851  25.6343727  23.6969032
  11.0587845  31.3308487  67.4642944  10.8446112  30.4544907  67.1443558
  10.2870464  31.5989761  67.9630508   6.5707321  68.0873032  38.9958572
   7.1453695  67.6943207  38.3389015   5.7018514  67.7414780  38.7916908
  61.5769463   1.8625749  46.1320763  61.5598297   0.9105942  46.2304192
  62.4823341   2.0625651  45.8943596  46.9501762  26.9219246  17.1391850
  47.6581573  26.3194942  16.9109821  47.3591042  27.7873058  17.1279697
  13.0404978  21.7300911  22.3365593  13.5951920  21.3293915  21.6672421
  13.6022043  21.7889175  23.1093845  38.3918266  60.4038124  17.3658142
  38.3635597  61.1246948  17.9949112  38.1582680  59.6296463  17.8780136
  31.9878616   8.7428665  84.8923340  31.3020420   8.4680099  84.2837753
  32.3323288   7.9247131  85.2503815  82.3089218   9.4772530  34.7267685
  83.2502213   9.3101406  34.7742691  82.0758286   9.2784338  33.8199196
  73.4091339  30.7860661  34.5895119  72.7882309  31.0422421  33.9075432
  73.1232376  29.9129066  34.8579941   4.4461770  24.4700661   8.7226772
   3.9119613  24.0014534   8.0813913   4.1334481  24.1551914   9.5707846
  70.8045349  22.2557278  43.9071159  70.9253235  22.8631172  43.1772385
  69.9236679  21.9027615  43.7817116  30.3116341  65.2729874  34.5298843
  29.3605824  65.2381973  34.4273148  30.6281853  65.6412430  33.7050133
  22.8340321  70.1067581  52.8186684  23.1754322  70.2269974  53.7047920
  23.2940941  69.3355255  52.4873466   3.5185521  22.0642548  51.2112350
   3.2622981  21.2321091  50.8136215   3.2736900  21.9750710  52.1322784
   3.6957624  50.5140762  12.7348928   3.0863903  50.3809013  13.4609518
   3.4064858  51.3297501  12.3259592   8.9486513  27.2713356  75.1744308
   9.7401056  27.8075695  75.1266403   8.8120432  26.9655190  74.2777405
  84.9067459  24.2462025  83.0850677  84.4861679  25.0637836  82.8187866
  85.2785492  24.4374943  83.9461136  67.1532288  26.4904442  29.5934486
  68.0360184  26.6014557  29.9464130  67.1759491  25.6401081  29.1545334
  24.8834190  48.7657890  59.1252937  25.0265255  48.0322914  59.7234001
  24.7449341  49.5192680  59.6991577  79.2559128  48.2996483  24.6180382
  78.5921326  48.9684830  24.7862473  79.3867798  47.8736992  25.4651928
  47.2988968   8.0943117   3.4618199  48.1045570   7.6761689   3.7656353
  47.5975571   8.8439417   2.9469514  24.7573338  57.8851624  49.0247993
  25.6360340  58.0281830  48.6731415  24.4211063  58.7651558  49.1944923
  36.5803375   9.2433224  87.4060440  35.9486465   9.7611370  86.9069748
  36.3347511   9.3825045  88.3206711  11.0124741  69.9746933  66.4340744
  10.9106131  69.5839767  65.5662079  11.8254576  69.5990219  66.7719498
  51.6851387  46.8738289  45.6246414  51.0599365  47.4197769  45.1478920
  51.3827629  46.9003601  46.5324402  15.3787460   2.4600942   9.9517851
  15.8076258   2.9480371  10.6547823  14.6091480   2.9847126   9.7310448
  75.5559006  31.0669327  21.5572338  74.6331635  31.2641296  21.3963280
  75.5690842  30.1315861  21.7601719  67.5608444  19.2454681  88.1303101
  68.0894165  18.6189156  87.6360703  66.7720718  18.7582092  88.3683167
  15.9936161  53.6826286  20.8343029  16.3145428  53.0405045  21.4674816
  16.5963383  54.4217110  20.9162598  49.8446503  48.5497475  19.6373425
  50.5970612  49.1209412  19.7917709  49.7081032  48.1024475  20.4725113
  22.1403179  70.8413773  30.5678329  22.3854809  70.5722580  31.4531021
  22.5017796  70.1595917  30.0014954  12.9530506  62.5625038  53.6430588
  13.5872335  62.2856331  52.9817085  12.5654268  63.3606110  53.2838898
  67.4727173  52.1036606   3.8389792  68.4206314  52.2099266   3.9189172
  67.1099777  52.6689682   4.5209427  40.9710045  46.2499657  18.8532715
  41.0977936  47.1379700  19.1873379  41.1059494  45.6860199  19.6148415
  57.5866432  51.7116737  25.9903774  57.4964447  52.6646080  25.9945431
  57.5912704  51.4674835  26.9158936  48.8790817  64.2135696  58.6253281
  48.9453506  64.2532043  57.6712494  49.0970078  65.0986481  58.9175301
  42.7139435  10.7138882  30.7213936  42.3192329  11.5690403  30.8921242
  43.6479073  10.8440790  30.8856964  83.0576935  68.8702698  85.3416901
  83.3440475  68.8050690  86.2527237  82.6258011  68.0343170  85.1659622
  61.5420799   1.2518452  71.5053177  60.8043900   0.8650671  71.0336761
  62.2542038   1.2661464  70.8658600   7.5350037  31.9305801  44.0711937
   7.4886389  31.6515083  43.1567535   8.3103247  31.4887371  44.4174385
  82.3838425  56.5397301  59.5796242  81.4371033  56.4021912  59.6112289
  82.7429810  55.6821671  59.3519630  27.6887608  41.3471222   3.3094304
  27.5750732  41.2802010   4.2574959  27.3466492  42.2131691   3.0877178
  36.5922050  16.7950764   6.2242031  36.2431297  17.2173080   5.4392838
  36.0002670  16.0600510   6.3841410  62.8660202  18.1078949  46.5855484
  63.5945549  18.1714420  45.9679489  63.2263565  18.4234486  47.4142914
  24.8133030  48.6818047   3.7103837  25.3179512  49.4811745   3.8606048
  24.2090511  48.6372108   4.4514122  71.5969543  61.2154312  16.1743526
  72.5017853  61.2960663  15.8726759  71.5779572  61.6914635  17.0045700
  77.1613770  30.8428516  59.7583389  78.0919113  31.0526733  59.8378105
  76.9113541  31.1842136  58.8997421  63.5630646  35.3728027  33.0751152
  63.1575165  35.9667511  33.7067680  62.8289185  35.0209198  32.5716896
  76.6229172  31.9604416  74.4215317  76.1120148  32.5095787  75.0162125
  76.4551163  32.3270035  73.5533676   1.4766120   7.3502135  82.3520966
   1.5973063   8.2974720  82.4181671   1.8217944   7.0067272  83.1761703
  51.0991402  54.6697426  63.3704338  51.4954834  53.8706665  63.7177391
  50.3955078  54.8751945  63.9860001  54.1842346   7.3828998  28.9009056
  54.2441330   7.4025040  27.9457836  53.3635063   7.8340125  29.0987282
  21.8057079  44.4925194  36.5568390  21.7311935  44.7686272  37.4703178
  22.5525513  44.9858894  36.2176628   8.9171209  29.0939999  14.7247028
   9.4148188  29.7739735  15.1787558   8.7914677  29.4390678  13.8407507
  67.5639420   1.7816597  80.1694107  67.1568222   1.5580406  79.3324661
  68.4697037   1.4846607  80.0820923  23.6540623  54.2171364  76.5942841
  24.4461365  54.3574562  76.0754776  23.4129505  53.3069801  76.4219055
  66.1163864  53.3417816  83.2886963  66.3523026  53.9465103  82.5852203
  66.0803452  52.4841080  82.8652267   8.8019123  29.7173042  80.9468384
   9.7472429  29.6375484  80.8194733   8.5115108  30.2870827  80.2346191
  69.4100189  30.9523029  11.2271004  70.0888290  30.3039761  11.4144983
  69.1444702  30.7674904  10.3262358   4.1907005  18.8164978  47.9825287
   4.7875381  19.0785408  48.6834946   3.7696395  19.6315308  47.7092896
  21.0382004  39.3796806  81.5386963  20.7604866  38.4643288  81.5738907
  20.4339333  39.8359871  82.1242523  62.4507256  60.8442612  26.8433990
  63.0891190  61.5514145  26.9362526  62.9399948  60.1325493  26.4307098
  16.7474823  31.9838600  10.6340246  17.6791420  32.0722542  10.4329567
  16.7153168  31.3412056  11.3426809   9.0490313  65.8424835  36.4428902
   8.2341423  65.3499222  36.3450661   9.6394091  65.2410812  36.8967590
  37.5560455  63.7005234  16.1640034  36.9938278  63.3955650  16.8761444
  37.0521889  63.5252686  15.3692408  86.1152649  58.6894150  80.1339340
  86.7720032  58.6620712  80.8297577  85.9297562  57.7698975  79.9434052
  68.1338654   0.6858090  26.1630306  68.1700745   1.2446134  25.3867207
  67.6295853  -0.0786461  25.8845558  81.4516220  15.8425446  88.4264374
  81.1115799  16.2820797  89.2058029  82.0864868  15.2113581  88.7652359
  32.9486771   2.6044769  26.1295605  33.0737343   3.3098128  25.4946651
  32.5371933   1.9007801  25.6278400  41.1987686  27.7656059  11.2273378
  41.6717606  28.5280113  11.5608807  40.2928658  28.0633392  11.1440802
  66.3885651  64.3404694  88.3943024  66.9441299  63.6133919  88.1133347
  66.1565781  64.7920914  87.5828552  57.0143356  13.4491129  62.4478951
  57.2161064  14.3552160  62.6813469  56.1767502  13.2722683  62.8761520
  16.8862019  33.4473534  21.2362232  15.9551430  33.6375465  21.1213818
  17.1713371  34.0516319  21.9216290  57.9563942  18.4132023  71.1452942
  57.5681458  18.6235065  71.9945679  58.6179810  19.0915699  71.0098038
  76.8832169  32.5316658  87.0534363  77.0462189  32.5914268  86.1121140
  77.3927612  33.2487640  87.4307556  32.5048103  30.6144218  17.3400955
  32.7255211  30.7765560  18.2572823  32.7509727  29.7012978  17.1923122
   6.6478763  16.2134132  38.8199501   6.0880566  15.7460279  39.4399338
   7.3255162  15.5797510  38.5843468  13.2050438  64.0533218  72.9252243
  13.0163612  64.1882782  71.9965591  12.7439184  63.2447205  73.1482773
  33.0244484  42.0589638  74.4857254  33.5368271  42.6498909  73.9339066
  33.5170174  42.0088921  75.3049316  38.0266380  64.5646820  80.5559235
  37.4021759  64.8924255  79.9087219  38.2150002  65.3210831  81.1114578
  29.5192165   5.3365245   9.4069824  28.6214657   5.6376863   9.2670631
  29.4253197   4.5332675   9.9190302   6.8527989  11.9688606  11.8970461
   6.0713539  12.5216160  11.8909969   6.8192468  11.4975576  11.0645924
  66.4038315  16.2394524  40.9096527  67.3506622  16.1000996  40.9275856
  66.2183228  16.5084343  40.0099487  79.7098618  61.5523224  78.8412857
  80.4545593  62.1398849  78.7131042  79.4932098  61.6392365  79.7695847
  52.9123497  58.5787773  80.7034760  52.5646057  58.9762077  79.9051361
  53.8580475  58.5417099  80.5602646  54.0835724   8.7376623  49.8642273
  54.5589600   9.3589201  50.4158401  54.7125473   8.0357428  49.6970940
  49.5428162  22.4107990  14.3003244  49.8062973  21.5058384  14.1334238
  50.3587341  22.9095116  14.2579336  13.1580076  25.4161625   2.4401348
  13.9125681  25.0794373   2.9233403  13.3728008  26.3331718   2.2692838
   9.0387506  60.1384201   6.4382930   8.9956989  61.0816307   6.2810397
   9.9496107  59.9067001   6.2569852  37.5386429   3.8798771  83.0257721
  38.3588867   3.9004376  82.5328140  36.9187508   4.3632088  82.4795456
   6.2379684  34.9582939  84.3945465   6.0449729  34.3787422  83.6575851
   5.9718914  34.4599190  85.1672440  12.0157928   9.3708153   1.7987624
  12.0240774   9.6790771   2.7049291  12.0704660  10.1692505   1.2736487
  77.4346237   8.3850975  74.9555359  76.4950104   8.3638649  74.7741470
  77.6884689   7.4639201  75.0123291   5.9350314  54.4505577   5.3742833
   6.4506831  54.5009842   4.5694275   5.2754951  55.1377907   5.2796364
  58.5555267  32.3287048  64.6297150  59.1051674  32.6561737  63.9177551
  58.4560127  33.0765266  65.2188644  24.3534431  10.3639259  -0.2336799
  25.1523762  10.6428728   0.2136763  23.6758785  10.3998804   0.4414833
  50.9072227  62.3802338   8.0937481  51.5385170  62.5399933   8.7953014
  50.0580750  62.3621826   8.5351734  77.7070007  22.5975723  61.6363564
  77.3635406  21.7182522  61.4780426  78.5648117  22.5997028  61.2116356
  59.6910286  29.8791580  34.0512466  59.9209175  30.6945763  34.4967537
  59.3108368  30.1599579  33.2188759  35.2574577  51.3637314  56.5264778
  34.5649643  51.8258095  56.0540657  36.0612831  51.5978813  56.0625038
  54.8016396  47.9576683  66.3405609  55.2762909  47.1430779  66.5060272
  53.8983307  47.6813469  66.1859131  63.8497238  13.7588520  82.0711288
  64.5994797  13.6858559  82.6616974  64.1067810  14.4306812  81.4396210
  22.5314331  35.0063820  19.6294518  22.2323570  34.1120758  19.4651222
  23.4442844  34.9077454  19.9000130  81.5354309  52.3685875  67.2087402
  82.1495667  52.6588326  66.5343323  81.6600571  51.4206238  67.2542038
  18.0854015  16.4422359  27.1318035  17.1388245  16.4293823  27.2734413
  18.1881714  16.7361050  26.2266464  16.8340244  25.3274937  22.5832100
  16.4300766  24.7673111  23.2459717  17.6589375  24.8907967  22.3709641
   7.0887218  30.6661243  34.8157463   6.8476315  30.0228291  34.1492043
   6.9012632  30.2309914  35.6474609   9.2484045  30.2174797  86.6391449
   8.8773260  29.3726845  86.3844833   8.6522541  30.8644333  86.2619400
  77.1930008  66.7118988   8.5087318  78.1034698  66.9843369   8.6229639
  76.8834229  67.2195053   7.7585821  54.8614311  38.0993576  66.7785034
  54.3687286  38.0866928  65.9579468  54.4254570  37.4494934  67.3297119
  38.6314430  29.6958046   5.3460035  39.2251091  30.2019081   5.9006653
  39.0730667  29.6543922   4.4977779  32.0794830  49.7984467  24.5538578
  31.3576088  50.3830643  24.3228912  32.0149117  49.7019348  25.5039883
  77.7782898  27.8601589  67.9291382  77.3575363  27.0880241  67.5509796
  77.6852951  27.7446175  68.8747787  46.1933517  61.0986023  62.5228004
  46.5062408  61.4416084  61.6857338  46.9265823  60.5837975  62.8598137
  19.3089447  50.7494087  84.6679382  19.9975376  51.4130249  84.6269073
  19.7736225  49.9331894  84.8525696  83.7191620  64.1924057  63.8477745
  83.2475586  64.4369354  64.6440353  84.5465469  64.6705322  63.9030609
   6.5147891  31.1106491  68.9715576   7.3673348  31.5052757  68.7880707
   5.9155149  31.5407085  68.3615189  61.2286301  31.8801765   8.3609934
  60.4010887  32.1443825   8.7629938  61.6931953  32.7026901   8.2064457
  40.5411453  54.5214729  16.5486813  40.0305748  55.3308907  16.5685425
  41.3503342  54.7372856  17.0122223   2.4062576  38.0077782   5.3162971
   1.9197047  38.2190056   6.1130905   3.2689598  38.3998413   5.4514308
  31.5290756   9.2737741   5.6539721  31.6122513   9.7015362   4.8017206
  31.1283989   9.9365196   6.2165189  82.3859329   5.6306839  16.6323853
  81.7282944   4.9352460  16.6221981  82.2308197   6.1188784  15.8237829
   2.0942588  18.9667950  28.3439026   1.2668873  19.2547112  28.7296391
   2.1304514  18.0281277  28.5278187  83.0045776  35.9621620   4.8768024
  83.2812881  36.4172516   5.6721358  83.5668564  36.3185387   4.1889997
  67.1632614  30.7886047   1.9109199  68.0107727  30.3905697   1.7121130
  67.3312149  31.7307987   1.8936936  78.0411453  67.6713257   4.2564116
  78.6573410  67.7518005   4.9844599  78.3023071  66.8661728   3.8094745
  56.5041046  43.9037895  86.0332413  56.6461792  43.2298737  85.3684921
  56.7161942  44.7254791  85.5904312  67.3154602  52.4277000  73.2353821
  67.8007660  52.8538551  72.5289078  67.4384003  51.4913139  73.0795135
  54.9315224  34.5346870  51.4089012  55.4667625  33.9230461  50.9032898
  54.1772385  34.0168762  51.6902466  21.9235573  12.3106947   9.3732624
  21.8317108  13.0187006   8.7356701  21.1076469  12.3313951   9.8733540
  45.5337982  69.9513092   8.6686754  45.5569534  70.4541016   7.8544888
  44.8318367  69.3140640   8.5367756  78.5348358  66.8592224  47.9051971
  79.4912491  66.8458328  47.9415817  78.2832718  67.5803070  48.4822426
  21.9464512  10.1892490  13.7609987  22.7007103   9.6392040  13.9726000
  21.9715633  10.2738237  12.8078737   5.6964803  12.5383902  38.9324455
   5.9886627  13.3875093  38.6009979   6.4887152  12.1336870  39.2857323
  45.2797279  30.5170116   2.1529303  44.5800629  30.4698830   1.5014088
  46.0325012  30.1079845   1.7260065  14.1217966  17.1192837   5.5099869
  15.0408564  17.2402363   5.7485909  13.6535406  17.1352711   6.3446798
  22.6887913  61.7937355  72.4708099  23.5483627  61.6360817  72.0802765
  22.8805447  62.0864105  73.3617630  58.5404167  38.6142693  83.4661942
  58.1286621  39.0153847  82.7008209  59.1030350  39.3014641  83.8232040
  21.5074863  41.4971275  31.7362213  20.7354889  41.1293564  32.1663361
  22.0631409  41.7959824  32.4560585  41.6621971  56.2627792  76.4619751
  41.5535049  55.9654388  75.5586472  40.8000412  56.1410103  76.8595886
   7.2622137  21.3703594  33.4493637   7.3812556  21.8454285  32.6269493
   8.0743132  21.5214958  33.9329796  80.3826752   5.2521830  87.8837280
  80.4017715   4.7245169  87.0853348  81.1925049   5.0247579  88.3405533
  80.8708649  64.3268661   5.5081315  80.1691055  64.1713333   6.1402454
  81.2021103  63.4536629   5.2983246  75.6584167  60.5737686  88.3134766
  75.9263535  61.0538788  89.0970154  76.0394897  59.7027168  88.4243011
  72.0892334  16.9223709  52.6747780  71.5169144  17.4830379  52.1510048
  72.2020264  17.3976250  53.4979706  56.4716797  17.5243607  81.6980133
  55.5757637  17.4298172  81.3745575  56.6560593  18.4605904  81.6224365
  80.2307434  51.0867043  14.0982723  80.3564682  50.1989861  13.7630310
  79.2984161  51.1329460  14.3100529  67.5815353  16.3813019  34.7190704
  67.3788910  15.4780226  34.9624863  68.0249100  16.3078918  33.8739243
  28.8571072  31.3012753  81.8564301  28.2441559  31.9810352  82.1365128
  29.6499329  31.7792053  81.6130295  86.3650818  13.8609400  19.2948856
  87.2480698  13.8209610  19.6622486  86.0060043  12.9853601  19.4386082
  16.1563625  54.3050766  65.8831406  16.9857559  54.7520828  65.7142487
  16.4070072  53.4038811  66.0862503   7.9337888  34.4503746  43.2172241
   7.0890617  34.5786552  42.7857018   7.9227386  33.5353889  43.4981384
  49.2463188  11.0182228  59.3357964  49.6179237  11.8876829  59.4847298
  48.7446938  10.8329449  60.1296959  49.8623962   0.9905943  26.6534748
  49.5390015   1.8908021  26.6891403  49.9292259   0.7969719  25.7184486
   6.9372888  33.0543518  23.9015293   7.7990999  33.4704742  23.9203701
   6.8405628  32.6643982  24.7703285  52.0141602  20.7453365  76.0394669
  51.1679993  20.8641758  75.6080475  52.1676712  19.8009968  76.0096664
  74.0588760  63.6647644  80.1275482  74.3252029  64.2854080  79.4492340
  73.9559250  64.1997375  80.9145966  43.5627022  44.0166893  71.6847382
  43.9112282  44.5047836  70.9387360  43.3732567  43.1463928  71.3341293
  75.8328247   9.9276628  59.2624283  75.2437820   9.5203190  59.8975143
  76.6307220  10.1103220  59.7586365  66.1473465  70.5546188  64.7752838
  66.2432480  69.6560516  65.0908813  65.2160110  70.6385498  64.5708084
  40.7551193  70.7407455  71.7437820  40.0136414  70.8436966  72.3403015
  40.4306679  71.0587692  70.9012680  61.2820206  42.3992386  65.2775879
  61.6978340  43.2495537  65.4200439  60.3636284  42.5401840  65.5076370
  12.6066151  63.7376213   9.9507818  12.1947880  64.0323486  10.7630415
  11.9305754  63.2198143   9.5136557  71.8117905  32.0472374  57.6635551
  72.4004517  31.8681583  58.3967972  72.1945419  32.8098984  57.2298698
  66.7464066  69.4285278  72.4322052  66.8515625  70.3701096  72.2958298
  66.8471146  69.0474625  71.5599213  11.3421040  35.4146729  36.7249641
  11.8384342  34.6667938  36.3924522  10.7282991  35.0344696  37.3533897
  52.8819923  35.3804588  33.9626122  52.3441582  36.1717148  33.9922638
  53.5608368  35.5274582  34.6212387   6.3767157  52.5995407   0.5790588
   5.5855403  52.9718094   0.9685319   6.5676799  53.1691666  -0.1661215
  72.3878479  48.7714233  24.1059952  71.7697906  49.4739304  24.3078041
  72.4448395  48.7697029  23.1504936  51.3118401  13.3735733  19.6267204
  51.0245285  14.1596050  19.1621361  51.6578865  12.8028584  18.9405956
  33.8327789  64.7114105   7.4801049  34.0281410  63.7862892   7.6291614
  32.8788872  64.7462769   7.4086695  20.5834236  64.7935104   0.9727786
  20.1518536  64.1907578   0.3672458  20.3469505  65.6642456   0.6531894
  53.6712799  18.5183468   6.4953284  53.0628090  18.0777779   7.0885324
  54.1156654  17.8060074   6.0356231  47.9635658  58.3021889  42.7187233
  47.1226578  58.0031471  42.3727684  47.8776131  58.2125359  43.6678314
  60.5638123  46.9443588  61.0448112  61.2726898  46.6239662  60.4870720
  60.2797585  47.7576828  60.6276207   0.5380176  60.6890640  46.6693916
   1.0513610  60.6728134  47.4771309   0.6118850  61.5907478  46.3567543
  80.7889862  61.7948875  64.4338531  80.7567902  60.8382339  64.4316254
  80.9611435  62.0308609  63.5223045  81.6160049  43.3690872  84.5358047
  81.2408218  44.2137451  84.2867584  80.8589478  42.7936478  84.6451874
  51.2598610  35.0802383  16.3216820  51.5202255  34.4718628  17.0132885
  51.6767540  35.9078941  16.5612946  13.9836416  14.4855995  80.2106934
  14.1235228  14.0915871  81.0717545  13.6651011  13.7653637  79.6666183
  74.2643967  55.6986771  13.4148779  73.5037231  56.0664291  12.9650249
  73.8925018  55.1651840  14.1172390  43.8629990   3.0726798  84.2781296
  44.2299194   2.3329065  84.7622147  43.1264267   3.3676288  84.8135757
  55.3430634  71.5655975  35.4537773  56.0975533  72.0046158  35.0610352
  55.6417160  70.6696625  35.6097679  44.2733002   4.4962425  33.1135597
  43.8651047   3.6376297  33.2248726  45.0848160   4.3159308  32.6390457
  61.4311676   1.0356119  12.4415741  61.9490623   0.4878775  11.8516569
  62.0809135   1.5061260  12.9637585  35.8183975  34.9844933  36.4645615
  36.6127663  35.2134705  36.9470367  35.8256607  35.5637169  35.7025375
  41.1883316  33.7288704  88.2026749  42.0623589  33.3471947  88.1212463
  41.3316803  34.5620308  88.6515961  64.0729523  56.8554001  13.4108143
  63.2805977  57.3909111  13.3704405  64.7386398  57.4396210  13.7738276
  53.8021088  35.2466965  64.8442917  53.0958252  34.9788742  65.4322281
  53.5362854  36.1102829  64.5283966  19.2085609  19.3646202   7.4668550
  19.8475647  19.7099075   6.8434110  19.1177101  20.0548763   8.1237593
  17.4804363  51.6130142  43.2663231  17.2020512  52.4146194  42.8234253
  16.6674480  51.2203445  43.5842705  15.9541092  57.7305222   2.3499496
  16.6030998  57.6435890   1.6517476  15.9863691  58.6557655   2.5930912
   2.1896942  17.1138287  48.8262787   2.8590529  17.6918907  48.4601707
   2.6760864  16.5084229  49.3858643  11.4483624   8.6473598  70.6445236
  12.2662230   8.9389219  70.2416229  11.7222977   8.0303411  71.3231125
  18.3884926  52.4655609  16.9728985  18.2774258  52.0741310  17.8393173
  19.2191753  52.9379387  17.0281887  83.5651627  19.1451626  29.8353157
  84.4040375  18.9086075  29.4396381  82.9534988  18.4826984  29.5139999
  26.9481354  43.5454903   6.3033004  27.2476616  44.1602745   6.9730453
  26.5343418  44.0972633   5.6395578  65.1350327  58.9491310  43.5116692
  64.9095383  58.0467567  43.7377319  65.6806564  59.2489929  44.2387276
  67.4256821  40.8117905  47.0912971  67.2123184  41.5335541  46.4998894
  68.3448334  40.9521484  47.3186417  13.2973318   2.3146937  76.4873657
  14.0809593   2.6248004  76.9412308  13.0106344   3.0639961  75.9652710
  17.8334522  36.5182114   7.7360253  17.6468430  36.0044785   6.9502206
  17.6645794  35.9166412   8.4611654  42.2791595   6.5568986  85.4973984
  42.1064339   6.5956216  86.4380951  43.2094612   6.3408608  85.4333954
  14.7417097  18.4139118   2.4044726  15.6440334  18.1094437   2.5011339
  14.7329502  19.2741718   2.8241215  24.4625530  36.6186028  72.8994217
  25.2160892  36.5028877  73.4782333  24.7669048  37.2308197  72.2294998
   8.1506910  55.1716881  38.9094963   8.4814377  54.8698807  38.0634766
   8.7380943  55.8864212  39.1551552  74.2866364  15.0378036  44.2253723
  73.9349823  14.3916569  43.6129456  73.8152161  15.8448753  44.0188980
  72.1226959  60.7444000  55.1504517  71.9860687  59.8729858  54.7786942
  72.8830414  61.0882988  54.6815872  58.9047432   9.5952911  71.7613525
  58.8533669   8.6678810  71.5300446  58.5248642  10.0509043  71.0101242
  17.6405640  44.6103210  10.5640516  17.0639725  43.9109764  10.8717670
  18.1804771  44.1966553   9.8905497  52.1242256   0.1496873  74.9308014
  51.3656044   0.7115933  75.0888596  52.8791733   0.7138360  75.0982056
  56.5698776  57.9764862   8.3581944  57.0538025  58.2921638   9.1213427
  57.1680069  57.3622131   7.9325891  86.6325150  59.6698112  29.3198032
  87.0450668  59.0660095  28.7021790  86.2563858  59.1033669  29.9935207
  11.1523371  43.1552505  22.2002087  10.6929817  43.7571907  22.7857800
  10.6721830  43.2116356  21.3740692  51.4696960  52.7663307  80.9787369
  50.7429962  52.2414055  80.6431885  51.1229134  53.6576080  81.0187073
  63.1594009  53.7370644  24.3675766  62.2305984  53.5058594  24.3775024
  63.4559097  53.5759773  25.2633247  28.1114178   3.9836972  79.5038452
  28.6093216   4.2405748  78.7277451  28.7643261   3.9354322  80.2021408
  69.3876724   3.0144668  52.4714966  69.7733002   3.8632312  52.6885681
  70.0783844   2.3808725  52.6656876  34.8583717   2.5941577  40.0808334
  34.4998131   3.0326049  40.8524780  34.2584496   1.8661377  39.9186249
  62.1841545   0.7748849  29.2224579  62.0083809   0.8531156  28.2847939
  61.3371086   0.9337575  29.6389980  67.2693634  22.5086021  56.3428879
  66.5823288  23.0964851  56.6569176  66.8131714  21.8905563  55.7717972
  76.2462540  46.6673317   9.6173058  75.6147385  45.9488564   9.5823936
  76.1658707  47.0984192   8.7664614  77.4746552  36.0010910  86.3257217
  77.1258698  35.5100060  85.5818100  78.1005630  35.4035568  86.7349014
  46.9439316  12.7242670  81.4345551  46.1647224  13.1722469  81.7637634
  47.6283035  13.3933697  81.4475021  41.7699471  48.8887596  54.0138741
  41.5680809  49.0142593  54.9410896  42.6902046  49.1394043  53.9330368
  24.9778748  62.3422318  16.5111313  25.1043549  61.9163475  17.3589859
  24.0468082  62.5634346  16.4907360  81.7800903  63.3549614   2.1976087
  81.6696625  62.9390335   3.0526178  82.3856735  62.7810173   1.7284813
   3.2145913  14.0220165   7.3207173   2.5546689  14.6347427   7.6452169
   3.0092778  13.9188328   6.3915071  58.0890465  57.5236702  48.3957939
  58.8374519  58.0525322  48.1193352  58.4764824  56.7968369  48.8834763
  52.3458633  19.6772671  27.8298073  52.5433426  19.6485748  28.7659740
  53.0500793  19.1741295  27.4209442  57.5907516  63.7962341   0.4960538
  58.0413246  63.2668800  -0.1619729  57.8607712  64.6947861   0.3065020
  38.6729050   1.7712517   8.8397064  38.4099197   0.8551915   8.7507954
  37.9191360   2.1984158   9.2466402  48.8669739  56.4647102  58.3078308
  49.4168053  57.0927048  57.8392792  48.3489761  57.0010147  58.9080734
  38.7457657  40.2456436  34.4132652  39.3142815  39.8346024  35.0644684
  39.3343582  40.7915230  33.8919144  61.4871330  41.7155342  49.4116821
  61.7879944  41.6759377  50.3195076  61.5499916  42.6418190  49.1787148
  58.0544548   0.5216106   8.1374493  57.7343407   0.1330170   7.3233523
  58.5880814   1.2642748   7.8547387  50.6886787   9.1543360  15.7190113
  49.7875404   9.0023537  16.0037556  50.9114113  10.0135298  16.0773506
  46.3425484   2.1672020  63.0729599  46.8728905   2.2594528  63.8644524
  46.2163467   1.2231318  62.9779015  76.2694092  60.8993912  78.2936935
  77.1464462  61.0917244  78.6254425  76.0244904  60.0806198  78.7248154
  64.4888229  30.1076717  32.3423386  63.7075729  29.5625000  32.4354439
  65.2076111  29.4823589  32.2498093  53.3480186  65.8506699  79.2020264
  53.9569321  65.3332291  79.7290115  53.2905426  65.3795319  78.3707886
   7.7135010  56.4320793  72.5665970   7.3644214  56.6892166  71.7132187
   8.5135012  56.9486198  72.6636429  58.9283905  11.3493032  75.7206345
  59.6961899  11.0650845  76.2165527  59.2502403  11.4656286  74.8266983
  55.0155373  68.4161301  27.9829960  55.8114471  68.5807037  28.4886379
  54.3033333  68.6859589  28.5628185  49.5647659  35.3680496  68.4025040
  49.3774071  34.5998840  68.9419937  49.1679688  35.1678848  67.5547256
  65.2210999  70.4063873  20.0434513  65.1943207  70.4056396  21.0002766
  65.9669342  70.9652405  19.8251591   3.5085585  13.9969072  70.0048752
   4.0606704  14.2989197  69.2836304   2.7094271  14.5183659  69.9293671
  46.9779549  43.7503777  69.6368790  46.8761024  43.8896255  70.5784073
  47.9156685  43.6001663  69.5170441  31.0935802  67.0725784  19.3871822
  30.7375488  66.7460480  18.5608330  30.4634457  66.7873077  20.0488358
  51.4660835   2.9696929  74.7268677  51.6734657   3.5877986  74.0260315
  50.8406525   3.4367654  75.2808609  10.3773832  60.3708916   0.1566087
   9.4911585  60.0883560   0.3824650  10.2573662  61.2219200  -0.2647915
  80.1873550  53.9343796  81.9084778  79.9533768  53.7445793  80.9999237
  79.4891739  53.5316048  82.4247589  27.9830132  48.9685211  75.5070877
  27.8612099  49.4512100  76.3246536  27.9822598  49.6432838  74.8281784
   4.3193860  42.6815414  83.0425720   4.5468049  41.7611465  83.1744385
   4.7791777  43.1445732  83.7428741  20.7014866   6.5208368  40.2590408
  20.9296722   6.7710466  39.3637428  20.9708691   7.2684159  40.7926979
  15.4682713  64.1613617  50.1269760  14.6452951  64.6475983  50.1771049
  15.2581873  63.2976761  50.4821510  79.5056076  -0.0447973   4.6355619
  79.0067215   0.7717466   4.6109185  80.1773148   0.1049039   5.3008628
  44.4774055  16.8507919  87.4074478  44.2975159  15.9997320  87.8069077
  43.9025879  17.4594746  87.8714752  57.2720833  11.2625437  58.6097183
  57.1029282  10.3825512  58.2732201  57.5613899  11.7599583  57.8447914
  80.6897430  69.0254211  60.9760551  81.4866867  69.5091782  60.7590408
  80.1700745  69.6400375  61.4941559  47.4124603  16.5354481  12.4648991
  47.1040382  17.4102268  12.7012711  48.2867165  16.6794701  12.1027308
  49.6787376  44.8464699  17.3665524  49.9545403  45.7503738  17.2145100
  49.1845970  44.6115036  16.5811558   2.5624514  39.9585075  61.4129295
   1.6599051  40.1445580  61.1540375   2.5245750  39.8673935  62.3650322
  37.3887672  52.3122025  69.5281754  36.5153618  52.0906487  69.8511505
  37.3479347  52.1373596  68.5879669  24.2619057  10.5382833  34.4992447
  23.5604610  10.2052536  35.0589752  23.8153381  10.8337870  33.7058411
  27.6533718  62.1017189  25.9242306  26.9813557  62.7349777  25.6720219
  27.7374649  62.2063866  26.8719673  24.9335136  48.1969032  33.7609406
  25.7666798  48.6073608  33.9924355  25.0241890  47.9772453  32.8337097
  45.9938393   2.2570093  27.9280415  45.3623238   1.6476051  27.5458794
  46.1666603   1.9062313  28.8017235  74.4902191  17.6076202  15.1825581
  74.9875412  16.8407459  15.4668226  73.7461319  17.6467571  15.7834177
  52.9589119  68.1426392   0.4192854  52.2841682  68.7126617   0.0504558
  52.7640076  68.1158676   1.3560499  23.5275822  25.9818439  88.4655762
  23.4820881  26.7682858  87.9218140  22.6314068  25.6457043  88.4760132
  54.8817406   7.0918536  38.1883278  55.0731277   6.7248883  37.3252296
  55.5516243   7.7633705  38.3169861  35.2771912  13.4747496  10.6779203
  34.5678215  13.7272358  11.2689199  36.0616951  13.4874229  11.2262135
  23.7390385  16.2988491   9.5948505  22.7887192  16.3302937   9.7050142
  24.0846329  16.3266945  10.4870510   6.7330899  57.0494728  44.0736580
   7.6896014  57.0171890  44.0902634   6.4670506  56.1563034  43.8552589
  67.1903000  25.5807209  35.7389145  66.6655655  24.9878445  35.2009735
  67.1239243  25.2228794  36.6242256  67.5105591  58.3488541  12.5598841
  68.4091492  58.6685524  12.4788809  67.3824844  58.2301750  13.5010233
  58.6988106  43.1355324  46.9651184  58.9509201  43.0202446  47.8812981
  59.3115349  42.5854454  46.4770584  80.7533417   0.2736457  62.3883324
  80.6995773   1.0607760  62.9303360  79.9417877  -0.1995167  62.5720024
  77.9916458   8.2599316  49.6891212  77.7470932   8.4655457  50.5914230
  77.6241302   7.3898683  49.5336952  12.5706158  10.1969557  44.2128258
  12.4876146  11.1418276  44.0841484  11.8771515   9.9781752  44.8353004
  64.4397354  52.0987663  39.3290596  63.9370575  51.4607277  39.8354759
  63.8656807  52.3310242  38.5991592  81.9976883  15.5176802  13.8513956
  82.3305511  14.7658825  14.3415318  81.4996643  15.1321802  13.1305656
  18.6257992  50.8932915  49.3299713  18.3864613  50.8119392  48.4067535
  17.8387127  51.2377090  49.7519951  42.2230682  12.7300844  25.3603153
  42.6747055  11.9619074  25.0108051  42.0378456  13.2694235  24.5915260
  80.6273422   3.5427029  35.2162704  81.3657227   2.9373322  35.2837791
  80.5707169   3.7482836  34.2831268  12.5094423  67.2132721  62.7259560
  11.8544016  67.0645142  62.0440292  12.0165138  67.5946732  63.4524460
  68.2992477  55.2683144  15.9685068  67.5320053  54.8986130  16.4054108
  68.9952621  55.2183075  16.6237164  40.1652145  52.6614456  42.0636139
  40.7997475  52.9687538  42.7110405  40.0730057  53.3926353  41.4528046
  12.0731335   8.5338049  55.0035210  11.9019747   9.4062805  54.6489487
  12.9053001   8.6230612  55.4680252  60.7741318  28.5617275  15.2622242
  61.6874466  28.3670845  15.4724751  60.4119606  28.9169750  16.0739269
  11.2912474  17.5962448  48.1248856  10.5579662  18.0486488  47.7079201
  11.1307678  17.6943855  49.0634193  79.1365814  16.8959103  16.4929657
  78.5760117  17.4822521  17.0010948  79.9385071  17.3978310  16.3472939
   5.6814103  62.7028160  50.5980568   5.6976924  62.6405106  49.6430283
   6.3350840  62.0677490  50.8906898   5.3500924  68.9941330  58.9138756
   5.0359569  69.2485580  59.7815285   4.6525970  68.4431610  58.5586777
  82.5945816  62.4727058  35.0838585  82.0575562  62.1166115  35.7916908
  82.0123215  63.0755310  34.6214676  42.9404106  42.0072823   8.5082865
  42.0623093  41.6309586   8.4486742  43.4277229  41.3925323   9.0567780
  53.5262909  66.8936615  12.6484404  53.0744476  67.3659897  11.9491777
  53.0421143  67.1204987  13.4423857  12.4347944  32.2767487  79.0554962
  12.8375511  32.9788055  78.5444794  12.9732161  31.5071106  78.8711243
  66.1089935   2.9055402  57.4116135  65.5115204   2.8018634  56.6710014
  65.5344543   3.0078888  58.1703377  65.4037476  58.3500061  40.9058838
  65.4754639  58.6476936  41.8127861  65.7744370  59.0652962  40.3889885
  21.2204685  25.3990059  16.4141312  21.8800030  26.0706940  16.5875664
  21.7243080  24.6362724  16.1302052  15.7714558   8.5253515  18.3649616
  14.8479900   8.5711870  18.1172924  16.2387733   8.8974819  17.6170559
  11.6441898  29.7713661   4.7134233  10.8292332  30.1841431   4.9992385
  11.3620110  29.0209579   4.1904550  11.0326052  70.5354919  21.8316956
  11.6606188  70.3069153  21.1464348  11.3054829  71.4043121  22.1265354
   5.9796824   8.2628183  53.3844833   5.5208516   8.2967596  52.5451088
   5.2934299   8.3969355  54.0381699  81.8760605  62.5984688  61.9877586
  82.5424347  63.1117706  62.4445877  82.3530426  62.1593056  61.2835846
  85.1204758  71.6436920  64.1317825  84.7296600  70.8832779  63.7013588
  84.9011993  71.5341415  65.0570679  66.5334549  36.7503586  43.5847130
  66.4467545  36.6622086  42.6355324  67.3367157  37.2566528  43.7058563
  36.9449730  37.8918686  69.4961777  37.1268425  38.5969810  68.8749161
  37.4320221  37.1413536  69.1559753  55.0795517  10.3888016  51.7590599
  54.7913742  10.8108768  52.5684013  55.9184265  10.8037052  51.5581093
  79.4351120  19.0163517  24.2712784  80.0329819  18.2759743  24.3743496
  79.7761307  19.4963226  23.5165844  79.2994614  57.6186790  46.6828423
  79.3336639  57.6649551  47.6383095  78.6640472  56.9267693  46.4991570
  67.1905212  30.3663998  64.3766785  66.2796402  30.3928986  64.6696472
  67.4691467  29.4656715  64.5418854  15.7192030   1.9763178  81.1462631
  15.6779957   2.7590969  80.5969086  16.4446487   1.4675274  80.7841949
  63.2957382  48.0107994  44.9395103  63.1330528  48.9303818  45.1495934
  63.2250099  47.9668236  43.9859390  44.3431473  46.0643272  59.4521294
  43.8168678  45.3423615  59.7956848  44.4988289  46.6287384  60.2093849
  49.3177834  11.1983347  66.3128052  48.6150970  10.9183006  65.7262497
  49.7463303  11.9166136  65.8473434  32.2268372  55.3807068  84.1335373
  32.2528305  54.4239006  84.1423645  31.3239861  55.5979347  84.3656998
  80.1906433  70.6541290  22.1959820  79.9365540  71.2314148  22.9159927
  81.1203613  70.4812851  22.3442383  56.3159599  31.5229149  71.2994614
  56.3183899  31.7124214  70.3612061  55.6193047  32.0756035  71.6536331
  57.9514656  39.3269043  35.4229317  57.9004326  39.6446228  36.3244209
  58.5428772  39.9397964  34.9860916  41.9751091  58.4695930  14.7752228
  42.9133606  58.6576157  14.7989874  41.5568466  59.3232460  14.8873262
  69.4858093  27.6911163  67.4415359  69.9977875  28.4698601  67.6598587
  69.0055923  27.4874229  68.2441101  11.2752876  47.4414673  58.3888779
  10.6212912  47.2719345  59.0669479  11.3050251  46.6329803  57.8773155
  27.9627342  48.5507736   9.0276785  27.7632599  48.5663147   9.9637346
  28.8750973  48.8349838   8.9724627  65.1723251  39.4181252  25.5225658
  66.0741043  39.1985207  25.2884903  65.1970673  40.3546982  25.7186394
  32.9238739  70.2697754  26.6934605  33.3386230  70.6342087  25.9115391
  32.1443710  70.8095551  26.8247757  17.4598351  32.9899559  25.1301193
  18.1634445  32.3651428  24.9546890  16.8328457  32.8500595  24.4205093
  86.6565094   9.5413837  55.3551483  87.2207642   9.7102575  56.1096916
  85.7787018   9.7777395  55.6548424  49.2450180  13.0832987  86.4639282
  49.8923302  12.7685223  87.0949020  48.6470032  12.3452740  86.3459015
  11.4961777  69.3950272  40.1786003  11.6954088  70.2281113  39.7513924
  12.3031635  69.1623154  40.6377831  29.0688324   7.0291119  51.1569977
  28.6154041   7.5402236  50.4866257  29.9965210   7.2175994  51.0152245
   3.3420660  68.7604752  44.1888161   3.8065090  68.6941376  45.0231552
   3.9751294  69.1618729  43.5935478   9.8200769  33.2782898  23.1578865
  10.3071985  33.4936752  23.9532185   9.9354239  34.0417976  22.5922165
   7.0670547  37.3328743  16.0346413   7.0052519  37.8396912  16.8442993
   7.8114758  36.7476616  16.1746292  75.3662033  12.2706079  58.0297699
  75.5425873  11.4641304  58.5142441  75.8130417  12.1493349  57.1919975
  20.8954735   9.8489523   0.9193155  21.1101990  10.6729813   0.4821642
  20.9170074  10.0602617   1.8526518  33.6401024  37.9284439  65.0254822
  32.9517746  38.5891495  65.1023331  33.9221306  37.7704773  65.9264450
  31.9133472  33.7883911  51.9008064  31.8745651  33.7846222  52.8572121
  32.4962006  33.0613556  51.6818695  55.8323593   2.1724808   1.3929026
  55.9642410   3.1047554   1.5652469  56.3798943   1.9902903   0.6291985
   4.1200171   0.0747393  19.1115971   3.9159148   0.9574482  18.8027306
   4.6601834  -0.3029620  18.4174824  61.0035133  28.4001503  48.2681694
  60.7443161  27.8942013  47.4980659  60.1875763  28.7858543  48.5870934
  41.7526741  51.2048225  19.3440704  41.3405457  51.4073792  18.5042171
  41.5333023  50.2868004  19.5032845  55.4212379   6.6087527  72.1566315
  54.9722137   7.3326578  72.5931778  56.3112831   6.9305110  72.0133896
  22.8096485  70.7401428  70.3097992  21.9341240  70.4189835  70.0940628
  23.1146488  71.1620865  69.5065765  56.2948341  21.5216312  86.1080017
  55.5891876  21.1963978  86.6670380  56.2909508  20.9349480  85.3516846
  29.3046017  56.6673737  49.2617264  29.8882980  57.2290688  49.7716560
  29.8918114  56.0728951  48.7948074  14.3511286   6.0539556  72.0159225
  13.8747501   6.0455337  72.8461151  15.2730236   6.1005712  72.2692413
  47.6611557  70.4830093  19.4228535  47.5656815  69.5349274  19.5137119
  48.5969238  70.6161041  19.2716732  62.4683495  26.0844860  49.2745781
  61.9103203  26.7864609  48.9398117  62.6789703  25.5576763  48.5036430
  72.9648819  66.4320450  36.9197922  72.7772522  65.5985718  36.4881134
  72.1201248  66.7166748  37.2684937  56.0351868  23.9184589  78.7114105
  56.2810783  23.7867794  79.6270752  56.6079559  24.6230469  78.4085541
  16.2416477  32.3118973   4.9518867  15.3014278  32.3901443   5.1134324
  16.4476662  31.4033737   5.1718216   3.2866120  13.7905273  27.5455055
   3.5503480  13.5753794  28.4401474   3.5108974  14.7157030  27.4456177
  58.9244194  12.9688187  30.0652561  58.9444885  12.0626354  30.3729286
  58.0904236  13.3121920  30.3858433  41.5577583  58.5655365  61.8780861
  42.2341995  58.9966850  61.3558121  41.2313004  57.8637657  61.3148994
  67.2232895   4.4762559  23.7487946  67.7658310   4.7974920  24.4689960
  66.4474487   5.0366492  23.7649670  15.0601940  71.1461411  60.1100540
  14.8949575  71.5425262  59.2545929  14.3911362  70.4665756  60.1923981
  31.0410862  37.1328316   4.2760315  30.1513271  36.9509964   3.9735458
  31.4753399  36.2798309   4.2693667  58.4147186  22.3508606  25.7887478
  57.5981407  22.8172989  25.9672546  58.5190048  22.4054585  24.8388138
  51.2884750  19.2567501  87.0133591  50.5173149  19.0159950  87.5267563
  51.3083458  20.2132149  87.0451736  46.9623489  43.2891312  13.0497875
  47.3405037  43.3465195  13.9272490  47.5900383  43.7440147  12.4882507
  84.5857620  34.8121758  82.0058975  84.8456345  35.7333412  81.9935837
  83.6288376  34.8331299  81.9964676   3.0992761  24.6372814  88.3024292
   3.2404766  25.5809612  88.2265244   3.3852203  24.4229794  89.1904297
  45.7701149  54.6582680   0.0887360  46.6284142  55.0819855   0.0928605
  45.1906357  55.2868233   0.5192634  59.5178032  61.0283852  12.9202528
  58.7997894  61.1804390  13.5347185  59.4776039  60.0907021  12.7322063
  28.5634537  65.3327942  56.0428734  28.6983318  66.2688599  55.8951912
  28.8633041  65.1862106  56.9399986  10.6053200  63.5927658  67.7016525
  10.2223749  63.1277428  68.4455185  10.0508900  63.3540382  66.9587936
   6.6339860  16.4629536  62.1993141   7.3200655  16.7182312  61.5825806
   6.1757879  15.7441845  61.7638206  31.8248348  37.3028030  84.9517288
  31.0975189  36.6856575  85.0315704  31.4500084  38.1480560  85.1992798
  70.2092285  19.4734554  67.7296066  70.7767181  18.9076500  67.2061081
  70.6287460  19.5038662  68.5894394  50.2779160   1.9671786  32.9325905
  50.4118767   2.8286700  33.3277092  50.3798180   1.3520957  33.6588936
  36.5294533   4.0970917  25.8923264  37.3841324   4.4155121  25.6018620
  36.0226936   4.0016799  25.0859013  15.5766993  44.1677513  81.2056351
  14.7076216  44.5534210  81.3160629  16.1729946  44.9165230  81.2073212
  82.3278427  19.2089691  59.9609299  82.4685745  19.5818558  60.8312073
  81.6998672  19.8001480  59.5457420   0.7929494  39.5503273  71.4953918
   1.0268358  39.7526817  70.5895309   1.5583546  39.0933266  71.8440094
  77.1456375  15.0302916  69.2070541  76.5530930  14.9003296  69.9474792
  77.8902054  14.4581699  69.3928528  77.2145309  52.2924843  39.9496346
  77.1562500  52.9544029  40.6386185  76.8108673  51.5130920  40.3315086
   6.5202346  26.2797909  31.1742764   5.8481388  26.0894299  31.8287086
   6.2398858  25.7982540  30.3959713  31.2184601  62.8383179  17.7672749
  31.3130016  61.9045181  17.5793571  32.0120239  63.0667686  18.2513142
  41.9827385  35.2984200  82.9742889  42.0892601  36.1481934  83.4018097
  42.4557457  34.6859245  83.5376282  29.4583721   3.9047320  49.7511902
  30.0631065   4.5714021  49.4254913  28.9432640   3.6535392  48.9845123
  29.6086502  25.4712601  14.4316645  28.7863064  25.8566360  14.7341013
  30.1084423  25.3141632  15.2327633  18.8507195  59.6938515  56.8640060
  18.1107883  59.3023682  56.3998070  19.4702682  58.9731750  56.9781075
  14.5434065  66.3451157   6.4898438  14.1049137  66.6139603   5.6825757
  15.1718540  67.0453796   6.6656814  27.2057381  41.5741615  80.1616211
  28.0685425  41.9546738  80.3259583  27.3822575  40.8059578  79.6185379
  69.0508499  20.0130482  65.3661270  69.2357254  19.7046394  66.2532196
  69.8519363  20.4625797  65.0970230  18.5119991   3.7081890  88.1881027
  19.0180397   3.7672656  87.3777542  19.1074867   3.2940502  88.8126984
  77.1529541  55.3810959  41.1665764  76.9989777  55.1225433  42.0752411
  77.8445129  56.0408058  41.2191772  18.3205605  57.1972084  75.0654984
  18.4974270  57.7833900  75.8012543  18.9240246  56.4650726  75.1921310
   1.1721061  41.5493011  16.7346478   0.7747574  41.1250381  15.9741554
   0.5084264  42.1692429  17.0370235  24.6504002   0.7435156  65.3626404
  24.6956177   0.2147158  66.1592331  24.6165352   0.1033589  64.6518097
  21.2086639   2.7594488  43.7494659  21.1334076   3.3746009  44.4789543
  20.6742325   2.0100019  44.0120392  54.8870430  24.7937031  20.0639915
  54.5165024  24.5789719  19.2079411  54.8944206  23.9617443  20.5373001
   5.9851189  10.2892456  19.5488110   6.0192590  10.7544041  20.3846893
   5.7350388   9.3952646  19.7822418  78.8423615  55.5479584  33.5896835
  78.5736847  56.2126465  32.9554634  79.7469940  55.7745399  33.8053970
  71.1765671  17.7299271  26.7404175  70.6788330  17.5771351  25.9372063
  70.5841522  17.4637794  27.4435825  79.5062485  44.6926651   3.8112109
  79.4221497  43.7832985   4.0979304  79.0627518  45.2001114   4.4909449
  68.8097458   4.6120377  10.9169827  67.9202805   4.3901329  10.6415911
  69.1290894   3.8226354  11.3541260  50.8041840  68.4424286  50.9165840
  50.6344299  68.9412994  50.1174927  50.8487244  69.1039276  51.6069946
  49.1555481   7.6253014  49.3296127  49.9594650   7.9638462  48.9354858
  48.4860115   8.2692394  49.0987511  51.4985657  57.2905235  65.6519470
  50.6935425  56.8349648  65.4057083  52.2010651  56.7038040  65.3717957
  25.2029190  59.0523834  12.5800142  24.3640041  59.1996918  12.1432619
  25.2738781  59.7691879  13.2104015  34.6354103   0.9599238  85.8504944
  35.5253716   0.6141133  85.9184189  34.6578598   1.7781305  86.3467484
  52.8395309   6.5205655   4.7948370  53.0919800   7.3295484   5.2398629
  52.0477295   6.2339110   5.2499294  30.9887066   7.7572770  19.2177334
  30.5351067   7.4570889  18.4301014  30.3114395   7.7699070  19.8940353
  48.1670609  58.6717339  69.3001175  48.0872688  57.7340393  69.1252136
  48.5617485  58.7202415  70.1708069  75.0308762  64.4621201  17.5524349
  74.7205734  65.3361053  17.3155899  75.5756302  64.6030502  18.3267765
  51.9763184  23.5343285  18.9693451  51.5568275  23.9720669  19.7100506
  52.3018188  24.2488766  18.4218922  61.2647667   8.3842669  58.0481377
  60.6689186   8.8124008  57.4334068  62.1177750   8.4138069  57.6148491
  30.2559452  52.4638824  88.2496490  29.7316475  52.6372070  89.0315094
  29.9348145  53.0912933  87.6019897  24.4702854  61.1843376  39.8166046
  23.7813110  61.5967598  39.2955971  25.2859840  61.4862633  39.4169731
  20.3873119   0.5431092   0.3295614  20.9993782   0.5697322  -0.4058967
  20.3877563   1.4361959   0.6739854  76.9930801  46.2630539  28.9424686
  77.6817245  45.6199722  29.1111069  77.1009750  46.4930992  28.0196075
   3.3024051  17.3556118  79.8650055   3.3531632  18.2165165  79.4496765
   3.7201707  17.4760761  80.7177658  38.5637779  20.3818188  76.7051544
  38.1316490  20.1622334  77.5305557  38.5184708  21.3367691  76.6577301
  81.7733841  34.7258453  71.5741272  81.2091064  34.9576111  72.3117599
  82.5768204  35.2249603  71.7211151   4.9708729  60.3203278  62.0804482
   4.6401849  59.6471329  62.6751595   5.2199841  61.0451202  62.6539040
  30.4640656  32.1583138  12.7847395  31.2884388  32.3682480  12.3459129
  30.7009773  32.0646057  13.7074108  50.8106003  60.1692276  56.5003738
  51.5915337  59.8808517  56.0279198  51.1391335  60.4603004  57.3510056
  80.8046112  62.4311371  58.4468956  80.5323868  61.6730690  58.9640579
  80.2937241  62.3665657  57.6400146  81.6710892   0.2299039  10.5075464
  81.0163727   0.4270290  11.1774063  82.2530670  -0.4073237  10.9216413
  64.1324539  53.2362823  18.4160175  63.8359337  52.4547768  17.9495945
  63.4206924  53.8664551  18.3041706  30.8656902   0.4548109  36.7974510
  30.1723633   0.9274762  37.2580109  31.3406620  -0.0068408  37.4884758
  71.5797348  16.5351505  73.1555023  70.9268875  16.8632507  72.5371323
  71.9695587  17.3236427  73.5330505  68.9807053  50.8933105  30.2181435
  69.3909302  50.3014259  30.8487186  68.7718353  51.6771812  30.7262268
  38.3375168  57.8767128  58.5255699  37.7778778  57.3545914  59.1003990
  38.2212868  57.4865990  57.6592369  63.0003891  46.8376617  37.1549187
  62.7938766  47.4013977  36.4094086  63.5130653  47.3941269  37.7412109
  14.3424654  33.4940109  71.0189514  14.6390753  32.6052322  70.8231735
  14.7028637  34.0281525  70.3111115  71.3964691  38.0848846  10.4174452
  70.7030411  37.4250565  10.4220257  71.1570587  38.6790047   9.7061539
  47.6938591  62.4932823  36.0351906  47.9409637  62.3396454  35.1232872
  46.7884712  62.1879997  36.0926971  80.2704239   6.7454314  74.2177277
  79.8325500   5.9357238  73.9552994  80.2436600   7.2965503  73.4355621
  86.2748795  45.9154320  48.0537376  86.1683884  45.1032410  47.5585213
  87.2198105  46.0678825  48.0634727  24.4399452   1.9114316  24.8896637
  23.5564575   1.6651286  25.1635571  24.9760799   1.7906165  25.6733704
  42.3346291  62.1407127  26.8237591  41.5221100  62.0210152  26.3321133
  42.2724648  61.5147171  27.5452137  38.6950073  20.5603104   0.6321828
  38.4569893  20.6168365   1.5575923  37.9787140  20.0687962   0.2302305
  61.7766914  62.5371094  56.7684364  62.6336250  62.4303818  56.3555107
  61.6549149  63.4847832  56.8259850  85.3244858  13.7281075  73.1803741
  85.0154343  14.0880308  74.0117340  85.0883560  12.8012581  73.2180862
   7.1824150  16.2379551  31.1842651   7.6961718  15.8146410  30.4964485
   6.3028374  15.8737106  31.0847626  17.8782711   5.2869310  20.5562267
  18.6367073   4.8551979  20.1630173  17.3089790   4.5679946  20.8305759
  56.3326950   4.4335804  41.8092461  55.3943787   4.2733507  41.9098358
  56.3908005   5.3458061  41.5251694  55.9582405  52.7190933   9.1085691
  55.4411774  52.6012001   8.3117142  56.8473854  52.8842087   8.7948990
   6.3878460  37.6047935  68.0532608   5.7082577  37.0219383  67.7146301
   6.3017311  38.4021339  67.5307083   0.5931054  71.2671661  29.9877434
   0.4041081  70.3397522  30.1306076   1.4021732  71.2706985  29.4762459
  33.7939529  58.3043861  50.4427032  34.4057007  58.0070992  49.7691917
  33.8175621  59.2594299  50.3829842  37.8972168  71.8080673  25.8100529
  38.8120766  71.6482010  25.5783119  37.4955444  70.9392319  25.8130169
  52.5697708  44.7854080  89.4517899  53.2123528  45.3812370  89.0666885
  52.2929344  44.2287636  88.7239609  48.4238930  21.1217937   8.7841864
  47.7622185  21.2578144   8.1060162  47.9198952  20.9453297   9.5785904
  42.7478943  33.7721596  84.9871902  43.6534767  33.6148109  85.2543869
  42.3236084  32.9175644  85.0639038  34.1197319  16.5270996  27.8523121
  34.7909737  16.8529510  28.4518852  34.2277298  17.0557880  27.0617065
  42.6435966   4.0988269  54.5183907  43.4101601   4.6147213  54.7683144
  42.6133995   4.1617756  53.5637398   3.5947375  53.7378159  27.6862526
   2.7370162  53.7272530  28.1110268   3.5502079  53.0339317  27.0391083
  81.3721924   0.3397139  77.7680130  81.3839645  -0.2255573  78.5403900
  81.5623016   1.2140107  78.1081543   1.5854350  16.5826378  53.4265671
   1.0408137  16.2395954  52.7180901   1.8978916  15.8038282  53.8870697
  31.9415245   2.0420394   6.2655277  32.4042740   2.1296833   5.4322119
  32.2277031   1.1963158   6.6106148   5.9238882  46.8339272  47.3763771
   5.2376370  46.2925034  46.9863091   6.5398707  46.2053833  47.7528496
  51.1171341  44.6155243  55.8787766  51.3992310  44.9481888  56.7308235
  51.1315956  45.3820381  55.3056488  17.3542309   1.2975972  75.2358856
  18.0310650   0.7325532  74.8632584  17.5023079   2.1503286  74.8270416
  11.6603193   9.7734222  74.0961609  11.7732258  10.3745394  73.3598633
  12.4997492   9.7970591  74.5555496  -0.3148295   3.4132957  42.5586739
  -0.0696430   2.5370927  42.8559685   0.4938218   3.9218462  42.6194305
  79.6947861   9.3359032  14.0274525  78.8048172   9.0376930  13.8396749
  80.2256851   8.9636993  13.3232899  39.9797096  27.4165993  18.9950199
  39.1753807  27.2303143  18.5106792  40.0931473  26.6604137  19.5708218
  84.3142929  31.0667152   3.3754611  85.1662292  30.6679344   3.1982381
  84.0346222  30.6762009   4.2034202  59.6616669  31.7865429  23.1458015
  59.2504578  31.1481323  22.5630741  60.2958870  31.2768898  23.6500378
  54.2781067  55.6268959  73.5448761  53.6060829  56.1098251  74.0259171
  54.5937080  54.9715576  74.1670990  45.3736343  11.7900200  23.7144661
  44.7458611  11.1122208  23.9649048  45.9884453  11.3436890  23.1322060
  29.9136467  56.8299561  36.6602707  30.5007286  56.5069809  37.3438301
  29.0456963  56.8157692  37.0636253  72.0451508  58.8897476  47.0107727
  72.3435669  59.2874107  46.1928253  71.4504013  58.1922913  46.7349892
   4.3788018  45.2133904  45.9122238   3.9683044  44.4311638  46.2807961
   3.7331216  45.5534592  45.2928047  68.0858383  19.1055298   2.6839013
  68.7915115  18.7659607   3.2343130  67.7111282  19.8251839   3.1917622
  72.9501572   9.3925018  80.1499557  72.3243942   9.7983017  79.5499649
  72.5548019   9.4974174  81.0153580  24.9470825  10.8897982  41.0423737
  25.2782326  11.1741695  41.8942566  24.4047871  11.6186199  40.7407646
  76.5754623  56.3650055  50.8127174  75.7117767  56.4943771  50.4208717
  76.5348358  56.8384361  51.6436462  66.9233398   6.1507144  42.8359833
  67.3904800   5.3303714  42.9942398  66.0591049   5.8785105  42.5273857
  84.9658432  57.8030090  59.4906120  85.3830261  58.3458252  60.1595955
  84.3186188  57.2864265  59.9706841  80.8466339  20.5272980  80.4671326
  80.4641647  21.1788330  81.0548782  80.3079987  19.7460423  80.5925903
  53.5463409  39.5504150  53.5545273  53.6348991  38.9900436  54.3254852
  53.5542450  40.4415207  53.9039497  68.7294312  61.6094437  46.1962929
  69.6128464  61.8932762  45.9612350  68.8576584  61.0144196  46.9350357
  16.3670330  51.7091522  22.7348309  17.1188812  51.4712830  23.2773933
  15.6341124  51.7565308  23.3486843   2.4893954  61.1011276  48.4657402
   2.7784994  61.9212990  48.8657112   3.2957416  60.6034698  48.3301964
   4.2096400  14.0846128  22.8631344   3.9888930  14.7699852  22.2324467
   3.3641615  13.7863779  23.1984768  68.7607574  12.7637691   3.2095518
  68.6041870  11.8869381   2.8590050  67.9625092  12.9740458   3.6941304
  67.5951614  61.2515984  67.4627151  68.1057129  60.4634056  67.2774506
  66.7883301  60.9260330  67.8618011  59.5632935  71.2593536  70.5007782
  58.7690239  71.7935486  70.4989090  59.5043983  70.7454300  71.3061676
  44.3313103  16.5515041   9.4451752  44.8314133  17.0039940   8.7659264
  44.5604630  15.6285076   9.3365440  51.0646553   3.1216209  41.2884789
  50.3258743   3.6850436  41.5186768  50.8952789   2.3024893  41.7538490
  35.5777245  60.1810188  61.2801018  35.7689056  59.2431107  61.2766800
  34.6629906  60.2400055  61.0043831  56.8227158  29.7299347  38.4743385
  56.9266167  28.8788471  38.0487938  57.0364151  29.5661240  39.3928871
  85.1914597  45.7242546  41.3055382  84.9045334  44.9858704  41.8428459
  85.3087997  46.4420052  41.9278679  30.1232738  70.2110825  89.4480286
  29.5747929  69.7171478  88.8385773  30.5318508  70.8877029  88.9081345
  21.6258812  55.0391083  13.5798769  21.4792728  54.1165619  13.7887821
  21.5995865  55.0752831  12.6237221  69.6656036  22.8943977   2.8634288
  68.9076996  23.3168201   3.2676294  69.2921906  22.3272171   2.1888158
  24.0733376   2.4906559  36.9975395  24.1160297   3.3531234  37.4105263
  23.1696434   2.2051888  37.1319847  51.0417747  30.7970181  24.1747017
  51.9019928  30.9868298  23.8002262  50.8197784  31.5822906  24.6749992
  43.1320992  41.1102829  27.1899185  44.0290718  40.9104424  27.4577522
  43.0718193  42.0638580  27.2473106  48.3304405  59.2292862  55.5532303
  48.3166656  58.2910690  55.7424240  49.2421913  59.4875069  55.6883736
  33.8297310  50.7417259   9.6731939  34.7767029  50.7219467   9.5350418
  33.6340103  49.9126854  10.1097937  21.8508530  16.5208302  14.0431118
  22.5765190  16.9939461  13.6359262  21.5788250  15.8844166  13.3818922
  15.7786608  67.8746796  62.2660599  15.5152330  66.9952240  61.9951591
  15.9278183  68.3435898  61.4450226  15.1742849  47.0389595  84.5776825
  15.8139086  47.7146950  84.3529739  15.7028990  46.2970428  84.8715515
  47.2450867   6.4711561  73.0202408  46.5170403   5.8527584  72.9588852
  47.6981163   6.3918252  72.1807785  21.9740429  69.7965317  13.6384535
  22.8332996  70.1872025  13.4794283  21.8369446  69.8947754  14.5806770
  69.6975021  24.3592243   7.3208423  70.6149750  24.2727394   7.0620008
  69.5674744  23.6727028   7.9750695  12.4341946  28.3854866  70.7701492
  11.5313892  28.7033176  70.7827682  12.9160881  29.0524120  70.2810440
   9.2359896  38.2381630   5.5979972   9.9620333  38.5521164   6.1370029
   8.9990015  38.9894562   5.0542803  44.7896500  57.6665840  41.8636856
  43.9491196  57.2409134  42.0326347  45.0273666  57.3851242  40.9802246
  76.9774017  25.7571869  39.0883331  76.6172104  26.3916206  38.4686661
  77.0919266  24.9582386  38.5737495   7.2749262  60.0580864  75.7106934
   6.6824532  60.1711006  74.9674301   7.0618057  59.1916695  76.0572891
   8.1062956  17.0988235  14.2318373   7.2352486  16.7026367  14.2551594
   8.5819693  16.6736927  14.9454412  24.0276260   6.8877912  24.3177242
  24.1356049   6.9179664  25.2683353  24.8409443   6.4984589  23.9965286
  38.0418396  41.4686203  81.8202744  37.6784973  40.6212997  81.5628586
  37.4116669  42.1094589  81.4909668  65.7660599  25.4691067  62.0676765
  65.6013947  24.5289783  62.1403122  66.4076920  25.5460300  61.3615417
  49.6905937  18.3137264  54.3981171  50.3970985  18.5420456  55.0022278
  49.5847130  17.3678627  54.4999275   5.4195061  11.0999508  33.8066902
   5.0922022  11.7533817  34.4248581   4.9773917  10.2892342  34.0586929
  45.1499977  34.9900932  30.3609390  45.8796654  35.5286789  30.6671181
  45.5668564  34.2251358  29.9643307  58.2790413  28.4996147  43.4301910
  57.8529816  29.2910786  43.7592659  59.1208763  28.8040390  43.0912628
  30.4160213  29.9971561   6.2592602  29.4908657  30.1647987   6.4387493
  30.8054790  29.8551235   7.1220360  64.0203247  50.8588867  72.4234772
  64.5605164  50.4568748  71.7431793  63.6827431  51.6585083  72.0198975
  85.3849945  62.2723389  79.1606827  84.8394699  62.2135162  78.3763504
  86.0660172  61.6127586  79.0287781  74.2595139  55.7708054  78.3981018
  74.6309357  56.5303078  77.9492950  74.6253433  55.0167809  77.9356613
  67.5375443  52.6551514  22.5405331  66.9232407  52.6631889  23.2745609
  67.9983521  53.4916725  22.6046886  19.1386585  64.7666855  37.9995079
  18.5797272  64.2492218  37.4197998  19.4321995  65.4993515  37.4579735
   2.2403810  28.2764511  16.4286499   1.7231711  28.2425289  15.6239281
   1.7616974  28.8810387  16.9957180  50.8339195  14.2687120  67.9534836
  50.2626877  13.7670660  68.5351028  50.6611710  13.9121771  67.0821228
  33.2925415  23.6215897   4.3222251  32.9687576  22.8119450   4.7170281
  32.7850685  23.7145405   3.5159602  82.9320679   1.0910224  68.1238174
  83.3178635   0.3123231  68.5251007  81.9939499   0.9037402  68.0909805
  29.8126144  54.1361160  31.3018742  29.1969776  53.4772987  31.6230965
  29.5577030  54.9416466  31.7517338  10.2459936  40.5226212  18.9922657
   9.9813166  40.6533356  18.0817204  10.0207691  41.3448334  19.4275532
  18.2225380  14.4901342  77.1357803  19.1481037  14.4209442  77.3698273
  17.8358250  15.0110807  77.8395538  82.7184372   5.7006941  75.0532913
  83.4230270   6.2344337  75.4205780  82.0075607   6.3209429  74.8914719
  47.6546097  63.1426926  71.2866669  47.8870316  63.2592850  72.2078705
  47.3475571  64.0048218  71.0061493   9.5000448  54.7724113  18.8575039
  10.1745338  54.6315689  18.1930790   8.6778030  54.5718498  18.4103718
  33.4663086  61.3069382  81.5944824  34.1318703  61.9519768  81.3553467
  32.6659203  61.8194885  81.7080917  29.9767704  50.8843880  56.1705360
  29.5740776  50.0666199  56.4626427  30.2323341  51.3278198  56.9794159
  18.5864544  48.6303635  13.5304441  17.8834457  48.0109558  13.7262650
  18.3304920  49.4340630  13.9829741  51.5447350  37.6246948  27.8888531
  51.9705467  38.3396492  28.3618793  51.0532913  38.0582924  27.1912098
  54.8353500  19.8028641  37.2334061  55.6022072  19.2801342  37.4677544
  54.2173119  19.1704636  36.8668976  25.6521549  29.0691833  81.7796173
  25.8986549  28.8940029  82.6877899  25.2320271  28.2610302  81.4853210
   0.2109904  29.7530785  87.8941422   0.4273048  30.0979481  88.7604599
   0.0651561  30.5312309  87.3561478  54.0814743  15.4383354  37.7479286
  53.3203201  15.5457115  37.1775360  53.7102280  15.3020105  38.6196060
  67.1341248   8.7009783  12.5002575  68.0272293   9.0453043  12.4940615
  67.2248154   7.8058057  12.8268661   3.8591995  17.5956116  82.3647461
   3.6953344  18.5280571  82.5058975   4.5690975  17.3827953  82.9705429
  44.1514740  10.0365877  86.1355515  43.3858948  10.2446489  85.5999832
  43.8637009  10.1916065  87.0352097  41.9982834   4.9847651  23.2662640
  41.0441360   4.9330635  23.2100449  42.2940941   4.0812812  23.1546974
  35.2222137   6.6143842  77.1939316  34.3387070   6.8595991  77.4687347
  35.0869331   6.0085459  76.4653091  51.0042419   2.7422295  16.4012127
  51.5855789   3.2624259  15.8465242  51.4106369   2.7709539  17.2673817
   6.0695567  13.8747149  61.1249199   6.6484222  13.2263336  61.5258522
   5.2656569  13.3918858  60.9329453  59.5689049   9.2584972  40.4993095
  59.1049538   8.4286394  40.3883324  59.1514091   9.6667442  41.2577705
  75.3073196  12.4747429  62.4889412  75.5701294  13.3661032  62.7183838
  76.0802155  11.9416943  62.6753006  30.6006775   4.4330087  20.1469707
  30.1463642   5.2599421  19.9856892  30.4944611   3.9388709  19.3340874
  48.5366211  56.9776573  82.9123688  48.7335434  56.3902702  83.6420441
  49.3826408  57.1273956  82.4903946  49.6300774  13.2028885  76.5809097
  48.7703705  12.9527779  76.9194031  49.8032646  14.0577736  76.9751282
  58.8515663  35.6638527  15.0526943  59.1301384  36.5590477  14.8596659
  57.9320374  35.7482643  15.3048267  73.2733688  69.7285919  87.7374115
  73.0377884  70.6549759  87.7879105  73.5783234  69.6076889  86.8381805
  73.9273605  46.2795448  79.1435471  73.1296921  45.7997971  78.9203949
  74.1857147  46.7075424  78.3272705  66.9525146  68.4583664  42.7670555
  66.4281769  68.7971954  42.0414505  66.6394119  68.9386673  43.5335464
  31.1344395   3.9567411  38.3247681  31.1679497   3.1720901  38.8719711
  30.9349499   4.6663003  38.9354744  61.5918694  30.2262573  17.8525181
  61.1253586  30.4629650  18.6541252  62.3468895  29.7215672  18.1549454
  48.1002846  28.3765774  76.4543304  47.6824875  29.1189194  76.0177460
  48.7495880  28.0629539  75.8248291  28.3573322  70.6719971  43.2132607
  27.9719048  69.7990723  43.1378822  27.6088829  71.2678528  43.1814270
  53.9858513  63.9269638  12.2311449  54.8219490  63.5807915  12.5431337
  54.0559158  64.8730850  12.3583364  73.1087723   6.3553491  31.5611267
  72.9369736   5.5066829  31.1531048  72.2468719   6.7654700  31.6328983
  83.7623901  22.0031471   9.3712950  83.8553848  21.0566483   9.4795666
  83.2202072  22.1025772   8.5887423  85.7667618  21.8698006  72.5480957
  86.0142975  22.1204205  73.4381180  86.0907059  22.5840187  71.9992905
  32.0899925  14.1603937  47.6630745  32.6953697  14.5086660  47.0085068
  32.2674370  14.6743164  48.4508705  64.4407043  37.8349762  37.4745789
  63.8358154  38.5723152  37.3928909  65.1852264  38.0736504  36.9223595
   5.3961959   0.8663349  36.4846230   5.3695726  -0.0114964  36.1039200
   6.0819507   1.3194555  35.9940605  25.1587563  55.1513100  63.4702492
  25.6617832  55.8198929  63.9352188  25.6392117  55.0147972  62.6536980
   8.6739082  42.6316872  50.4051361   7.7783237  42.4605522  50.1138077
   8.6371298  42.5426102  51.3574715  28.8657284  10.5869398   8.7055836
  28.5285645   9.8003693   8.2767963  28.9295082  10.3471079   9.6300535
   6.3384614  71.0728683  30.8141193   5.9483833  70.2709885  30.4661865
   6.7359238  70.8058014  31.6429329  70.5840988  48.3517609  29.0126820
  71.0166321  48.6501732  29.8127403  70.6516647  49.0944290  28.4125900
   7.3237958  28.7116909  29.3870087   7.4590497  29.5225582  29.8773460
   6.7097931  28.2081585  29.9215069  49.3444214  64.6360245  44.8022537
  49.1567993  64.1050415  45.5762558  50.2293320  64.9698715  44.9495888
  56.8506966  19.5366917  19.4309826  57.6098061  19.7400475  18.8845100
  57.0791855  19.8788776  20.2952366  83.2265930  16.8152161  33.4474907
  82.4622498  17.1173401  32.9568520  83.5741425  16.0907936  32.9272461
  64.1760483  25.6285801  26.8083801  64.1088104  25.2093182  27.6662445
  64.6295929  26.4538498  26.9800129  65.9263611  41.6491089  21.1432877
  65.9043121  42.4484177  21.6694546  65.1803055  41.7326241  20.5494328
  17.7680264  32.4393654  56.4953041  17.3445606  33.2949181  56.5655632
  18.6837120  32.6062813  56.7186699  84.0798187  53.0756798  82.4504318
  83.5667267  53.8778114  82.3527069  83.4991531  52.3806801  82.1405334
  24.3568039   4.2881746  55.9250603  23.8095245   4.3043990  56.7102051
  24.1857376   5.1268039  55.4964905  78.2803497  43.7629776  58.1943893
  78.6729813  42.9217491  58.4276581  77.3381653  43.6211815  58.2860680
  26.2034893  65.6395416  20.8270531  26.2241325  64.6985779  20.6527367
  26.0463161  65.7052460  21.7689724  11.0646811   5.3205791  58.0608711
  11.6327543   4.8822570  57.4273109  11.6680431   5.7183194  58.6885567
  80.3969879  14.9081411  78.1189651  80.5833817  13.9810734  77.9705353
  80.9434509  15.3674154  77.4812622  56.5608788  61.0869446  36.2991142
  55.6415138  61.1745529  36.0474777  56.6053581  60.2464981  36.7550774
  42.2679367   0.6123873  31.0212002  42.7155151   0.0983780  31.6932888
  41.7925377  -0.0355201  30.5011597  11.2845955  16.3218098  43.5791321
  11.2106905  16.0767746  44.5014801  11.6959419  17.1860046  43.5931168
   4.0781994  10.7085762  87.8800888   4.6717367  10.2791901  87.2639923
   3.5841539  11.3288345  87.3439636   3.5680792  38.9442406  29.4372044
   4.5023284  38.7519684  29.5174656   3.5323379  39.8797951  29.2379875
  15.7832813  38.8279037  54.5915108  15.5267000  39.6647339  54.9789581
  15.8489113  39.0082436  53.6537476  82.2128448  68.4473419  20.2939148
  83.0609360  68.1588440  19.9566479  82.4199600  69.1942291  20.8556042
  57.0799904  13.0305414  21.4943848  56.8436852  13.8467226  21.0536575
  56.4415398  12.9472704  22.2026768  55.7881393  49.9363174  88.9787903
  56.2771187  49.3887825  88.3645096  55.2671471  49.3167191  89.4895630
  83.4608994  13.5444393  53.1456909  83.6514740  14.1096458  52.3970528
  84.2702255  13.0532999  53.2871475  84.5703430  61.6080399  42.2252617
  83.8880997  61.3498726  41.6054802  84.8765259  60.7829933  42.6018028
  56.8457794  49.0282784  80.8436432  57.3075447  49.3877296  81.6011429
  57.1908340  48.1401405  80.7520905  68.1015396  44.2957268   9.6085348
  67.5546036  45.0422401   9.8531027  68.7387466  44.6572876   8.9925203
   1.0268458  57.7496948  12.1535711   1.8325462  57.5114288  12.6121635
   0.3253215  57.4156723  12.7126093  71.9333878  35.0086250  33.4298058
  71.0592270  35.0130920  33.0398521  72.1039505  35.9253883  33.6458626
  80.5800476  70.9567337  67.9475403  79.9464951  70.9443893  67.2301178
  80.0513992  71.1062698  68.7313766   0.3873211  61.2628136  50.2647476
   0.7795579  60.7162132  49.5838585   0.8564392  62.0949364  50.2036896
  45.7933464  18.2641659  82.8670731  45.1349068  18.6515903  82.2903671
  45.2896156  17.8994598  83.5947266  37.1189728  56.5265312  39.9380264
  36.9879570  56.7449188  39.0153275  37.3067322  57.3657112  40.3584518
   6.7884402  38.4602432  54.9569397   7.1718817  38.7490082  55.7850800
   7.0161934  37.5323906  54.8981819  50.5096092   4.7545934  30.3082523
  51.0995445   4.0280943  30.5092697  50.8837814   5.5027423  30.7735500
  68.3729935   7.9126186  40.7392502  67.8796616   7.1664262  41.0799141
  68.9693604   7.5313921  40.0948563  58.4551315  11.8566523  32.8031921
  58.9000931  11.0141792  32.8952904  57.5346451  11.6284266  32.6734009
  46.5376740  35.4935989  86.0444641  45.9204597  36.0808792  85.6081390
  47.3990135  35.8607483  85.8456497  71.1802673  69.5232620  53.6180725
  71.2533188  69.4299698  52.6682358  71.9272995  69.0354614  53.9648056
  71.5794983  19.0667038  40.8210106  71.5191269  18.1214581  40.6828156
  71.1520920  19.2131672  41.6648750   3.2954330  13.3455467  86.7208710
   3.7162693  13.9849424  86.1461563   3.0693207  13.8425016  87.5070953
  26.9365234  22.4358807   4.6573615  27.1144009  23.3585434   4.8397980
  27.7457085  22.1091766   4.2640233  61.2074890  71.2618713  24.0867558
  61.6376839  70.4496689  24.3541412  60.2997360  71.0083237  23.9196377
  47.3115616  12.0382690  11.3467579  48.1887360  12.2625570  11.6573944
  46.7341537  12.6592503  11.7908411  30.4193611  58.1693840   3.7156632
  31.3061638  57.8845482   3.4950271  30.0680943  57.4618721   4.2562847
  16.9183369  49.5326195   0.5830425  17.1388588  49.6400795  -0.3421896
  17.2875900  50.3063736   1.0087049  42.3372459  17.7872753   5.9440498
  41.4172134  18.0279160   5.8351412  42.7843399  18.6177692   6.1072078
  54.2282753  26.9666824  26.9775600  55.0953979  27.3716164  26.9965725
  53.8880730  27.1699352  26.1062508  73.7205353  27.7060051   5.7016411
  72.7953033  27.5123787   5.8522882  73.7145538  28.4709587   5.1262784
  64.8021011  59.6806870  53.9934196  65.6312408  60.0387154  53.6762848
  64.6045914  58.9638252  53.3906517  79.9640732  66.8235016  10.6613102
  79.1161499  66.5044098  10.9702377  80.5524673  66.0751343  10.7611771
  51.3449287  29.1609440  26.4379807  51.1155510  29.4966621  25.5714302
  52.1381912  29.6398106  26.6780910  72.0982742  51.0282898  61.7826385
  72.6635132  50.7983246  61.0451775  72.1765289  50.2879829  62.3843498
   8.6255064  66.3299713  63.0409050   7.7076702  66.2835007  63.3085747
   9.1103878  66.4150162  63.8618126  36.5385933  70.9032135  18.5283756
  36.4598122  71.1352310  19.4536839  35.8430252  70.2621002  18.3821411
  12.2983027  29.8598595  86.2955246  12.5855789  30.7728443  86.2828979
  11.3426218  29.9097404  86.3159790  22.3640575  71.6417160  46.2099495
  22.6807461  71.3785706  47.0740623  21.4184647  71.4979019  46.2473907
   5.2414975  63.2121201  59.1272583   4.5109639  62.9415321  58.5710793
   4.8410993  63.7703896  59.7937775  44.7040939  56.9623413  26.9103680
  44.6132851  57.5036964  27.6945343  44.1745644  56.1860542  27.0926018
  56.8295860  57.1795120  85.7574539  56.9082184  56.2526741  85.5315857
  57.0739555  57.2223053  86.6819458  57.8033295  28.1520710  54.0588837
  57.9011078  27.2540092  53.7424126  57.5407715  28.6512947  53.2855339
  19.0954990  67.9299622  40.0643082  19.5453033  68.1322784  39.2439575
  18.1780128  68.1424179  39.8931084  10.3399296  46.2662544  60.9783401
   9.6711111  45.5887337  60.8789406  11.1688452  45.8052979  60.8493042
  65.6056747  27.1226234  64.6908035  65.3938980  26.3436279  64.1764603
  66.4309769  27.4365559  64.3212585  12.0624313  29.2694054  82.4495697
  11.9756804  30.2206841  82.5110168  11.9154625  29.0747852  81.5239563
  69.6734619  12.5365801  76.7124023  70.0086136  12.2961473  75.8486328
  68.7901535  12.8645535  76.5437927  27.4140377  22.5947571  86.1085587
  28.1312408  21.9612808  86.0849686  26.8638401  22.3066254  86.8369064
  71.8730240  68.9431610  39.6632309  71.4124985  69.6866302  40.0523224
  71.9784241  68.3226547  40.3844109   6.8132181  45.2328758  24.4586735
   6.2602553  44.4579468  24.5584164   6.4660058  45.6769028  23.6850357
  70.4093781  57.3683701  68.3107605  71.3157806  57.6276131  68.1450348
  70.0351105  58.1032333  68.7966995   5.1083002  66.3066406  65.7325134
   5.8212609  66.8860016  66.0013351   4.9110842  65.7908478  66.5143661
  48.5231590  54.0284424  84.8685913  49.2983437  54.3372650  85.3375778
  47.7952423  54.2108154  85.4628220  48.3201408  26.4424667  29.7598724
  48.7007217  27.3176003  29.6854782  48.1784363  26.1651745  28.8547401
  23.2315693  63.1023331  13.0838728  23.7332973  63.8468971  12.7520180
  23.7762280  62.3400116  12.8878098  69.4292526  35.2000465  32.2697029
  68.5649414  34.9298325  32.5798416  69.4375305  36.1506271  32.3817673
  72.1324387   9.7726498  83.3510895  71.1949081   9.6314907  83.4827576
  72.3382416  10.5347939  83.8923950  86.1470337  28.9859772  78.3418808
  85.5433502  28.6702404  79.0142746  86.3915787  28.2009354  77.8518448
   2.3585126  34.4735298  76.0684586   2.3693247  35.3417244  75.6655273
   2.7897701  34.5965576  76.9141006  22.7286835  36.5618134  69.6857376
  22.3310375  36.8344002  70.5126648  22.0240974  36.1143188  69.2171860
  80.6153870  53.3008347  87.0321198  81.0309906  52.4390373  87.0604782
  80.8170700  53.6920967  87.8821030  79.2900162  51.2272682  48.3046722
  78.6129532  51.3761520  47.6446342  80.0758820  51.6316757  47.9370995
  40.2802124  10.4942865  88.4615631  39.8372688  11.3419771  88.4234390
  39.6416359   9.8743153  88.1092987  24.6493187   9.8433475  23.6245384
  24.9825172   8.9776716  23.8607903  23.9757118  10.0275679  24.2791748
  14.0729923  18.2577057  -0.1871543  13.9745893  18.2357655   0.7647214
  13.2602911  17.8776512  -0.5207809  79.1738205  19.1561756  53.5788612
  79.5876923  19.1829319  54.4415474  79.5323105  19.9144325  53.1176033
  67.1413269  56.5016785  60.3511505  66.7685699  57.3119049  60.6987305
  66.6233826  55.8064041  60.7568130  60.4827232   8.4072657  46.0475082
  59.6241379   8.6628275  46.3847809  60.7657738   7.6985655  46.6253090
  68.2173309  37.5608406   1.4589826  67.8064117  38.3016167   1.0133051
  69.0878067  37.8785591   1.6988962  79.1084442  13.9454556   8.2787457
  78.4049988  14.2215538   8.8662539  78.8891678  14.3462620   7.4376135
  24.2704964  25.5553951   9.1470318  24.1412029  24.8756351   9.8084269
  25.1906548  25.4736900   8.8963051  27.9322014   3.5445957  47.5120850
  28.2295380   4.1578059  46.8399277  27.9140663   2.6955185  47.0705299
  10.0682335   9.6101418  45.3624535   9.3502150  10.1066799  45.7550507
   9.9378395   8.7142086  45.6731529  58.4735870  11.7323256  60.9051971
  57.9446716  11.6333828  60.1135597  57.8930740  12.1698017  61.5279770
  74.2465057  29.7674179   1.2609948  73.6880112  29.0862427   1.6355737
  73.9173203  29.8837891   0.3697461  57.4271088  23.3352661  18.1457081
  56.6940269  22.7545490  17.9417744  57.0248947  24.1954422  18.2663326
   1.1664449  55.0988159  50.3642006   1.9473667  55.2403717  49.8290787
   0.5155250  54.7557373  49.7519608  49.3011436  10.2132540   3.0373330
  49.9230003  10.7923937   2.5967395  48.4517212  10.6377277   2.9167528
  44.1856499  54.7725258  65.3668976  44.0557518  54.9770966  64.4408798
  44.1781158  55.6242256  65.8036804  14.4828758  57.2812462  88.1251755
  15.1263609  57.9287796  87.8373184  14.9602165  56.7274971  88.7430191
   9.9175348  52.6013756  65.1428909  10.1614456  52.7235336  66.0604019
   9.5289192  51.7271309  65.1127319  85.9545135  11.0792856  57.7660141
  85.5235901  11.8665257  57.4331589  85.2618027  10.6019773  58.2226982
  42.3938866  34.4778290  80.5772705  41.7765160  33.7601700  80.4356689
  42.3121681  34.6838455  81.5084610  64.9421997  21.2872467  68.6694183
  64.4855194  21.8090191  68.0095520  65.6391144  20.8449173  68.1847687
  53.6970673  11.8651924  32.5174866  53.2426491  11.9961452  31.6852665
  54.1295815  12.7018127  32.6884460  59.7940025   3.6570504  25.8954468
  58.9647102   3.4522591  25.4635124  59.6573982   3.4040618  26.8084469
  40.8532066  51.9654388  32.9265862  39.9202461  51.7522888  32.9460869
  41.1339111  51.8958473  33.8390503  85.6832123  45.4091759  34.8282242
  85.6021805  46.3440170  35.0172615  84.8030777  45.0595207  34.9673195
  63.5631065  46.2998009  66.6844025  63.3259659  46.5163765  67.5861206
  64.0955734  47.0397224  66.3924713  53.3655586  54.6996651  78.4249878
  53.0864525  54.5129318  77.5286331  54.3064957  54.8605003  78.3542633
  19.5159245  60.3661575  51.9752846  20.2322159  60.1383858  52.5679741
  18.8332767  59.7229309  52.1662903  48.1082115  48.9355812  49.4421425
  47.6628838  49.2507896  48.6556549  48.6742821  49.6616440  49.7041130
  71.2395782  54.7416153   9.1447897  71.1867752  55.6618958   8.8868675
  71.8066635  54.7411499   9.9159222  72.0701981  60.5223656   3.8518016
  71.3087234  60.5105705   4.4316702  71.8548813  61.1765137   3.1869974
  53.4746323  62.7445602  37.5100594  52.5205612  62.7814713  37.4421539
  53.7604446  62.3800125  36.6724167  14.9760952  44.0637856  13.7468929
  15.1587019  44.6930809  14.4446564  14.2543402  44.4548149  13.2545538
  13.3109159  18.7276382  63.5993919  12.4308138  18.6716652  63.9715729
  13.3667994  17.9808388  63.0032349  45.2254906  41.7549896  39.2632713
  45.0112190  40.9081879  38.8717995  44.8310928  41.7225990  40.1348419
  46.5893898  59.5398140  12.0609980  46.7600098  58.7737198  11.5130787
  47.4487038  59.9436417  12.1823769  47.1543007  64.8877716  17.0692863
  47.9680023  65.3694992  16.9207726  47.1661720  64.1898727  16.4142838
  53.4643784  54.4319572   9.8472872  53.5874481  54.8063736   8.9749928
  53.2517853  53.5127792   9.6855793  19.1571941  10.7778454  47.9272308
  20.0488644  11.1245728  47.8966217  18.5971336  11.5523958  47.8758926
  32.2849922  54.8323174  87.8799973  32.7182083  54.5717392  87.0671921
  32.3822174  54.0746269  88.4567871  78.8050079   6.6841645  47.1056099
  78.3265762   6.1801786  46.4473305  78.1479187   6.8974323  47.7681694
  85.8011093  63.7534828  68.2818604  86.6460037  64.1906281  68.1756210
  85.8240738  63.4008484  69.1714401  66.2515335  54.8562393  38.1668434
  66.3917236  53.9101562  38.2056046  66.8172913  55.1531982  37.4541283
  30.2177353  67.6021805  70.8466034  29.9679890  68.4487076  71.2170792
  30.0683823  66.9769135  71.5558014  34.3994560  30.5569344  83.0722275
  34.5862961  29.9218254  83.7635727  34.7882004  30.1754456  82.2850952
  15.4625750  61.9357185  56.1963577  15.3732662  61.1439476  55.6659279
  14.6550961  61.9729042  56.7090225  45.3684654  59.0612259  19.9485703
  45.6948967  58.3254242  20.4665241  46.0694275  59.2431679  19.3226452
  75.1471558  37.8473969  39.3236237  74.7947540  38.7344589  39.2517166
  75.7099533  37.8752480  40.0973854  13.2780247  20.7151566  72.0417175
  13.0293617  20.2197247  71.2613678  12.9024477  21.5846272  71.9031754
  84.3393402  35.0417366  19.5950470  84.1922073  34.3061066  19.0005436
  85.2702789  35.2434464  19.5006866  81.1202316  49.5721321  31.1884880
  80.2904434  49.1381645  30.9900932  80.9759445  49.9876518  32.0386391
  69.9190750  65.4106750  64.1500702  70.4439468  64.6306458  64.3297882
  70.5374222  66.0321198  63.7657661  47.1200256  37.7912292  76.6124420
  47.4038239  37.0117836  77.0901031  46.6773262  38.3273430  77.2703400
  26.4063950  10.2827539  15.8537502  25.9853210  10.3950653  15.0015087
  26.1656170   9.3969259  16.1249847  53.9804802  52.6000137  60.0938988
  54.1214027  53.5210800  60.3130112  53.4462967  52.6217155  59.2999153
   9.2913895  40.0904808  54.0821686   9.9536400  40.0497551  54.7720947
   8.4802999  39.8198853  54.5124512  58.2581291  39.2750320  55.5354347
  57.7390823  38.5368996  55.2160873  58.2671776  39.1677666  56.4865608
  21.6285973   5.5814533  57.9306297  20.6792278   5.6961079  57.9728546
  21.9692039   6.4614239  57.7697830  25.9482975   3.8649647  30.3865299
  25.7973251   2.9662447  30.6793461  25.1492100   4.3331175  30.6284504
  37.6842194  45.8212967  67.7745285  38.0847015  45.4850731  66.9727783
  38.1331139  45.3554993  68.4800415  74.7226181  28.5696926  39.8877258
  75.6562271  28.4422531  39.7192879  74.3506393  27.6883793  39.8538399
  83.7801132  28.1357098  42.6460037  83.1821747  28.1049728  43.3928337
  83.8893585  27.2202053  42.3888130  38.3197327  26.3147945  76.3456879
  38.5461960  26.9216976  77.0503998  39.0921478  26.3051701  75.7804337
  56.3329849  15.8259525  20.6644039  56.4266243  16.1403446  19.7651691
  55.8681679  16.5297432  21.1170139   9.0639353  11.2519464   7.9026775
   9.0883512  11.8616982   7.1652236   9.5006409  10.4648132   7.5771894
  47.9780045  33.6685333   4.7912569  48.1618195  33.7719078   3.8575768
  47.0326614  33.5248070   4.8347797  52.9281387  36.8918953  68.3832779
  52.6825371  37.2289581  69.2448502  52.1442719  37.0112267  67.8470459
   3.0668392  49.9922485  19.8366089   3.5576847  49.2779884  19.4302387
   2.5865610  49.5759659  20.5523415  50.8632965  49.3520279  35.9029961
  50.6175079  48.5468025  35.4475517  51.7735062  49.5030479  35.6481628
  16.4533863   4.2664981  62.7335777  16.8682232   4.7331262  63.4591103
  15.6832399   4.7929940  62.5193176  45.6963654  14.3971262  54.5078468
  46.6263962  14.5859985  54.6327820  45.6676407  13.4637089  54.2977562
  82.7266159  50.6622658  36.5931969  82.9890747  49.8166847  36.2294121
  83.5000763  50.9702415  37.0655746  67.0826721  44.2706032  82.1683655
  66.3327408  43.9767761  81.6511612  67.5935364  44.8097687  81.5645828
   8.2694063  42.0395851  30.2844276   8.3748779  42.9900894  30.3250599
   7.5828586  41.9024734  29.6316757   9.5885811  22.1617222  34.4749031
  10.4860401  21.9258804  34.2400093   9.6807480  22.7050171  35.2575722
  15.7806730  61.2919235   6.7086444  15.2657051  61.1429443   7.5016418
  15.3449812  62.0252838   6.2743769  38.1712990  67.0779648  28.5140228
  38.9032784  66.7005310  28.0261841  37.7103996  66.3218231  28.8774223
  55.6430092  41.8425789  34.5037117  55.8639526  41.8999634  33.5741272
  56.0221481  41.0113029  34.7891350  67.1902924  20.7462349  34.5149841
  66.7017212  21.4019127  34.0173721  66.5265427  20.1180172  34.7996178
   4.8397503  29.2591724  65.9845276   5.5436120  29.6589661  65.4736710
   4.0454626  29.4434586  65.4831543  71.5184555  27.8429604  72.6303864
  71.0074005  27.5888653  71.8619537  72.3113708  28.2400646  72.2700882
   6.9593430  46.7306519   6.9255028   7.1607256  46.7191544   5.9897976
   7.7592683  46.4158897   7.3465447  18.2464523  55.3233948  21.2546310
  17.8256435  56.1655388  21.0815678  19.1564941  55.5461807  21.4506435
  59.1055984  67.1784286  33.4727211  59.0615845  67.3195343  32.5270042
  58.5337944  66.4269943  33.6296349  20.7625027  69.5848007  50.5492516
  20.1673412  68.8450089  50.6706123  21.5898285  69.1850891  50.2809258
  23.2476292  55.9697723  78.8458786  23.2250481  55.2642403  78.1993942
  24.0587769  55.8229446  79.3324127  37.7462006  61.3339043  12.2631941
  37.8742065  60.6929893  11.5638542  37.6650467  60.8075409  13.0585499
  53.9186401  58.2005348  34.4245605  54.4042702  57.5697670  34.9560928
  54.2037086  58.0274086  33.5273438  31.2961521  48.3169556  43.1960220
  31.4064312  47.5791473  42.5962639  30.3700867  48.2933655  43.4370193
  35.2706184  50.8810158  48.1474190  35.5044670  51.0205612  47.2297745
  35.8578224  51.4588699  48.6347694   4.2002196  64.9581299  34.2499924
   4.1879883  64.0276871  34.4743996   4.6253033  64.9922562  33.3930397
  86.0448303  17.3720417  62.8825302  86.2781067  17.9452305  62.1522789
  85.8695984  17.9695606  63.6095047  83.8823853   2.8110933  38.1147461
  83.8480606   2.7679927  39.0703583  84.8144913   2.8901954  37.9118805
  20.9364777  32.6054192  87.1985855  20.9877567  32.1563187  86.3548431
  21.5216560  32.1085396  87.7703476  29.3747959  58.6137695  78.5793610
  29.7035427  59.4570999  78.8907242  28.4454803  58.7671432  78.4088364
  46.6483345  56.1940956  18.7545147  45.7164383  56.0938606  18.5602036
  47.0773087  56.1496849  17.8999729  53.1948700  18.1051750  36.1109734
  52.6182098  17.3746490  36.3346481  53.3951492  17.9770203  35.1837769
  54.2332306  27.6639099  32.9235458  54.2005844  26.9659328  33.5777588
  53.9139366  27.2538738  32.1197090  37.6599197  22.0555801  85.7871857
  38.0834923  22.7230167  86.3269501  38.3617287  21.4416733  85.5708237
  74.1795654  69.2289963  44.7709427  73.3897934  69.5616302  44.3445129
  74.7850189  69.0537872  44.0505562  49.1091995  39.0654716  19.9766731
  48.7257347  38.6810112  20.7649479  49.3356094  38.3135986  19.4292660
  74.5054016  43.4379501  14.5125332  74.8670578  43.9765625  13.8087320
  74.4129257  42.5677109  14.1247711  22.3068752   2.3511007  64.3137131
  22.8729343   1.7415063  64.7872162  21.5971317   2.5439770  64.9263229
  40.0484238  49.2092209  86.1646500  39.8402367  48.3177299  86.4441757
  39.3270454  49.7405167  86.5016479  80.8029556  46.2208405  50.5339890
  80.6628265  46.9929581  49.9858704  80.1272202  45.6030655  50.2547684
  72.9825058  12.4268599  34.8317528  73.6977692  13.0476227  34.9706039
  73.0060120  11.8582888  35.6014290  53.5160599   4.9376168  77.1524658
  53.8310432   5.3755789  77.9431610  54.2110367   4.3186865  76.9284821
  49.9668884  66.6112671  64.7580338  49.8812866  66.5834045  65.7109909
  50.8645020  66.3245850  64.5897064  16.0134926  30.2595367   7.9991298
  15.1451902  30.2285614   7.5974765  15.9036264  30.8246613   8.7638493
  70.8422546   3.7282252  66.3286057  70.4963074   2.8574936  66.1326981
  71.0341568   3.7043571  67.2660675  56.3341675  58.5119781  63.5524368
  55.6278305  59.0563049  63.9003258  56.8893967  59.1218033  63.0665703
  57.7190399  44.9598045   2.4081016  57.8206062  45.9099503   2.4640996
  56.9326744  44.8338737   1.8770587  18.0691280  65.6906815  33.6014481
  18.8569221  65.2205734  33.3283043  17.4416275  65.5372162  32.8951035
  43.8927727  44.6977844  62.1300392  44.2822151  45.2971687  62.7666740
  43.1252174  44.3400459  62.5762596  53.7118874  51.3988991  26.6587734
  53.5172043  52.3359528  26.6748085  53.8891106  51.2068138  25.7379436
  86.9710846  24.4532547  81.2272949  86.2355804  24.2272377  81.7966614
  86.9397354  25.4077816  81.1630554  86.1426315  56.5297966  34.3386726
  86.4579620  56.1459656  33.5204620  86.8587341  57.0941582  34.6301041
   4.1170692  42.9410286  13.8838596   3.2126751  43.2534142  13.9106236
   4.6466160  43.7379761  13.9100323  40.6330299  66.1666641  77.0122452
  41.2043686  65.5129242  77.4152679  40.2411385  66.6308823  77.7519455
  49.1909981  71.1783905  13.7677689  49.4082375  71.3840637  14.6770201
  48.7285194  70.3416824  13.8153858  52.3897285  50.9029121  15.7853413
  52.0785751  51.0154686  14.8871498  51.8179245  51.4642067  16.3090076
  83.7458496  21.0848370  63.5888329  83.6095428  21.8747883  64.1119308
  82.8675232  20.7250786  63.4649658  80.9954147  21.4561825  44.5987625
  81.2118835  22.3431511  44.8862648  81.8253632  20.9812355  44.6416855
  26.5787907  45.5763092  69.2823639  26.5947857  46.1395340  68.5085678
  27.4760952  45.2525749  69.3615494   1.1246564  32.1460838  11.5967264
   0.8551908  31.3316345  11.1721201   2.0779989  32.0822372  11.6541176
  51.7339287  14.2816162   6.9302211  51.6606369  14.9791670   7.5815911
  52.1352310  14.7041960   6.1708694  18.7666893  44.9443398  76.2241974
  18.4133587  45.7499123  75.8467865  18.2783337  44.8273354  77.0390930
  63.7464867   2.1054592  31.0246506  63.3251076   1.8268024  30.2116165
  63.9322472   1.2898232  31.4899063  32.1574020  63.0272217  32.1869049
  32.9711533  63.0436211  32.6906624  31.6527824  62.3098679  32.5703049
  26.3496227  63.2668114  45.3287010  26.9713631  62.8538628  45.9279900
  26.0997906  64.0807114  45.7661705   4.7560720  24.6041088  32.6896973
   4.4163389  24.0436974  31.9920216   4.5115323  24.1544666  33.4985580
  11.9613438  58.9402084  65.8729935  12.1445093  58.7710114  66.7971420
  12.5291462  58.3311653  65.4008713  36.0457878  18.4675541  26.4517918
  35.3492584  18.4160595  25.7972469  36.4403801  17.5954742  26.4507542
  64.0248489  15.2378616  16.0090218  64.5985336  14.4994755  15.8043146
  63.6308594  15.0088749  16.8507881  18.8799210  66.4983368  48.1074219
  18.1053143  65.9590378  47.9481430  19.5956993  66.0184021  47.6908226
  49.6995811  57.3814240  62.3955612  50.1659203  57.4217262  61.5606117
  49.2901535  56.5162201  62.3997040  47.9013977  43.3538513  84.2378082
  48.2184219  43.4166451  85.1388016  47.6185265  44.2422218  84.0209732
  30.4913120  61.1964188  87.8885880  31.4333344  61.2221222  88.0564194
  30.2544804  62.1069717  87.7124252  86.1603622  17.4667034  10.9871016
  86.4865036  18.1582508  11.5629730  86.3440704  16.6549015  11.4598179
  86.4846497  47.7427444  77.7014923  86.5844345  48.3590279  78.4270782
  85.8879547  47.0732918  78.0361862  53.3377495  47.2145500  19.4333534
  53.7714424  46.4511337  19.0521183  52.8410492  47.5945587  18.7087059
  82.9933319  39.5529137  52.3451195  82.9894333  40.0672455  53.1523857
  82.0863800  39.5789261  52.0401688  26.6538181   8.4449997  21.5300369
  26.6723957   9.1310062  22.1973305  26.0040112   8.7461376  20.8949776
  30.9481430  56.8881378  39.2782249  31.8904114  56.9307365  39.1152916
  30.7935677  55.9850426  39.5552711  69.4329605  51.6216888   7.7074547
  70.3584366  51.3776283   7.7201991  69.3385239  52.2407265   8.4314032
  17.6349754  10.5380793  76.0327301  18.1023006  10.5412426  76.8680878
  16.9199448  11.1624060  76.1559296   3.9891398  45.5370903  64.8286362
   4.6067977  46.1957054  65.1463699   4.2799053  44.7204628  65.2346039
  61.1946983  62.1121368  43.7602119  61.8961716  61.5446281  43.4406853
  60.4203873  61.8346748  43.2706299  83.3386688  67.6816788  81.8516464
  83.2274857  67.4575729  82.7755814  82.7495499  67.0863647  81.3882141
  70.4840164  11.8772850  44.5297775  70.1690292  11.1056690  44.0590057
  71.4346085  11.7687778  44.5585861  75.7370605  45.0114746   0.9084449
  75.1123428  45.7242508   0.7746341  75.2414169  44.2176666   0.7073398
  29.3201332   0.7294443  30.9671764  29.0203514   1.5485945  31.3613281
  29.1752701   0.0700485  31.6457367  82.0460587  57.7999153  22.5016994
  82.7055435  57.4682579  23.1110573  81.3147354  58.0632896  23.0602970
  84.8561859  50.7968788   9.5799532  85.5701599  50.9460754  10.1998072
  85.0271683  51.4104691   8.8654585  42.5369377  61.5268364  31.5117798
  42.1239433  62.1271935  30.8911018  42.1657677  60.6703911  31.2997227
  40.5657692   0.7204744   1.8352764  40.8802681   1.5272610   2.2432206
  40.1837502   1.0050353   1.0050242  69.2344360   3.9412258  33.8808022
  69.1992950   4.5958791  34.5782471  69.6677780   4.3886209  33.1539726
  64.4971695   8.3301973  82.0293884  64.7377090   9.1569090  81.6111526
  63.5482750   8.2724218  81.9176178  86.3079605  54.9216232  36.6921463
  86.0126801  55.3569450  35.8924370  86.1991959  55.5806847  37.3777466
  79.1026382  32.8641281  52.3051224  79.7181473  32.3087387  52.7835846
  79.1716766  32.5707550  51.3966064   4.6575780  24.2390213  45.5774040
   4.7284575  24.9269848  44.9156532   3.8933661  24.4856224  46.0983658
  75.3823242   0.5677757  45.4077148  74.9504395  -0.2855514  45.3684731
  76.2521973   0.3799714  45.7602501  11.2085934   8.9091902  41.9414978
  10.6172400   8.9994316  42.6887512  12.0625153   9.1813869  42.2775879
  54.7873192  34.8504715  68.4018173  54.8730698  35.2502899  69.2672806
  54.0351028  35.2919617  68.0074921  19.2468452  58.7302475  16.5506039
  19.1137676  59.5341415  16.0483379  19.1325970  58.0268555  15.9115248
   5.0999751  32.2848434  66.9242325   5.4931111  32.0649719  66.0796432
   4.3274980  32.8041191  66.7009277  57.5381775  48.6028595  69.2900467
  57.5823631  47.6533089  69.4024582  58.2245216  48.9441147  69.8633804
  64.3231125  15.8522606  80.5338898  63.7537689  15.6553535  79.7900467
  64.2869034  16.8051071  80.6175842   7.4353824   5.2409506  33.1778107
   6.6413474   4.9921856  32.7046738   7.8400946   4.4082923  33.4209557
  55.3327789  40.7549171  75.8677216  56.0547867  40.1398315  75.7388611
  54.9838028  40.5369453  76.7319794  50.9193001  62.3830757  54.7418137
  51.1961632  62.0918007  53.8730583  50.8641243  61.5787468  55.2578011
  64.8346405  22.0701218  16.7798786  64.9157791  22.7923393  16.1569424
  65.5680389  21.4911366  16.5721722  22.3025551   1.8031570  75.8723831
  22.2010479   2.1314025  74.9789734  22.8854504   2.4341786  76.2946091
  77.8475113  38.4949799  58.0370483  78.2620544  38.0598869  58.7820854
  78.0666962  37.9440269  57.2856255   6.9691725  59.9295578  12.4231091
   7.1605310  60.7983856  12.0699062   6.0780873  60.0010490  12.7652893
  57.1111679   4.7056170  19.8543491  56.9745369   4.0448627  19.1754017
  57.8389168   5.2358298  19.5295601  38.7385292  66.4786072  15.8422880
  38.9152260  66.9642715  16.6479816  37.9688797  65.9474869  16.0466843
  59.1180687  53.9531021  45.3077354  60.0064163  53.5972557  45.3288002
  58.7698517  53.7798538  46.1823540  70.6330566  66.7623444  80.3530121
  70.3037109  66.3158112  79.5730286  70.5909576  67.6927414  80.1320724
  41.0960655   2.7225981  84.9082870  40.4550552   2.6858268  85.6182022
  40.6413193   2.3453736  84.1551971   9.8993168  36.1393776  42.8719101
  10.1370564  36.0561218  43.7953682   9.1824846  35.5164719  42.7520332
  68.8114548  63.8073578  49.7251587  69.1794357  62.9387169  49.8872986
  67.9463730  63.6353951  49.3532791  23.8851452  71.2507477  75.5484848
  23.8541279  71.0547333  74.6120834  23.2793751  71.9834366  75.6600037
  85.8096466   4.9465923  23.6489067  86.2100372   5.2879472  22.8492832
  85.6726303   5.7193551  24.1969013  78.3009796  30.6337872  40.0538902
  78.2190323  29.8239059  39.5502930  78.1099091  31.3282280  39.4234314
  29.0170345  49.7008743  31.5337143  28.6772919  50.5832062  31.6830502
  28.8996696  49.5547180  30.5950470  64.6585846  14.3054457  85.3253555
  65.1225281  13.9395247  84.5722961  64.1329117  13.5784941  85.6591797
   8.8916626  46.6819534  10.6194830   7.9572144  46.8894081  10.6187210
   9.2421780  47.1529083   9.8634586  41.2576256  17.8955250  21.5984554
  42.2113647  17.8712902  21.5208397  41.0155983  18.7735806  21.3040504
  57.1753883  36.7596359  27.6587029  57.0290680  36.3429680  26.8094635
  57.3938980  36.0360756  28.2460232  33.3497353  23.7840252  35.6581345
  32.6180038  23.3044968  35.2697372  33.2329559  24.6848354  35.3562469
  36.3561783   7.3689866  23.5422764  37.0230408   7.9256573  23.1402264
  36.6223755   7.3004637  24.4591599  40.5576820  47.8992882  83.4515762
  41.0260162  48.4552650  84.0743027  40.3871040  48.4699211  82.7022324
  25.6798382  25.7663288  75.6585083  26.4718227  25.6871185  76.1902161
  25.9958038  26.0404282  74.7975388  27.5309391  71.6579819  76.9426193
  27.3372059  71.0418015  77.6490326  28.4261627  71.9484940  77.1169968
  32.0268173  18.6946201  19.4277248  31.0753479  18.6215439  19.3529015
  32.2310600  18.3030720  20.2769642   3.2571456  26.8634071  18.5354404
   2.8617160  27.0792351  19.3800030   2.6968768  27.2960339  17.8911076
  30.3134861  34.0316162  84.0365372  30.8253880  33.2934875  83.7058487
  29.9889259  33.7360420  84.8871460  18.6901989  33.3130188  82.9358673
  18.9584427  33.6423988  82.0780869  18.7094765  34.0826263  83.5046921
  86.2909012  30.2215710  53.4326897  85.8150940  30.2171383  52.6021347
  87.1718445  30.5168171  53.2024727  54.4491882   4.1153731  48.3233681
  53.7006340   3.9846690  47.7412872  54.3943672   3.3936865  48.9497795
  29.0524921  29.2805920   2.5685356  29.8674107  29.3337536   2.0692241
  28.8230572  28.3514042   2.5543017  60.8459702  65.4476776  11.1022310
  60.6398277  64.8863907  11.8496866  60.2237015  65.1826706  10.4248924
  40.4489937  42.9212723  30.7291794  40.6099815  42.4369278  31.5389500
  40.5802116  43.8386803  30.9687023  14.7309065  37.2244911  79.7804260
  13.9152575  36.8670349  80.1313858  15.0367870  37.8304939  80.4552765
  64.9188232  51.7302361  33.1363335  65.5700912  52.3970718  33.3540764
  64.7443314  51.2859306  33.9660187  86.9150009   1.1329883  79.7946701
  86.7752380   1.1017663  80.7410965  86.3981247   0.4038224  79.4520493
  84.0321579  61.9122543   0.4951138  84.3355026  61.7945671   1.3953147
  84.0599747  61.0336838   0.1162053  74.8483047  71.0568619  71.5667114
  75.8000488  71.0103149  71.4758530  74.6297684  71.9602890  71.3380432
  76.0660400  35.6350899  75.5568695  76.8095398  36.2140541  75.3888397
  75.6771545  35.4882622  74.6946411  52.3459129  58.2434044  22.2638054
  52.7225304  57.6160355  21.6467152  53.0137444  58.3422928  22.9423733
   7.1087222  43.7413101  69.1230316   7.2035360  43.5324211  70.0523376
   7.6908865  44.4884567  68.9848785  50.6657944  40.8059425   2.9757574
  50.9710617  41.5043449   2.3967252  49.8019295  40.5731583   2.6354895
  37.1055450  60.2277985  67.6040726  37.7278099  60.7364120  67.0841446
  37.3354378  60.4241714  68.5122681   8.7731018  21.7774601  81.3793335
   8.5320024  21.8531437  82.3025742   8.5097017  20.8902550  81.1349564
  39.2392311   5.8519249  28.0414963  39.7578239   5.4598436  27.3389549
  39.4853821   6.7768974  28.0333099  58.4452515  41.8327980  52.5443459
  58.2645187  41.6950188  51.6145172  57.8507004  41.2333145  52.9953041
  26.7871857   5.8496046   9.0455189  26.5498257   5.5101962   8.1825628
  26.6281509   5.1184683   9.6424942  69.6738052  20.0621586  74.7726898
  68.8178864  20.0900059  74.3450623  69.5372925  19.5154419  75.5464401
  65.7349548  67.8505783   2.2197433  66.2679367  67.1205521   1.9047291
  64.9564896  67.8365402   1.6629453  27.1923409  41.4922829  70.8906403
  26.4881096  42.1354370  70.8091278  26.7551918  40.6456184  70.7995987
  46.5754547  30.2606907  75.1817627  45.8567810  29.6544933  75.0021439
  46.3393097  31.0588837  74.7091599  41.3340492  41.9549370  21.2438698
  42.2060699  42.3001785  21.0525055  41.1925201  41.2802620  20.5797806
  71.8883667  63.8192329  47.5766754  71.9061050  64.3892975  46.8079491
  71.4241180  63.0353928  47.2829208  39.8606567   4.3276949  59.7699280
  39.7240562   4.9507580  59.0562325  39.0602760   3.8029537  59.7862511
  54.5264931  22.0129070  52.4017258  54.4183617  21.8143253  51.4716187
  53.8955383  21.4442101  52.8429871  42.9357605  52.4479446  68.4800110
  42.6683273  51.8922882  67.7479248  43.7076263  52.9134483  68.1578903
  77.6696625  15.8448896  39.7954140  78.6068115  15.7773514  39.6125832
  77.6230927  16.0959225  40.7179337  74.9237823   9.2828131  13.5447063
  74.2282715   9.6510868  14.0895615  75.5781784   8.9711733  14.1699133
  62.8295822  39.9844856   7.0056224  63.5220299  40.1211472   7.6522098
  62.9622192  39.0876274   6.6985660  83.1934280  54.0770569  58.7245827
  83.9053116  53.4479408  58.8414764  82.3976669  53.5721550  58.8921432
  66.7047272  20.5147934  45.5360603  67.6260223  20.2664814  45.6121979
  66.7131653  21.4719200  45.5443840  34.5042267  36.2946167  22.4901104
  34.9314194  35.5762901  22.9567451  34.8960724  37.0863037  22.8587818
   1.4059830  23.6567345  49.6616669   1.9042485  23.1966763  50.3371773
   0.5978351  23.1512947  49.5741501  20.7071648  12.1070461  32.6932220
  20.5074482  12.4484901  31.8215790  20.8155785  12.8872681  33.2370338
  71.6692429  64.7465820  35.3458290  70.9023132  64.2764893  35.6730385
  71.5424881  64.7810974  34.3976860  60.7186813  58.2535591  23.9487438
  61.5300903  58.1778908  23.4466286  60.3707123  57.3623047  23.9773312
  73.9364014  69.9446793  77.7422791  74.2977448  70.6038742  78.3348389
  74.4510040  70.0356903  76.9403229  45.3208160  26.1765079  22.0114346
  45.8711166  26.4693012  22.7378464  45.4286385  25.2255020  21.9974689
  61.0387268   3.9276316   5.1443520  61.6710587   3.2545540   5.3960605
  61.5560379   4.5751448   4.6654477  39.1537476  17.6011486   1.7582804
  39.9189415  18.1694717   1.6704146  38.9216080  17.3712082   0.8585753
  18.4701557   4.0565042  80.3034592  18.2047405   4.7342076  79.6817627
  18.0534058   3.2579455  79.9796448  57.6011963  48.8601379  56.2340584
  58.1192055  48.0941582  55.9867363  56.9997330  48.5362053  56.9045334
  47.0920486  71.0625839  30.1207218  46.3520699  71.6514359  30.2687321
  46.9100609  70.3048477  30.6765537  22.1561165  66.5817184  33.0024834
  21.6654949  66.6647415  32.1847878  21.8072834  65.7898636  33.4117584
  10.5150070  20.3227463  74.5540771  10.8805161  19.8023605  73.8386536
   9.6038952  20.4712830  74.3010025  80.2213135  66.9693909  44.1969528
  80.7197647  67.3461380  44.9221001  80.8421402  66.9406967  43.4689560
  23.1807098  22.8710613  20.8585625  23.1730099  23.7551994  20.4918575
  23.2359314  23.0046921  21.8047791  84.5495377  46.2042694   3.2296751
  83.7307892  46.4337311   3.6692545  85.0430603  47.0238762   3.1995103
  20.0883617   8.1223335  80.3605804  20.5238571   7.6651349  81.0799789
  20.7113018   8.7986841  80.0946274   2.1875856  22.0601730  53.5099831
   2.2142265  21.5065002  54.2903481   1.9466702  22.9262085  53.8388786
   3.8426323   3.3314755  14.6060257   3.5021293   4.0253024  14.0413189
   4.5050921   2.8921382  14.0727701  17.0737324   2.0726151  16.6971836
  17.0681038   1.5174979  15.9174109  18.0018253   2.2006304  16.8933601
  20.4737282  49.3195457  63.2646446  21.2306366  48.7562790  63.1032448
  20.1842041  49.0848694  64.1463089  18.5985241  58.6955223  33.9159775
  18.6934223  57.8923187  34.4279251  17.6579666  58.7657814  33.7527390
  18.8000908  34.1467171  80.3718338  18.7593517  35.0953140  80.4932098
  19.5319519  34.0135384  79.7694473  21.4439030   1.5208786  26.3507652
  21.5501041   2.4658093  26.4605789  22.0273361   1.1366386  27.0051346
   2.3487494  44.1671219  16.9263687   2.2166300  43.8225784  17.8095818
   2.2660410  43.4027100  16.3562222  71.7227631  57.5920601  34.7687225
  72.1109695  57.0990639  35.4915504  71.2593231  58.3141899  35.1929703
  45.5461922  36.0201149  13.0791645  45.3614044  36.0053711  14.0182428
  44.8420525  35.5027237  12.6883535  52.5276375  71.1393967  58.1947289
  52.2097244  71.6311798  58.9519005  51.9057007  71.3455353  57.4969215
  52.1096115  47.9263992  65.6121063  51.4651756  48.2725677  64.9947739
  51.6508408  47.9078674  66.4520035  50.1778831  50.1979752   7.2159472
  49.7771225  50.9445496   6.7706928  49.6990776  49.4374084   6.8865376
  80.7366943  50.0491447  38.3598671  80.9209747  49.2580986  38.8663406
  81.4703522  50.1187706  37.7490196  70.7215500  68.1026993  50.8154678
  70.2648239  67.5772858  50.1585274  70.6741867  68.9983368  50.4810562
  83.8855743  31.0826130  71.9309464  84.3946991  30.9669685  72.7332230
  84.5380402  31.2840061  71.2601547  27.8999767  39.5110283  74.3586655
  27.2602673  40.2188339  74.2810898  27.7940674  39.0032349  73.5541992
  64.9551239  12.2116566  37.0116920  65.5032043  11.9951096  37.7659798
  64.0581970  12.1156273  37.3319054  10.9817533  22.2159119  55.9693565
  11.6171427  22.1221218  56.6790848  11.1373196  23.0946598  55.6231842
  56.1490707  46.2152672   8.7804556  56.0145111  45.9559021   7.8689423
  56.8016891  45.5980911   9.1112413  76.8709030  31.0551510  52.7111511
  77.4445190  31.8070488  52.5633430  77.3944702  30.4552460  53.2423973
  73.0139008  33.0385132  23.1070557  73.6609573  33.3103333  22.4561634
  72.3361740  33.7132988  23.0673409   3.6927948  66.8998642  30.7667694
   2.9709938  66.2735443  30.7123871   4.4449539  66.3752594  31.0411434
  18.9107704   9.6308289  83.4608383  18.8505001   9.9581165  82.5633469
  19.3570251  10.3285227  83.9407425  46.0908279   2.1324053   8.6453485
  46.2333336   1.4932382   9.3434811  45.1743698   2.3915169   8.7412519
   9.7508173  10.1298618  31.6245174   9.9673948  10.8260651  32.2447014
   9.4326220   9.4119577  32.1718712  45.2611351  53.5683174  67.3445053
  46.1326447  53.2700424  67.0842438  44.9519196  54.0835686  66.5994339
  56.4433403  21.4629841  35.7643700  56.0080719  20.8813248  36.3876266
  55.7804451  21.6372509  35.0962143   8.9512768   7.7435384  43.1173096
   8.6445723   7.6388764  44.0179825   9.3775148   6.9116201  42.9112396
  46.2396774  13.2974081  74.1622620  45.5450745  12.9371281  74.7135849
  46.3236313  14.2074461  74.4468918  13.5125275  25.9497204  70.0741501
  13.9412279  26.2073994  69.2580338  12.9116554  26.6695175  70.2667007
  80.5545959  63.1492233  53.9269066  80.4105377  62.7701759  53.0598412
  81.1278000  62.5234108  54.3696632  81.1689224  64.3072815  19.6984539
  81.4366150  65.0558167  20.2316303  81.7765884  64.3104782  18.9588852
  85.8714676  28.7272415  44.9579735  86.1661682  29.0669765  44.1130066
  85.0196609  28.3316402  44.7731514  61.7970200  30.1120987  45.2426033
  61.5013580  29.2041321  45.1761932  61.5804482  30.3695774  46.1387253
  62.5043640   8.5494270  44.3342400  61.8764763   8.5878210  45.0557098
  62.1062279   9.0770454  43.6418991  53.6515503  54.7078285  13.5797539
  54.0600281  54.3159294  14.3516302  54.3782997  54.8610916  12.9759531
  49.0423317  68.8125381  77.1475372  48.6037369  68.5434647  76.3404083
  49.3870888  67.9989166  77.5154800   2.0502989  63.7779388  36.3812675
   2.1636317  62.8485718  36.1821175   1.4340168  64.0913239  35.7192879
  20.2969933  35.4549484  87.2391510  20.3108540  34.5085335  87.0965424
  21.1689777  35.7495651  86.9763336  66.1090012  33.8820572  66.2820740
  65.7976990  34.3732224  65.5217590  66.9062424  33.4487610  65.9772720
  38.9942398  46.5446625  74.4146271  38.0976257  46.2201538  74.3308716
  38.9600067  47.4356041  74.0663681  64.5268860  54.5623207  49.7980537
  64.4134903  55.1936226  49.0875397  63.9701500  54.8927040  50.5031281
  72.3750458  23.3810635   1.6764826  72.0844879  24.1021957   1.1181132
  71.5658569  23.0071774   2.0252743  47.3138084   0.7370801  10.5895329
  48.0867844   0.4934603  11.0988359  46.5901375   0.2817975  11.0199366
  80.7825546  48.6220512  12.7985716  80.8729935  47.7308922  12.4611006
  81.5320129  48.7338982  13.3834124  21.1657257  54.4486008  28.1323147
  20.4814034  54.8784142  28.6453362  20.7890034  54.3604240  27.2567940
  44.9313431  64.1857376   6.8184295  44.4530449  64.9995651   6.6598411
  44.8272896  64.0256577   7.7563949  59.0114784  21.0586414   2.7189512
  59.1440277  21.1502838   3.6624892  58.4328537  21.7849293   2.4867165
  24.3693466   6.8353038  78.0537720  24.6695976   6.4931931  77.2117233
  24.8811817   6.3542089  78.7040100   4.7247648  15.6213694  52.8789864
   3.8644235  15.2671738  53.1039085   5.2054505  14.8744707  52.5221748
  51.8862648  29.3972263  32.7794304  52.6547890  28.8290825  32.8324661
  51.3341904  29.1222992  33.5114555  80.2276382  14.8436975  59.3200378
  80.3843994  14.2263231  60.0345345  80.0103683  14.2910433  58.5693054
  36.2779465  26.0227165  84.5736008  36.0233536  26.2645321  83.6831207
  36.6817284  25.1597748  84.4812775  69.0895309  63.8669281   3.2179272
  69.3863831  64.7309418   3.5035856  69.8830643  63.4322090   2.9055974
  13.3105860  61.0169640  40.4504318  13.0334158  60.7814484  41.3358383
  12.5216303  60.9165230  39.9178047  81.6796494  29.6133804  31.0983505
  80.7679825  29.8717136  30.9628296  81.9077148  29.1180744  30.3116550
  47.6456871  66.6622925  23.0773869  47.5452347  65.7717133  22.7412281
  47.2564621  66.6337128  23.9514103  52.5873642  67.9288177  15.2188072
  51.6498566  68.0056763  15.3960075  52.9159813  68.8261185  15.2743855
   3.4239299  13.2839317  76.0944061   3.3517880  13.7713127  76.9150620
   4.2321057  12.7792282  76.1858215  46.7865868   0.9069124  32.8393440
  47.0329018   1.7989573  33.0839195  46.3851700   0.9976904  31.9751358
  56.7879410  36.8455276  77.0944824  57.2081680  35.9941368  76.9729385
  56.0590897  36.6700935  77.6896591  50.9242668   3.8772891  34.8233414
  51.0116806   4.6734381  35.3474960  51.8132210   3.6904004  34.5215721
  59.6205864  57.7656975  71.6924362  59.0599060  57.0689011  72.0335312
  60.5059357  57.5081253  71.9494324  76.7647247  63.1904373  70.4820404
  76.2507706  63.9293900  70.1564178  77.4481735  63.0654030  69.8236313
  77.9118195  43.6154633  72.2478333  77.1686935  43.0126419  72.2721939
  78.5017776  43.2420425  71.5930481  62.4552269   8.1055431   7.5725613
  62.5188751   8.2195721   8.5208111  63.3576889   7.9623966   7.2874250
  58.9842911  49.1460915  45.1558304  59.0629654  48.3265915  44.6675072
  58.3745537  49.6743088  44.6406250  48.7766762  46.0429955  65.2212448
  49.7290192  45.9817848  65.1468735  48.5814819  45.6945724  66.0911484
   3.2866991  67.6537247  34.1169662   3.1622593  67.7487335  33.1726570
   3.5932627  66.7538757  34.2288132  24.0003738  13.1335354  70.2629395
  23.2749596  13.4321308  69.7144470  24.4645061  12.4962187  69.7201309
  11.6533585  48.9427605  44.5763321  10.9401426  48.3222733  44.4261551
  11.8776693  48.8308258  45.5001221  23.4637852   1.5920359  41.8899879
  23.0607948   2.1216786  42.5779610  23.7606297   2.2291059  41.2401733
  70.7601776  24.4687595  35.5404739  70.1455383  23.7394943  35.6218185
  70.5761032  25.0228825  36.2989578  70.4058914  44.1557884  34.5226135
  69.5870972  43.8415222  34.9060669  71.0182266  43.4289513  34.6365662
  69.5474548  15.6697693  51.6960564  68.9415436  15.1594448  51.1587715
  70.3799896  15.2023621  51.6278419  53.9132576  40.0286903  14.6411133
  53.2044868  39.4357567  14.3915062  53.4855995  40.8768768  14.7591066
  36.1118698  69.6106262  60.0300789  36.6786079  68.8392410  60.0295181
  35.5974426  69.5292969  60.8331909  13.1865578   0.5197846  69.3730469
  13.1512337   0.4829357  70.3288879  13.9016113   1.1270944  69.1830368
  84.3044434   1.0228370  73.6859207  84.6352692   0.4908824  74.4096680
  84.4955139   1.9244298  73.9444885  11.3693666  31.8958683  19.5780506
  11.8458614  31.2205334  19.0952415  10.6746244  31.4198856  20.0330296
  53.3518372  46.5718803   9.3541517  53.9677925  46.6461792   8.6252422
  53.8983116  46.3489761  10.1077490  45.5237503  52.9081192   1.9466385
  44.8201714  52.3097649   1.6952802  45.6927719  53.4237709   1.1581165
  63.1159363  15.0256920  18.5702496  63.5895348  15.3971596  19.3145256
  62.1924286  15.1622343  18.7817192  53.4771576  16.6888485  25.5535679
  54.0508957  17.4269466  25.7591496  53.5485840  16.5870667  24.6044788
  85.4503403  22.4155846   6.2871070  85.0224686  21.7162838   5.7930079
  86.0043411  21.9577503   6.9193296  71.8790131  22.2061768  28.7928085
  71.6709671  22.4368820  27.8874226  71.4289780  22.8678589  29.3180466
  85.2479401  61.2883835  32.2405396  84.9814529  61.2564392  33.1593399
  86.0525665  60.7710381  32.2064018  81.2992935  57.6017570   7.9062328
  82.1997070  57.5156479   8.2194157  80.7697906  57.6262093   8.7032623
  26.7202473  37.7941933  21.7314301  26.7973232  37.5092049  22.6419640
  27.0311508  37.0474586  21.2196064  63.0420876  48.6097946  34.8587074
  62.1009293  48.5688896  34.6890602  63.2473946  49.5446281  34.8456993
  50.7629662  38.7682877  53.6704407  51.2492676  39.3009987  53.0411873
  50.9123116  39.1970062  54.5131340  65.4900894   3.6670725  71.9185562
  64.6530609   3.2158339  72.0281143  65.2889099   4.4102335  71.3498154
  51.1366501   6.2450833  42.4830551  51.1335907   6.7395387  43.3026505
  52.0281029   6.3420248  42.1481705  37.5247192  23.8321285  83.6094894
  37.5132256  23.4934158  82.7142944  37.4042625  23.0583382  84.1599121
  52.7992554  68.2564163  44.9127884  53.2317123  68.9286118  45.4394493
  51.9816818  68.6645966  44.6278419  48.4755440  33.6114311  32.2347450
  48.3550911  34.5209007  32.5078583  48.1533203  33.5872459  31.3337345
   4.9200625  65.3894501  47.5466652   5.2692757  64.5382462  47.8107262
   5.1385875  65.4601746  46.6174316  60.1019516  70.3635712   9.6967163
  60.1646423  70.4436264  10.6485004  59.7045555  69.5044861   9.5542765
  75.2512894  14.4287319  71.4491806  75.1437378  15.1941729  72.0137787
  75.5357895  13.7324877  72.0412445   1.5282600  61.9745102  25.7573185
   1.3656064  61.1819496  26.2688122   1.0220819  61.8495865  24.9545670
  72.2702026  26.6350536  13.3173132  71.9850922  27.0400085  12.4981937
  72.7473297  25.8516140  13.0438118  24.8685207  71.1119919  47.8805199
  24.2696209  71.5667572  48.4727478  25.7283764  71.4834824  48.0776787
  81.3322830  14.3135853  54.4037094  82.1450043  14.0568008  53.9680672
  81.6107330  14.9129553  55.0961380  75.0589447  68.4859314  63.7629280
  74.3961868  69.0651321  63.3867378  75.5762863  68.1944733  63.0121689
  11.6638498   7.2997689  26.1839085  12.1724033   7.8399377  26.7887402
  11.1681662   7.9289012  25.6597691   2.2122543   8.4342136  48.6392899
   2.2203140   7.4950552  48.4544983   1.4035978   8.7506285  48.2365646
  61.9164238   1.9119412  85.3632660  61.9688911   2.4933462  84.6046829
  62.8140793   1.6060209  85.4931030  55.2185707  66.7800598  15.1151438
  54.7154961  67.1547241  15.8381767  54.7093201  66.9933395  14.3332176
  53.4643135  16.5104809  19.7365608  53.3650436  17.3129501  20.2488327
  53.7192078  15.8470230  20.3777180  85.7352524  43.7015457  58.9540253
  85.6489334  44.4796066  59.5048447  86.4826584  43.2297096  59.3214264
  25.3188477  56.0866051  43.2837601  26.0676136  56.6829071  43.2864456
  24.9335861  56.1898232  42.4136124  50.2505531  66.6674652  75.3304825
  50.3493500  66.5973587  76.2799835  50.6887970  67.4877548  75.1039963
  27.0475540  60.6985588  10.5030231  27.7302704  60.2407990  10.0125294
  26.3070087  60.0920792  10.5056763  53.2456207   0.6838689  17.6982346
  52.3034554   0.5182263  17.6647491  53.5591850   0.1385497  18.4197159
  79.8056946  67.8225403  23.2462063  79.6889648  68.6891098  22.8567619
  80.2940063  67.9863434  24.0530205  83.9834366  30.0935478  65.1567230
  84.8336258  29.6594620  65.0860748  84.1189194  30.7808666  65.8090057
  11.0083809  51.4562187  69.2269135  10.4801521  52.1739426  68.8775177
  11.9011469  51.8011475  69.2419128   5.8798714  16.6173077  55.0581131
   5.6076579  16.2309914  54.2257118   5.2318368  16.3058567  55.6899986
  16.9049892   7.5856190  82.1487579  17.3742809   8.2588272  82.6414948
  17.5287781   6.8632069  82.0763779  46.2799492  31.1155052  64.7141800
  46.4420853  31.7199173  65.4384918  45.7815628  31.6303940  64.0795670
  23.9477940  38.9096069  68.8800659  23.3516579  38.2480850  69.2311325
  23.4221287  39.3907204  68.2409744  39.2595444  16.4615974  70.3771133
  38.6218109  16.5339603  69.6669769  38.7464867  16.1708031  71.1310654
   4.6124134  37.5962372  75.6314240   5.4510875  37.7112122  75.1846161
   4.3614974  38.4797783  75.9009094  41.0153809  21.8755169  81.8249130
  41.3522224  22.2138481  82.6545486  40.5980873  21.0457458  82.0563812
  75.6101456  13.7629681  88.0474777  75.1329880  13.8547754  88.8721771
  75.5236664  12.8365927  87.8225784  36.4147758   0.5910830  75.0486221
  37.2552681   0.3145381  74.6834793  36.3148384   0.0670228  75.8433609
  69.9849091  55.6138916  26.1375465  70.5835419  56.3454666  25.9869881
  70.4572678  55.0376511  26.7384243  11.2016830  58.0736656  46.5265808
  10.8158340  58.4896812  47.2974777  10.4547262  57.7081528  46.0525703
  53.6664047   1.8018417  45.2200165  53.8461494   2.0058217  44.3022385
  53.3877792   2.6348581  45.6003914  55.2475052  17.6371841  32.8919716
  55.1414642  18.5861931  32.8258553  54.5508995  17.2794228  32.3415375
  56.6057434  41.3731766   3.4654865  56.6900101  40.7981873   2.7048843
  57.4442673  41.2933350   3.9201655  39.3591080  53.5859833  35.8426895
  38.9531746  53.5333862  36.7079544  40.2615585  53.2997475  35.9837074
   8.4256697  42.1218910  66.9020767   8.8212919  42.1149826  67.7736664
   7.8024702  42.8479729  66.9276733   6.3018074  60.4511032  72.9227600
   6.4464641  59.6765709  72.3792496   6.8296981  61.1349487  72.5105515
  78.7038879  20.8571682   7.4372230  79.3251190  20.9032021   8.1639872
  79.2394867  20.6248817   6.6786623  68.4426270  52.7832565  32.3396873
  67.7097321  53.2394676  32.7531624  68.5624390  51.9942207  32.8681755
  68.8346481  33.5281029  41.0768394  68.1439743  33.9331093  40.5522766
  68.4400558  32.7228889  41.4117432  78.4278488  16.3530560  63.3026276
  78.5696945  16.6759186  62.4127579  78.2199478  17.1367092  63.8114471
  80.0294418  11.8512383  53.8835526  80.5399246  12.6052895  54.1785927
  80.4917831  11.5384531  53.1059685  12.9470062  49.1105995  46.8886795
  12.6758518  48.8395309  47.7657394  13.1634436  50.0384293  46.9809570
  20.3678360  51.2593956  81.5163498  20.6615925  51.4412689  82.4090195
  20.9949436  51.7204514  80.9592209  83.1997681  25.1119442  75.5575104
  82.3830872  24.7545853  75.2088623  83.6294403  24.3649807  75.9742355
  27.5805664  13.6333256  40.5991173  27.7090950  12.7986364  40.1485558
  28.0133400  13.5179892  41.4450684   6.9108243  61.3357887  85.5231781
   6.6914353  61.4681892  84.6009140   7.7903323  60.9583244  85.5083542
  31.0480061  63.5370369  52.8898239  30.6672573  63.9445801  52.1118965
  31.5706806  62.8113823  52.5485535  20.7312794   2.4673512  38.8344879
  20.5958633   1.5491149  39.0684471  21.3397427   2.7959251  39.4963379
  79.6417465  30.4352360  56.7999382  80.2554626  29.8969650  56.3000870
  79.2904739  29.8431110  57.4649391  22.3963356  70.8204193  38.5940399
  22.9279594  70.0261307  38.5419083  22.4757481  71.2190857  37.7274437
  58.8952217  57.6776924   4.9253764  58.0550270  58.1293373   5.0048814
  58.7136040  56.7820740   5.2101789  12.3833590  60.2916412  43.0890007
  12.5075274  60.7958450  43.8931084  11.5159874  59.8982239  43.1845131
  59.4233513   2.7376809   7.3497033  59.8418732   3.2200594   8.0627117
  60.0307388   2.8218386   6.6147008  31.2373486  13.4422808  33.2491493
  30.8545055  13.4238033  34.1262589  30.9407425  14.2722559  32.8757896
   4.5352578   7.0898924  87.9541931   4.6868458   7.5950885  87.1554260
   4.5960217   7.7336931  88.6599274  86.4720459  12.8685465  80.9124603
  86.3733063  13.6751347  81.4183197  87.4180603  12.7638912  80.8107834
  70.8484116  51.6410522  87.8861694  70.8518066  52.0424385  88.7551422
  69.9443207  51.7302513  87.5846710  52.2196465  40.7272758  85.1170273
  51.9350700  41.1327744  84.2979965  53.1690941  40.8484459  85.1270447
  71.3239899  69.4902344  27.4630413  71.3165588  68.5497742  27.6411209
  70.8471680  69.5815659  26.6381016  73.0859833  56.5148468  37.0260429
  72.5513229  56.8294525  37.7550163  73.9700775  56.4513206  37.3873940
  70.8066025  15.8452425  68.2939682  70.9382782  14.8976297  68.2635880
  71.4033051  16.1481552  68.9783783  82.2363052   9.2429724  54.7208023
  83.0186615   8.8140669  54.3741074  81.9797668   9.8620396  54.0373001
  58.8894234  36.5883026  59.5486870  58.3261948  36.1623001  58.9025192
  58.5733871  37.4911461  59.5837326  70.5844040  14.4791737  74.5668488
  71.2782211  14.2038374  75.1660461  70.9786758  15.1823893  74.0508347
  79.0650711  42.1683388  25.6653423  78.6309814  41.5554695  25.0718880
  79.5305710  42.7726326  25.0870972  26.8507900  57.2057381  64.9496384
  26.3691673  57.8947182  65.4074402  27.2669945  56.7000847  65.6477203
  70.3996506  53.1261749   4.8464308  70.2643204  53.7993889   5.5132875
  70.3182831  53.5930595   4.0147882  19.2052727   4.9580221  36.5112267
  18.4249439   5.5027671  36.6140480  19.2484894   4.4465714  37.3191757
  25.6553993   5.2486806  79.8246231  25.8330517   5.5006480  80.7308121
  26.4159603   4.7274928  79.5674438  62.0342102  52.2942848  83.0379410
  62.1063423  52.3604546  83.9901199  61.1045265  52.1310730  82.8789368
  68.4216843  17.2922039   4.9532061  67.6942444  17.8131733   5.2932820
  68.6170883  16.6684952   5.6525159  29.3747120   7.2645974  47.8599014
  30.0516243   6.6724348  48.1875725  29.8602924   7.9992709  47.4848022
  48.4038353   4.7189403  28.7579975  48.9500427   4.8559332  29.5320263
  48.3554611   3.7675641  28.6643238  62.0031776  49.4275322  24.8440151
  62.3388824  50.1933708  25.3098793  61.0523529  49.5370598  24.8570137
  72.9283295  48.7208214  30.7149239  72.9134445  48.1923790  31.5128937
  73.2844315  48.1353951  30.0465698  37.0102348  10.5732956  23.3367405
  37.6043167  10.0294380  22.8195229  36.1902008  10.5686178  22.8430214
  13.5537205  51.1250496  60.4224854  13.5182295  51.9310570  59.9073906
  14.4879131  50.9730492  60.5653534  40.9627533   5.7539139  62.0934486
  41.8980598   5.8195896  61.9007797  40.6168289   5.1812687  61.4088707
  69.5331802  19.1258125  34.0256462  68.7990646  19.7010078  33.8101158
  69.7263641  18.6673756  33.2078743  42.6729622  56.2039299  73.6716003
  42.3506927  57.0132904  74.0682220  41.9388733  55.5937271  73.7423019
  73.5196762  43.2066994  52.5004768  74.3178787  42.8167114  52.8568764
  73.0354767  42.4674301  52.1327019  15.7614756  71.2420883  12.3505964
  16.2373161  70.9098892  11.5893803  14.8632193  71.3565292  12.0403233
  30.6065063  16.2647629  23.5642700  30.6646366  15.3617029  23.8762569
  29.8381901  16.6228008  24.0089417  45.9837570  70.4694061  74.8475800
  45.4514389  70.3134232  75.6276627  46.5455284  71.2072983  75.0845718
  22.1383705  49.4495697  48.7877884  21.6634407  48.9293747  48.1396561
  21.8940907  50.3545876  48.5941391  68.7654266  60.0858040  76.3211670
  69.1395340  60.5051003  75.5462723  68.3328857  59.3013954  75.9837570
  71.6634598  12.4076366  27.4854698  72.0688934  13.1422806  27.0248737
  70.8079758  12.3061056  27.0682411  60.2392731  24.3643856  34.5896301
  59.9941025  24.5056629  35.5040512  60.2104683  23.4141541  34.4780006
  60.4882240  17.4905300  26.2406406  60.6550026  16.5799866  26.4842129
  61.2881508  17.7696781  25.7951965  85.8338623  43.7835350  20.8748379
  85.2822037  44.5222626  21.1321163  85.4727402  43.0370216  21.3528996
  31.4779205  69.1246719  80.2632980  30.9102173  69.1889877  81.0312881
  32.2663765  68.6870041  80.5842590  58.6287575  39.9151649  10.5589809
  59.5242462  40.2268639  10.4279299  58.0992737  40.7121315  10.5858784
  18.0726318  70.4719086  24.9022655  17.4016266  69.9926147  24.4161949
  18.0904617  71.3380737  24.4952278  71.2246628  50.2569122  77.0747223
  71.0536957  50.6075287  76.2006149  70.5631790  50.6679497  77.6312561
  26.1420879  27.0083599   0.7675031  25.2033463  26.9157734   0.6049584
  26.4863968  27.4014874  -0.0344538  69.0749359   0.0464330  54.8180771
  69.6438751  -0.2126203  55.5429420  68.5335388   0.7490627  55.1778412
  64.1232071  13.7494860  26.4535923  63.9312363  12.9760962  26.9839172
  65.0470963  13.6570549  26.2209339  83.6535416  36.5260735  72.5454636
  83.3608017  37.1994438  73.1595535  84.4093246  36.1238251  72.9734955
   6.6081109   8.9590340  21.9632034   6.1209269   9.7811003  22.0187950
   7.5128479   9.2271852  21.8026505  69.0505676   1.5391458  46.5038261
  69.7903290   1.1071862  46.0767403  68.5664597   0.8272033  46.9221611
  23.9263668  31.7252960  13.3402643  24.6114006  31.0598774  13.2756128
  24.3373966  32.4467049  13.8165588  68.5211411  17.7723789  76.5802460
  68.3412704  16.9693108  77.0690842  68.0599899  18.4565411  77.0655289
  69.0808640  69.4689789  84.2241745  68.2713699  69.1498337  84.6230545
  68.8117371  69.7980804  83.3665619  81.9743958  54.2159958  72.7317505
  82.5024109  54.9846497  72.9476242  82.5472183  53.6776314  72.1856079
  64.7395096  44.8701820  32.1566315  65.2217789  45.2034874  31.3999557
  65.3688507  44.3139191  32.6156960  49.3193932  42.9275169   4.8913732
  49.1575050  42.9348259   3.9479899  50.2640381  43.0585213   4.9733057
  62.3737106   8.3770380  30.2789154  62.3360214   7.9606800  31.1399937
  61.4682159   8.3680887  29.9687061  14.5740309  20.8276215  86.2741165
  14.0004082  21.0841198  85.5520401  14.6858015  19.8829918  86.1672745
   3.6530926  10.3373442  45.8601608   3.7099857  10.6370792  44.9528809
   2.8326569   9.8458080  45.8990173  62.3156776  31.4066639  70.3804779
  61.7926598  31.3023071  69.5856247  63.1474609  31.7679615  70.0741577
  72.6123047  33.1558418  60.5994873  73.3424988  33.1643524  59.9806404
  72.5155792  32.2352448  60.8431664  33.6085777  14.6797485  84.2622070
  33.8997536  14.1268177  83.5371399  32.8262863  15.1193361  83.9290161
  69.6650848  25.9246426  63.3704147  70.4881210  25.9156380  63.8590469
  69.7792740  25.2545052  62.6965408  83.2289581  41.2715912  46.5660629
  82.3023148  41.4762955  46.4408836  83.3723297  40.4817924  46.0446243
  47.2365913  50.7516098  69.9272308  47.3332024  51.5595284  70.4313812
  46.2908669  50.6444359  69.8254700  40.1900024  12.9538269  82.6855621
  40.7173615  13.2533398  81.9450073  40.4317131  13.5386086  83.4037781
  33.6464920  53.1383133  17.3663616  33.7688713  53.7489548  16.6394711
  34.1547279  53.5156937  18.0843544  39.1475754   7.5117965   6.1124234
  39.7931824   8.0616789   5.6685214  38.3080902   7.7774391   5.7370124
  41.0402107  65.0712509  30.3896141  40.9381599  65.5337601  29.5578098
  40.6520691  64.2102127  30.2340832  13.3754940  51.0170631  12.4001513
  13.6838083  50.4814262  13.1310883  14.0157995  50.8651085  11.7050610
  78.4146805  37.0114326  47.5857315  78.2958221  36.7251434  48.4913483
  78.2487183  36.2270470  47.0628281  35.1298676  59.0552559  57.8171272
  35.1459999  58.5565491  57.0002632  35.9603233  59.5312119  57.8236122
  63.9836426  59.1624756  78.6033630  63.7507172  59.4515190  77.7210770
  64.9305191  59.0266075  78.5687256  35.2178993   2.0263305  27.7921562
  35.9937859   2.1239107  27.2401505  34.5476151   2.5546284  27.3587341
  54.3118668   4.7424169  51.7453842  54.9365234   5.3777695  51.3955803
  53.5657501   5.2709970  52.0284843   4.4629107  13.8869429  11.5669127
   3.5216775  14.0416632  11.4870806   4.6829624  13.3507738  10.8051176
  27.4935913  54.7728195  39.8442764  27.6653442  54.1547318  39.1338539
  26.9595165  54.2796135  40.4669685  66.9375458  60.7376022  52.4110031
  67.8833923  60.6332932  52.5145378  66.7915955  61.6810570  52.4804382
  17.5856476  67.0386429  66.7850113  17.9831333  67.6708679  66.1862411
  16.7940941  66.7459183  66.3333588   3.9235401   7.4172130  66.1944504
   4.8661933   7.2694998  66.2707214   3.7855725   8.2849350  66.5742645
  58.1475906   4.6707501  46.1651917  57.5245819   4.0613837  46.5611305
  58.7389755   4.1135721  45.6591797  28.9946938  24.7293549  86.7923965
  29.8026466  24.6544056  86.2846298  28.5242939  23.9146652  86.6156616
  33.3626060  45.9253387  88.5534973  32.7902145  46.1952477  87.8353424
  33.1468925  46.5230789  89.2693253  52.1639671  50.8406525  10.8483791
  51.7769394  50.0337868  10.5086594  52.0096321  51.4883575  10.1607056
  12.6870823   9.3974342  66.3408585  12.8859015   9.1778717  65.4306412
  11.8878508   8.9082327  66.5361633  37.2943611  36.2287292  87.7285995
  38.1082687  36.1987877  88.2314835  37.5778351  36.3295975  86.8199234
  11.0042257  47.5240250  12.8663359  10.2234945  48.0506210  12.6949091
  11.3061810  47.2540131  11.9990711  29.4048557  18.7536011  13.5317888
  29.2165585  17.8771992  13.8674889  29.9686146  19.1487942  14.1967945
  56.5173111  10.0503798  17.2809963  55.8474007   9.4016504  17.4968834
  56.4291306  10.1806269  16.3368073  47.0950928  38.1131821  16.7708473
  46.7174416  38.6866150  17.4377689  47.8134308  37.6660042  17.2183456
  86.1214752  15.6568718  28.9231682  85.5163040  15.3724365  29.6080723
  85.8106766  16.5276604  28.6754494  52.4737091  52.7223167  20.5566692
  51.6576195  52.2831306  20.7961388  52.9632874  52.0649948  20.0622253
  33.3287811  49.9462624  63.3169289  32.4022026  49.8607254  63.5413513
  33.3312531  50.1407280  62.3796959  20.7258186  31.3815231  15.5610008
  19.8039722  31.6153946  15.6693268  21.1797485  32.2215691  15.4938908
  83.1408310  15.9369030   7.8699045  82.3781586  15.4213552   8.1321297
  83.5253220  15.4440804   7.1449709   3.2645624  43.6461906  68.4242630
   2.4740701  43.2837677  68.0242615   3.9487860  43.5096436  67.7689590
  30.6273689  21.3464127  29.6756458  31.4449463  21.6696892  29.2971077
  30.0985355  21.0899982  28.9201221  46.6873436  45.8470230  51.6567726
  47.2007484  46.5554695  52.0450401  45.8667068  45.8480759  52.1495094
  83.6435699  22.1269150  49.3948746  82.7666855  21.7520161  49.3126755
  83.4984589  23.0727673  49.4180679  12.9262362  44.7893753  60.7328453
  12.3710823  44.7981606  59.9531288  13.4991646  44.0324097  60.6104202
   8.1622629  64.9857254  53.8682098   7.2597585  65.0638046  53.5589790
   8.4982843  65.8819122  53.8551750  77.8974991   5.7764030  26.4345169
  77.4797058   6.5224590  26.0043011  78.2509308   6.1361704  27.2480793
  82.2672272  13.2240171  30.6829109  81.8772278  12.3498907  30.6768169
  82.6617737  13.3163061  29.8157082  39.4533272  52.0627556  88.9987259
  38.8535576  52.7762718  88.7809906  38.9407234  51.2670517  88.8561554
  27.4671936   9.0466948  67.3812943  26.8084373   8.4342966  67.7087708
  28.2660465   8.8150501  67.8550110  57.9582634  55.7434006  10.7988997
  57.6265640  54.9095612  10.4658575  57.3756294  55.9593010  11.5270195
  55.1386871  12.8889027  17.8238697  54.3650208  13.3968878  17.5796967
  54.8775749  12.4212284  18.6171741  56.8490791  48.6528893  42.9142036
  57.7079353  48.8363571  42.5335007  56.9245071  47.7625580  43.2575035
  58.3802032  43.3349075  63.9014511  58.8148308  43.9640312  63.3256607
  57.5826340  43.7814751  64.1855164  74.2977676  35.5708504  25.3689823
  74.4755478  34.8417664  25.9631748  74.8986740  36.2608871  25.6500416
  13.1978607  41.3408241  13.1701336  13.9356394  41.2831688  12.5630178
  13.5781879  41.6881332  13.9769554   2.4083445  42.7960854  23.8684177
   1.8550009  42.5425873  24.6071873   1.9475771  42.4625969  23.0985394
  79.6689072  22.9272938  81.6533432  78.9484863  22.5855618  82.1829071
  80.0323029  23.6420994  82.1760559  10.9798498  68.4558487  85.2048721
  11.3960552  69.1911240  84.7550049  11.1336060  68.6256409  86.1342621
  41.4185181  19.1417484   1.1709739  42.2818565  18.7511864   1.3063949
  41.2810173  19.6921272   1.9419528  42.4402771  59.9932785   8.9321127
  41.5388184  59.7066574   8.7856388  42.3912048  60.5505676   9.7088070
  57.7500496  27.7290020   8.1352825  57.1557922  27.9499474   8.8524113
  58.2410736  26.9723530   8.4556055   7.6562223  40.3027077  75.4897461
   8.4545259  39.7869339  75.6034164   7.0814657  40.0138245  76.1985703
  50.8643761   6.1944509  59.6092186  50.2923622   5.4896631  59.3053932
  50.4461861   6.9953771  59.2932014  25.8161507  24.5183086  82.4136505
  25.7106876  23.5729446  82.5204086  26.2860565  24.7971478  83.1995697
  27.5892105  55.0970154  35.0372887  27.8184643  54.8295860  35.9273186
  27.7001514  54.3039932  34.5128441  31.3123207  39.4702797  22.1603146
  31.6695995  38.8653831  21.5101738  30.3646221  39.4261322  22.0332241
  23.1336708  55.3297348  16.1037922  22.7502022  55.3904152  15.2288618
  23.2158127  54.3897285  16.2646313  72.5043106  50.1958847  51.7632332
  73.2538605  49.8690491  52.2608147  72.3889847  51.0960808  52.0675087
  69.5273056  53.3599129  48.5358047  69.1097412  52.7086449  49.0994759
  68.8531952  53.5910339  47.8967476  43.7285728  35.9616394  74.5909424
  44.0090141  36.6173897  73.9525223  43.1995049  36.4513359  75.2206345
  84.0819550   4.9901600  81.4729996  83.1763000   4.9844580  81.1631851
  84.5871201   4.6324224  80.7428894  16.4958630  51.9667244  50.6202698
  15.9799137  51.1606064  50.6346092  15.8494329  52.6665230  50.7132187
  78.6538010  63.8280220  76.7824936  79.2919159  63.7844048  76.0703659
  77.8302689  64.0583191  76.3523941  19.7273617  66.2670517  73.5203323
  19.4642487  67.1787567  73.3946686  20.6043758  66.2162933  73.1401978
  51.0522385  68.7721481  20.5095711  51.1409645  67.9599228  21.0082169
  51.6411400  68.6605682  19.7632618   5.5326867  45.1313705   9.0799675
   6.0861149  45.3727188   8.3372021   4.9053631  45.8504601   9.1548672
  59.0356369  38.1600304  30.2829895  58.2195663  37.8962746  30.7080688
  59.2004280  39.0447884  30.6089935  43.9708595  30.7671127  79.2026443
  44.8094864  30.7936001  78.7419586  43.4157562  31.3836975  78.7252426
   7.0404501   9.4717836  30.7505264   7.5430889   9.0296211  30.0663643
   7.6557555  10.0969782  31.1336212  25.0564384  68.4473114  68.1006546
  24.3625031  68.2773972  67.4636230  25.8549099  68.1371613  67.6734772
   9.6263113  45.6978226  41.2980995  10.4540596  45.7751465  40.8236656
   8.9559364  45.8945274  40.6437759  15.2644072  32.4467926  86.8895721
  14.4015808  32.5329742  86.4841919  15.5157356  33.3435173  87.1108170
  44.9537582  58.5005569  14.4299259  44.9385757  57.5477257  14.5199957
  45.4978714  58.6595917  13.6586418  14.1954374  46.0755768  73.6260681
  14.0897980  46.6061707  72.8364258  13.5983753  45.3379974  73.5006714
  63.9836693  39.5928307  62.0557404  64.6075287  39.1297264  62.6148148
  64.0706253  40.5116196  62.3097115  76.7042694  46.1890297  64.8055496
  77.4504242  45.9927254  64.2390213  76.7635727  45.5452347  65.5114136
  67.8382950   3.5176144  21.2636452  67.5594330   3.9843967  22.0514145
  67.0275650   3.1712308  20.8908710  29.8615627  49.6803818  68.7254410
  29.9026985  49.1312447  67.9425049  29.6717815  50.5576897  68.3929596
  44.7387505  31.9274292  26.6869564  44.2979698  31.3057079  26.1078148
  44.5723572  31.5931454  27.5683193   8.2081003  23.0494175  63.6131897
   8.9107313  23.0092087  64.2619781   7.8747430  22.1534195  63.5653152
  78.7889481  44.1470566  29.2002468  78.9221268  43.5687675  29.9512959
  78.4018555  43.5838852  28.5300045  50.6147003  48.2068329  23.7832203
  50.2859230  48.7911301  23.1000404  50.7580338  48.7777100  24.5380650
  11.6694775  51.0186462  30.5896816  11.5447025  51.5650635  31.3656273
  11.3487368  51.5552101  29.8647995  39.9353104  70.6447678  18.0865574
  39.4091339  71.0161896  18.7946663  40.1426430  71.3917389  17.5250530
  52.5170975  51.3253593  83.0255203  52.3086624  51.8846207  82.2771759
  52.8607864  50.5216255  82.6354904  85.3608627  51.2118607  38.3488045
  86.0839310  51.3328018  37.7333603  85.0870972  52.1009026  38.5743866
  19.0473747  60.8227234  22.0307312  18.4692135  60.7849693  21.2688026
  19.7321625  61.4432526  21.7812538  86.4971848  65.4850998  58.9621735
  86.5784683  65.8623047  58.0861969  85.6206741  65.7384338  59.2516479
  84.6171188  69.4186783  43.3211288  84.4367905  70.2661972  42.9143982
  85.5626373  69.4208908  43.4701881  14.7058105  58.6011925  19.2896500
  14.7440729  58.3362350  20.2086525  15.0951080  57.8682747  18.8126678
  23.1066132  50.2345848  15.3056803  23.7665348  49.8231125  15.8637352
  22.2806606  49.8330688  15.5755301  82.1189651  25.8667583   7.2177310
  83.0500793  26.0827351   7.2687936  81.9642410  25.6917667   6.2894697
  32.1384659  70.6611557  30.4317436  32.6009293  71.4970703  30.4917221
  31.4207630  70.7388535  31.0603123   1.8832781  11.9052238  70.2701645
   2.1677361  11.1510944  70.7864990   2.5145204  12.5927334  70.4825211
  77.8608017  42.4990387  22.4932327  78.3870850  43.1891251  22.8970184
  78.4195633  41.7224731  22.5243683  81.8333130  10.8472929  84.3855286
  82.6025467  11.4053726  84.2712326  82.1904907   9.9959135  84.6381378
  74.0537109  20.1746540  35.1445541  73.5287704  20.7368546  34.5748177
  73.5175171  20.0615444  35.9293709  26.9877129  62.3782425  74.9879761
  27.2670593  62.8334694  74.1936417  26.6105652  63.0651665  75.5376358
  86.2592087  10.0988092  84.5807037  85.8648911  10.6697388  83.9213181
  86.8140793  10.6805353  85.1002579   5.4012771  49.0451164  29.5132446
   6.1055031  49.2951508  28.9150982   5.6330047  49.4614906  30.3434048
  29.1312256  69.9540558  72.4444962  29.3748741  70.7107086  72.9777374
  28.3807659  70.2541275  71.9316635  33.7096176  39.0512390   5.4900112
  34.2708206  38.6736450   4.8127346  34.0848160  39.9157829   5.6574159
  12.0576544  68.2012558  10.1311436  12.3766642  67.7835999  10.9311619
  11.6980009  67.4817200   9.6123486  78.8961105  65.3271561  16.1854630
  77.9601974  65.2195740  16.0159893  79.2557526  64.4430237  16.1133709
  42.7667961  28.7643356  64.8135910  42.7203865  28.2245674  65.6027222
  43.5350075  29.3193569  64.9478836  54.0793571  70.1519394  70.9691544
  53.7935219  69.8826981  71.8421021  53.9139481  71.0943756  70.9430389
  79.5929565  44.0059853  18.6399670  78.8880157  44.3600693  18.0978298
  80.0193329  44.7777710  19.0125008  82.4639511  28.6026363  70.8560715
  82.9462280  27.8350258  71.1633301  83.0121307  29.3461380  71.1069412
  49.7415695   9.4862156  82.6601334  48.9353638   9.9966421  82.5844421
  50.2656670   9.7528534  81.9048386  68.9146729  69.7055588  38.6386719
  68.2277145  70.1365509  38.1301804  69.2541809  70.3921127  39.2127876
  12.9935560  63.7082214  88.9835434  13.6252489  63.1747665  89.4658585
  13.4100847  64.5671234  88.9126511  79.0212936  65.1824265  79.5250168
  78.9446182  64.4553452  78.9071884  79.5521545  65.8326569  79.0649948
  10.1608038  26.2478733  78.5533829   9.7104053  26.0250378  79.3680725
   9.7058334  27.0269318  78.2335358  63.5018005  67.4937668  89.1791000
  63.1305046  66.6204300  89.3042068  62.8840942  67.9354019  88.5963287
  58.9546738  19.5833530  57.4822655  58.3074455  20.2879829  57.5108948
  59.2086983  19.4541912  58.3960609  27.0979271  64.2983932  16.4905319
  26.2378445  63.9275475  16.2931461  27.6569118  64.0026321  15.7719965
  47.7253113  47.8236656  38.0752525  48.6730347  47.7509155  38.1882210
  47.3915710  46.9510956  38.2837334  76.1500092  27.9586563  60.5508041
  76.4974442  28.7410030  60.1224899  76.8967896  27.3620682  60.6021271
   9.9538002  15.1256685  37.3831520   9.4431772  14.6274767  38.0213547
   9.9401388  16.0237503  37.7140541  33.4936447  19.6143951  82.5057831
  34.2558746  19.4421329  83.0585632  33.2138443  20.4961529  82.7516479
  23.9370689  32.5049019  86.6762619  23.5087872  31.8942966  86.0762863
  23.7000446  32.1896400  87.5484238  86.4203186   5.1297107  14.5584536
  86.7353973   4.5162263  15.2222252  86.8985291   5.9399056  14.7348766
  64.6028671  65.1420441  85.7840652  63.7560005  65.5866852  85.8207321
  65.0078888  65.4642563  84.9788513  58.8999100   5.9170127   6.6450124
  58.1148987   5.7080455   6.1387339  59.3924713   5.0967364   6.6726770
  45.3366966  40.7591057  59.2242546  44.6809769  41.4230804  59.0111656
  46.1544151  41.1073112  58.8688354  38.6381531  55.1080780  85.1550446
  37.9928169  55.7283249  84.8158340  38.5048790  55.1181450  86.1028671
  64.0754852  42.5509987  69.9794235  63.8299713  42.8533134  70.8538208
  64.1351089  41.5993195  70.0630035  74.6079102  52.7973404  58.1975403
  74.6977005  52.8741112  57.2476578  74.2500916  53.6412430  58.4732780
  26.3021069  22.0207405  82.9806900  27.1451817  21.7515430  82.6160126
  26.0023518  21.2598228  83.4780655   1.2750700  35.8993263  26.1665249
   2.0107858  36.1691284  26.7162151   1.1779904  36.6086845  25.5312138
  66.3948212  63.4869766  48.5992088  65.8651581  64.2320480  48.3153915
  65.8653030  62.7198906  48.3814430  18.6479092  51.2061844  14.6668119
  19.5824814  51.1356506  14.4723034  18.6111374  51.6834412  15.4957304
  31.9963799  54.4236717  29.5351887  31.2965679  54.5626068  30.1733055
  32.5695992  55.1831703  29.6391869  30.2191486  69.8786926  75.8257065
  30.7551327  69.9163361  76.6178741  29.4416885  69.3845901  76.0858078
  37.4519539  35.3720703  17.6073437  38.1857529  34.7576599  17.5908451
  36.9756165  35.1981087  16.7955112  42.0003777  35.1388168  27.4007015
  41.8307076  35.2894669  28.3306198  42.6425438  35.8076515  27.1629791
  80.2005920   1.8104980  42.8404083  79.5368805   1.4422622  42.2572098
  79.7980652   2.6056848  43.1895256  32.2316628  61.4055862   9.4014120
  33.1388817  61.6981163   9.3141775  32.2544594  60.4794083   9.1607666
  44.2059822  27.0151253  12.6847124  43.9756775  27.8981972  12.3959627
  44.3155327  27.0939426  13.6323519  17.9554958  13.2048588  31.1019611
  17.2775574  12.6841364  30.6712875  18.7556820  13.0052109  30.6160831
  49.1054459   1.4163896  60.0493813  48.8410645   2.3262050  59.9131088
  48.2809105   0.9349357  60.1170235  54.3332901  70.8946533  83.9840240
  55.1123619  70.4881210  84.3635254  53.9196587  70.1945343  83.4790726
  31.7014694  56.2387466  44.8622932  31.4242172  57.0340462  45.3171158
  31.4492016  56.3840141  43.9504318  41.5179520  12.5624695  16.4749985
  40.9215012  12.1678343  17.1111927  41.8400879  11.8238001  15.9584436
  44.7368164  49.9921188  12.8360157  45.4576111  49.9327812  12.2089853
  44.0570412  50.4825325  12.3738089  72.8481750  30.3911362  61.0242157
  72.8456497  29.4860153  60.7127914  73.1207352  30.3286915  61.9396629
  53.5973015  15.9502096  63.2347832  52.9323578  16.2195721  62.6011238
  54.4217949  15.9955025  62.7506409  56.0106125   5.3520947  83.6623306
  56.1805077   6.1672587  83.1902390  55.0648804   5.3535047  83.8100510
  66.8683014  37.8782082  74.7382431  66.2633896  37.8879433  73.9964752
  67.1855698  38.7791519  74.8003998  65.3417511  48.5506821  52.7748299
  65.3796310  48.0516891  51.9588623  65.9336319  49.2891998  52.6316414
  38.9588165   6.3231835  40.5565147  38.9661331   6.0013413  41.4579544
  38.0340996   6.4806666  40.3659172   4.7741475  18.0373764  68.9724808
   4.5153856  18.8574677  68.5520935   3.9469235  17.5988388  69.1715164
  34.2725601  52.6035500  64.6880875  33.7109871  51.9200974  64.3223572
  35.0632820  52.5776100  64.1492691  26.4639587  33.2738800  -0.1888745
  26.9249992  32.5603981   0.2522767  25.9374123  33.6804924   0.4993466
  40.9604950  46.8838921  60.2746849  40.2553291  47.4148102  60.6449471
  41.6871338  46.9888725  60.8888588  45.1355476  59.2076149  32.1006660
  44.7854729  59.7469711  32.8097343  45.7404785  58.6055183  32.5339851
   3.8269799  23.0993080  30.7068405   3.5708528  23.4547615  29.8557911
   3.7705007  22.1501350  30.5967884  17.1017685  20.2580986  16.3244247
  17.6090050  20.9960346  15.9862022  16.2273350  20.3788204  15.9542561
  63.7120399  59.8226204  36.0019722  63.1893501  59.4502258  36.7121506
  63.9684906  60.6876984  36.3215179  76.6197281  40.2446136  52.1455307
  75.9374847  39.9623528  51.5363464  76.1528320  40.7512779  52.8100090
   2.0030668  33.8297043  14.0586615   1.8721169  33.5563087  13.1507311
   1.1178623  33.9453239  14.4040270  36.7256203  66.5468674  44.2245140
  37.5217438  66.1210632  44.5424805  36.2457657  65.8517990  43.7741318
   9.5468187  42.1842880  57.5890770   8.7452488  41.8071060  57.9516411
   9.9614315  41.4601631  57.1200638  52.8337822  32.1526184   5.4462781
  53.7016106  31.9054508   5.7656808  53.0010719  32.5860863   4.6094079
  16.2299156  35.7684402  28.4287510  16.1379414  34.8190804  28.3481922
  15.3852959  36.1160583  28.1423721  47.7607079   7.4248552  64.6785126
  47.4863701   6.8398409  65.3847198  47.7816429   8.2929945  65.0811691
  62.8981056  36.9350281  58.3511238  63.7240982  37.3653755  58.5719604
  62.7298965  36.3472099  59.0876083  71.6298523  57.7671356  27.9762478
  71.8356857  57.7206345  27.0425968  72.3645859  57.3288994  28.4056053
  42.1593475  16.0895252  30.8032455  41.4829559  16.3359795  31.4341049
  42.9824333  16.1995888  31.2793255  17.2129784  26.0745258  60.8805313
  17.1263256  26.0037632  59.9298935  17.1723423  25.1705685  61.1926880
  63.9526100  39.3702087  31.9324303  63.6930580  40.0205956  32.5850105
  63.1687088  38.8369026  31.8008461  83.8154831  18.1607170  48.8343430
  83.6436844  17.2339401  49.0010796  83.6478500  18.2707787  47.8983841
  83.2475052  34.2919388  11.4649057  84.0841675  34.0099106  11.0951786
  83.4733200  34.6483612  12.3240938  65.4301529  38.9603958  11.7012186
  66.1056671  38.4659843  11.2370348  64.7235794  38.3294868  11.8388605
   1.2334175   8.3188009  68.9982834   1.4810635   9.2214508  69.1986008
   0.5736985   8.3986969  68.3093567  84.2691193  50.0659981  19.6894398
  85.0021133  49.8956375  20.2809849  84.5254517  49.6524124  18.8651390
  44.6412277  52.5266838  31.8580399  45.3085556  53.1855927  31.6663513
  44.8259811  52.2530060  32.7564812  59.6388206  25.6133595  37.0857735
  59.6420441  25.5690193  38.0419388  59.6256523  26.5501251  36.8894844
  25.6589603  37.8170090  18.0011349  25.3881569  38.5193825  18.5923767
  24.8595371  37.5766563  17.5327511  46.0672035  14.3505478  11.7911816
  45.4429207  14.2311268  12.5068913  46.4506874  15.2132025  11.9492903
  51.3174858  48.8121338   9.4276114  51.8924561  48.0591621   9.2909479
  50.9614563  49.0022736   8.5596704  50.0649223   8.8497515  62.4005394
  50.6743355   9.0309849  63.1160812  49.5234947   9.6369305  62.3418846
  45.8662834  59.1217651  46.9188309  45.3006630  59.7263641  46.4384499
  45.2763519  58.6702995  47.5224800  42.7668419  45.1034851  65.0606384
  42.4887619  46.0121384  64.9455032  42.1553802  44.5963821  64.5265961
  57.8353500  61.4437714  51.8367882  58.0283737  62.1382408  51.2069588
  57.4729385  60.7337875  51.3068695  25.8419609  21.2833767  88.4146042
  25.4556217  22.1109333  88.7011719  25.6797295  20.6796093  89.1394348
  25.0731926  65.5202103  80.2369843  24.8515701  64.7981110  80.8249359
  24.2525368  65.7245178  79.7886353  12.6924648   1.1957546  27.4655056
  11.8211308   1.2961010  27.8488331  13.2695370   1.6864206  28.0507126
  64.5206451  40.1066933   9.3320112  64.7958679  39.7500610  10.1765823
  64.4459000  41.0489807   9.4828091  66.4292831  69.9556885  45.2774734
  66.8696823  70.3167725  46.0468292  65.8759995  69.2559738  45.6245995
  44.4906693  33.2807159  23.2094193  43.7101402  33.6134186  22.7663441
  44.5990372  33.8552170  23.9673347   4.8800278   4.2927499  27.7847080
   5.4209270   4.4838367  28.5509624   4.5052834   5.1386089  27.5391045
  57.0239983  38.7020493  75.1160355  57.0597534  38.1129379  75.8696289
  56.6299820  38.1765671  74.4197159  60.7091522   0.3280474  52.5359917
  60.8385010   0.0953291  53.4554176  60.4469185   1.2483985  52.5564842
  70.2632523  34.1192322  45.5870476  70.5206757  34.1624107  46.5079727
  69.4155579  34.5625954  45.5542679  59.5953026  59.2282066  78.2910538
  58.8866005  58.6328888  78.5351181  59.1902657  60.0954895  78.2910461
  21.9716625  41.7148781  13.0053492  22.9246197  41.6330109  13.0428181
  21.7151909  41.1845589  12.2508850  70.1548920   5.9642701  48.5094948
  71.0571899   5.7060480  48.6976509  69.7098465   5.1434426  48.2987595
  60.5625534  48.3094368  38.9845314  60.5098038  48.4059105  38.0336685
  60.0469246  47.5257378  39.1747284  53.1475334  63.2556686   5.9448466
  52.7138062  62.5417099   5.4775400  52.6692619  63.3266144   6.7709551
  79.8503418  24.2369556  47.9258308  79.2536697  24.9546452  48.1382790
  79.4454651  23.4642639  48.3198509   6.5728450   3.6926703  75.9068375
   6.9706440   4.2029767  75.2014465   6.6009684   4.2729936  76.6675339
  18.2369308  29.7956657  59.5250969  17.4913216  30.3403530  59.2728767
  18.9929962  30.3789024  59.4585381  41.0384331  69.7128754  55.2900543
  41.3742180  69.9817429  54.4349556  41.0667877  68.7563324  55.2685356
  42.0570641  53.6398010  31.1474590  41.7229385  53.0185356  31.7944679
  43.0086365  53.5937691  31.2403278  13.8686419  49.4274063  31.8053493
  13.8960171  48.5142021  31.5197964  13.0719299  49.7788544  31.4079018
  67.8341522  30.9303875   8.5415888  66.8799591  31.0057774   8.5491724
  68.0046387  30.0898933   8.1164532  23.3142338  23.4570293   2.9606862
  24.1600895  23.6474686   2.5551100  22.8661060  22.8958416   2.3278503
  16.4302578  50.9964142  68.2135849  17.1441402  51.3748436  67.7003708
  16.5547180  51.3501740  69.0942688   0.2479946  52.8102913  82.8409729
  -0.2911398  53.2986031  82.2187881   0.3521111  53.4035912  83.5848694
  16.5093269  62.4772911  72.1637497  17.3358879  62.5191879  72.6446533
  15.9087029  62.0280952  72.7584763  78.3046188  65.4127960  12.1415920
  77.4387970  65.5537949  12.5246077  78.9087677  65.4910965  12.8799038
  62.1120262   7.7378850  67.3911133  62.5505638   6.9775791  67.0092087
  62.6235123   7.9410634  68.1742706  62.6919518  58.4906769  38.6838875
  63.3352165  57.9809151  39.1764221  62.0250854  58.7231789  39.3299980
  10.7980099  42.1123238  84.0372620   9.8539829  42.1763840  83.8925552
  10.8810606  41.7483253  84.9186478  85.4754791  27.9708405  54.4806786
  85.3525696  28.0573959  55.4260025  85.6310349  28.8649979  54.1765137
  66.4606018  24.8497257  68.8694763  66.8681641  25.0929298  69.7007217
  65.5725937  24.5829144  69.1071320  61.2241898  27.4142399  45.2100639
  60.8535347  26.7528725  45.7943916  62.0019073  26.9973240  44.8391609
  72.8602295  11.0904713  24.8050518  73.3565292  11.8070612  25.2005539
  71.9792175  11.1801853  25.1683712  57.7393799  71.2737885  58.4603653
  56.9000092  71.1494980  58.0173721  58.1083641  72.0601044  58.0581360
  12.9856062  61.6524239  57.2561607  12.3998337  61.5703583  58.0087357
  12.3997412  61.6998787  56.5006866  70.7351303  31.8423252  15.2246103
  70.7245636  32.0650215  14.2937365  69.8114166  31.8085041  15.4732885
  34.8462105  63.5009193  83.7434769  34.7100143  63.2640991  84.6608658
  34.0818977  64.0307312  83.5168762  17.1719418  53.9983177  86.8809052
  17.9108543  54.2770920  86.3400497  16.4018726  54.3492584  86.4336166
  20.3732796   1.0927521  14.4443731  20.4303265   0.5531220  13.6558447
  21.0758724   1.7353650  14.3461752  12.6956768  38.3011818  87.1173630
  12.6694040  38.0404854  86.1967239  12.7874088  37.4778633  87.5969086
  31.3270130  19.9777374  72.4132996  31.3642044  20.9115200  72.2061691
  30.7292671  19.9213867  73.1587906  58.7812347  54.3497887  82.7772598
  58.4657555  54.4974899  83.6688232  58.8837280  53.4002190  82.7136917
  60.4212685  43.8502350  61.8099670  60.2744293  44.0920639  60.8955345
  61.3371353  44.0755730  61.9732018  66.6705475  57.0110626  88.2561874
  67.2775803  56.3969650  87.8431168  66.6136780  57.7420692  87.6408615
   2.5263412   8.9092236  30.8430862   3.1926360   9.5869637  30.7292881
   2.1213610   9.1107359  31.6866608   8.5639429  69.6458435  13.1859961
   8.8721733  69.1507111  12.4270086   7.9148107  70.2519989  12.8290071
  16.0790653  30.3656464  20.2407589  15.5591125  30.1251965  21.0076122
  16.5436764  31.1594734  20.5057259   0.6122282  33.4617233  51.9503021
   1.1009405  32.6898117  52.2358589   0.4645105  33.9620857  52.7528267
  80.4062042  71.2373428  35.3979187  79.5561676  71.3424683  34.9705849
  80.5065002  72.0272064  35.9292221  85.7074051  26.6331482  13.4957638
  85.0524216  26.0159473  13.1697283  85.3909760  27.4906120  13.2114019
  83.7400742  46.2737885  85.8091278  83.3939438  46.9921646  86.3386230
  83.6202927  45.4956589  86.3535538  34.0867767  15.0732117   5.8426957
  33.9747353  14.9040985   6.7781525  33.2230225  15.3597574   5.5459642
  24.7879295  52.6880417  22.3902798  25.5389576  52.2040710  22.0468254
  24.7110023  53.4499359  21.8159676   9.1942310  33.4096184  12.8652687
   8.4438314  33.7613602  12.3863001   8.8868189  32.5711517  13.2097988
  50.3875313  28.7810593  30.0727921  51.1654968  28.5033646  30.5564060
  50.1229820  29.5989189  30.4939232   7.6286411  55.6848984  61.0822830
   8.1220722  55.0306396  61.5769577   8.1047087  56.5028267  61.2257500
  53.5734291  67.2062912  42.2602196  53.1651535  67.6685562  41.5281982
  53.3267441  67.7152863  43.0324211  30.7360096   7.0269351  34.0989609
  30.2878742   6.7771950  34.9070663  31.5388966   7.4569502  34.3933945
  24.2684174  13.1193628  83.8239975  23.9228630  14.0083914  83.7436752
  24.4280491  12.8420267  82.9218674  38.5265694  26.9341488   3.5927887
  38.5131569  27.8889465   3.6592104  39.0879211  26.6516914   4.3148227
  41.3768921  48.5396805  10.3296671  42.3317337  48.5898972  10.2851305
  41.2022552  47.9331551  11.0492954  43.7369232  57.4187393  38.8541374
  43.2736855  56.5811119  38.8587685  43.2426262  57.9691658  39.4615364
  82.8268051   9.9476051  74.0911102  83.1885681   9.2285538  74.6091080
  82.2494888  10.4123716  74.6968613  69.0618515  35.8961067   6.5557036
  69.4850769  36.1422997   7.3781991  68.3066177  36.4805908   6.4906306
  29.3178768  64.3786926   6.5846753  28.3913555  64.1810989   6.7215996
  29.4456730  65.2298965   7.0034151  65.4693298  27.7725391  50.1038322
  64.5948868  27.9422207  49.7534142  65.9379807  28.5992107  49.9888954
  59.0194702   1.7269888  40.3152542  59.4802094   2.2525353  40.9692841
  58.8644142   2.3307164  39.5888214   0.5043778  50.9334412  20.8552990
   0.0003228  51.7396965  20.9653568   0.4445149  50.7393456  19.9198971
  15.1601629  59.0905838  13.5473976  14.8561611  59.1302071  14.4541740
  14.3646097  59.1857796  13.0236940  31.3991890  44.6059341  12.2686043
  31.1200638  43.7372589  12.5579576  30.9683723  44.7264061  11.4223680
  34.0806198  60.4675026  15.4163914  33.8724785  60.5708885  14.4878330
  33.2446861  60.2443237  15.8258219  73.5251770  34.2620163  43.1373367
  74.0852051  33.5564804  43.4610901  73.8198929  34.4084435  42.2384872
  70.7491302  50.8788528  68.4031219  70.9797745  50.7913246  69.3279800
  71.1082458  51.7280769  68.1460419  65.4911804   2.5916626   7.1759357
  65.8315811   2.9698963   6.3651967  65.3554382   1.6667384   6.9702168
  78.6521912  53.1601677  23.3305779  78.7234344  54.1132965  23.3825417
  77.7567673  52.9712601  23.6111984  12.3462458  43.9199219  17.9556694
  13.1580238  44.4091835  17.8219852  12.6335354  43.0528908  18.2419453
  34.3678932   5.0133882  46.3717194  34.5844421   5.2259774  47.2795410
  33.9248886   5.7951331  46.0417900  22.0058842  13.6562109  21.0406551
  22.0308590  13.0875444  20.2710934  21.3832493  14.3453712  20.8091068
  50.7622643  59.4790192  24.6190605  50.8465080  58.6494713  25.0891495
  50.3829613  59.2379532  23.7739296  12.0186749  25.7103004  64.3170471
  11.6806078  26.2826996  63.6283493  12.6623774  26.2467194  64.7797928
  84.3445969   1.7902660  85.0811234  84.5251694   0.8658233  84.9107361
  85.1670380   2.1347597  85.4291840  74.2940445  49.6025887   5.4304767
  74.3710251  50.5424995   5.2665429  73.5514679  49.3258514   4.8936105
  53.9231071   6.8449025  47.1907654  54.6287918   6.7988806  47.8358421
  54.2934990   6.4489551  46.4019241  85.0746536  12.7053337  11.0756054
  84.5586395  12.9983873  10.3245487  85.1636124  11.7604504  10.9510536
  66.5154343  17.1804581  38.3456383  67.3716888  17.1029682  37.9248657
  66.2968826  18.1096630  38.2746277  10.7415323   4.4731383  88.2310486
  10.5273914   5.3490987  87.9100037   9.8924208   4.0707045  88.4134979
  47.5332031  46.1992569  59.8684387  47.3738174  45.3946991  60.3619156
  47.6393852  45.9077682  58.9629059  73.8764343  71.2081223  60.2456474
  73.0374832  71.0623398  60.6828537  73.7067947  71.0009232  59.3266678
  68.7357254  42.0510674  59.2134666  68.5493011  41.5110512  59.9814873
  68.7945709  42.9428368  59.5562706   3.3259797  29.3153687  24.4303436
   2.4995387  29.3165550  24.9132786   3.0656004  29.2747765  23.5101337
  23.5190678  49.5758705  36.9975014  23.0348053  50.0869102  37.6460075
  24.1512070  50.1932793  36.6294861  23.1082706   8.9198751  86.9776840
  23.5192928   9.3336859  87.7366714  23.5646381   9.2944460  86.2242584
  24.9788971  39.1933403  20.3574696  25.6599998  38.6092072  20.6908150
  24.1581821  38.7437592  20.5588055   7.9842267  49.1634407  43.7055855
   7.3009686  48.7369957  44.2228241   8.5247831  48.4427147  43.3821907
  84.8507767   0.3852955  15.2894802  85.4744873   0.0525714  15.9348574
  84.7252502   1.3035165  15.5289469  74.2826080  28.9982738   8.1734266
  74.2424011  28.5727749   7.3169427  74.7009735  29.8420238   8.0022907
  57.3636742  48.7546158  39.6112328  58.0367508  49.1333694  40.1766891
  57.7868843  47.9952087  39.2106972  72.7082596  70.5521698  49.6241798
  72.4084930  70.1856461  48.7922935  72.3001328  71.4169998  49.6657982
  14.7901583  51.4518166  44.5724945  14.3875170  51.6026192  43.7172928
  14.1100216  51.6894798  45.2027016   6.9555850   3.2959101  55.7299423
   6.6469846   3.8841701  56.4191055   7.2677097   2.5215180  56.1980515
  66.2570572  17.2642097  47.0164642  67.1946335  17.3739700  46.8579063
  65.8357697  17.7432537  46.3028374  43.5754280  13.7545023  19.0155926
  43.1482735  12.9137907  18.8513565  44.5116310  13.5606174  18.9690685
  32.4152946  17.2805557  35.6627769  33.0045052  17.8427067  35.1597404
  32.1554337  17.8159618  36.4124756  59.5066032  18.2384472   2.9386287
  59.3437843  19.1581001   2.7289600  59.1747742  17.7575512   2.1804338
  25.1866608  52.2057838  38.1029091  24.5311451  52.7105103  38.5843544
  25.4573689  52.7836723  37.3894730  77.8411942  19.8159161  26.5541840
  78.2310638  19.1532478  27.1243629  78.2559814  19.6738014  25.7033119
  24.9470787  59.1560745  65.1608734  25.0764465  59.5798378  64.3123856
  24.1064758  58.7057915  65.0780182   5.4064646  17.8198490  76.3538666
   4.4810619  17.5774708  76.3204880   5.8622823  17.0809174  75.9508286
  52.2507515  15.9688177  56.4689865  52.5131531  16.8336468  56.1536369
  52.1357155  16.0826378  57.4124069  40.4465714  40.0877228  19.6669579
  39.9141083  40.2526207  18.8888035  39.8264618  39.7536697  20.3151112
  17.6097813  22.9650021   5.0641418  18.5609303  23.0099487   5.1617455
  17.4399281  22.0653801   4.7847462  40.9133949  40.9346581  72.5379486
  41.1461334  41.5480766  73.2349319  41.3339195  40.1130676  72.7916794
  54.6927528  16.5625896  51.7098427  54.5573654  16.0160198  50.9357872
  54.9671974  15.9489737  52.3913002  15.9666681  37.6790466  65.9256897
  15.2869759  38.3465652  65.8325882  16.7618275  38.1731033  66.1253433
  22.9628849  53.1310501  39.3872261  22.9170475  53.5890732  40.2264786
  22.3115444  52.4333382  39.4592552  47.9280014  37.9714622   0.5098488
  48.7603264  37.4998131   0.5416723  47.8123131  38.1910095  -0.4146222
   7.2363143  35.3464699  69.4710693   7.0947599  36.2190552  69.1039352
   8.1522989  35.1497612  69.2748337  75.3493729  59.3443451  35.3887978
  75.3550339  58.4132385  35.1668968  74.4414368  59.5274925  35.6303253
  31.8416443  33.6388283  78.8188248  31.1525116  33.0457764  78.5194626
  32.6387711  33.1092834  78.7987137  79.5169220  25.5024624  44.5493469
  79.8490219  26.2516651  44.0547371  78.6310730  25.7585945  44.8060455
  82.0629883  37.1484375  22.5506363  82.1875839  37.2026024  23.4981461
  82.0631790  38.0593529  22.2565804  59.4479027  63.9606667  18.6840534
  58.8294220  63.2302017  18.6957626  59.0060768  64.6404572  18.1752224
  84.7654266  13.3142109  35.4213181  84.5888596  14.2305660  35.6342659
  84.3162231  12.8183870  36.1058655  44.7065544  68.8812561  27.8131237
  44.7655220  69.3455200  28.6481152  44.2098351  68.0882111  28.0145798
  59.6364021  54.0081024  38.9282684  59.0075188  53.5129700  39.4532242
  59.3160133  54.9096031  38.9580193  73.2183533   6.9438467  10.6883020
  73.3128662   6.1369290  11.1944466  72.3412247   7.2605705  10.9040680
  12.0315189  37.2960777  67.0890732  12.0750904  38.0478935  66.4982224
  11.3306265  37.5144806  67.7033081  56.9141464  50.2948685  19.3144608
  56.6012497  50.6812553  18.4965172  56.9822197  51.0345802  19.9181385
  74.3934402  18.9843941  32.5613670  74.4370041  18.5994282  33.4366570
  73.8526917  18.3753490  32.0584869  37.8250580  62.0553513  53.6858902
  37.6832581  61.4590454  54.4211044  37.0214272  61.9942169  53.1694832
  49.6292458  59.9330063   9.8790016  49.0000648  60.5692558   9.5390720
  50.1626015  59.6949463   9.1206560  31.7800083  34.3601646  35.7730789
  30.8508015  34.5320740  35.6205826  32.0853119  35.1185074  36.2710152
  60.8307838  39.1818047  73.3169861  60.1985321  38.4640808  73.3539124
  60.7107544  39.5622025  72.4468536  42.5371704  36.2702637  86.2015610
  42.4618149  35.4005165  85.8090134  41.6534538  36.4714584  86.5094604
  29.0994911   4.7231817  45.4530869  28.5874233   4.7751493  44.6460457
  29.8161659   4.1241560  45.2438583  76.0951538   9.2463980   4.1566372
  75.9951477  10.1871443   4.0109401  75.8607025   8.8479643   3.3184741
  85.9697723  14.0600090  32.9368973  86.5568314  13.3535118  32.6677132
  85.4968567  13.7047968  33.6894989  22.9742088  21.9219475   5.1230936
  23.2409801  22.6953278   4.6261530  23.7677860  21.3900452   5.1826587
  70.3097229  45.8849640  22.7942009  69.5160599  46.3240204  22.4883366
  70.0083313  45.0278473  23.0954494  11.6977463  55.9870949   6.1275363
  11.3892365  55.0826912   6.1833243  12.0536890  56.1727676   6.9964786
   0.3142426  40.9029121  59.8682785  -0.6124311  40.9217949  60.1073418
   0.3140275  40.8533630  58.9123611  43.9043541  50.8181534   1.1059743
  44.4427032  50.8400002   0.3148118  43.2167168  50.1816902   0.9102724
  72.5997086  40.4162369   5.9173388  71.7917633  40.1862373   5.4584641
  73.1129608  40.9004669   5.2705603  52.4001656  36.1673508  48.0818062
  52.6890869  36.9620399  48.5303917  51.6406403  36.4442940  47.5693092
  27.8841496  15.6665344  17.0836792  27.6703129  14.7337017  17.1018124
  28.2798424  15.8048697  16.2231445  68.2401123  56.4388313  39.4071236
  67.3661041  56.3098335  39.0387535  68.1340714  56.2641640  40.3422585
  37.3462524  31.1103973  16.7126713  36.6095047  31.6973095  16.5424595
  37.3750076  31.0324249  17.6662560  53.8004875  69.7060699  10.2242432
  53.5948448  69.0250931   9.5837708  54.7305756  69.8881226  10.0900002
  83.4780426  69.1269836  88.1856537  83.4786530  70.0800018  88.2751007
  84.1322632  68.8267822  88.8166046  32.7704620  64.9736786  82.5651093
  32.5819321  65.5798874  83.2814865  31.9422588  64.8979340  82.0912170
  14.0931091  60.5206718  22.2657337  13.8317757  59.6224442  22.0629425
  13.3476076  60.8850822  22.7428741  58.0436020  59.1802483  40.9326172
  58.4334030  59.8437500  40.3633614  57.2579384  59.5984726  41.2848320
  53.6124115  46.0640717  63.5604439  53.0573349  45.8472404  62.8113708
  53.1092720  46.7138329  64.0512543   0.9106101  11.6034222  40.3361664
   1.8638771  11.5269899  40.2952766   0.7379361  11.9900942  41.1945953
   1.9046472  45.3976707  75.0839386   2.1215630  45.4212837  74.1519394
   0.9602714  45.2431068  75.1062088  68.5808182  30.4502335  18.7468319
  69.4295883  30.6013660  18.3309345  68.2972870  31.3179531  19.0347710
  17.8832130  51.9654312  12.0629921  18.1295052  51.4895554  12.8561573
  17.6402721  51.2814369  11.4390049  32.2487183  58.3733711  86.3622971
  32.4710579  59.1582451  86.8630676  32.4227028  58.6127777  85.4519958
  68.5591049  33.5785027   5.2574453  68.8124237  34.0601044   4.4699655
  68.7054672  34.1964989   5.9736085   9.4484825  40.5625572  23.8876190
  10.3638306  40.8318748  23.9640198   9.4465780  39.6426811  24.1522980
  38.3196602   4.5053186  23.4671383  38.5551262   5.4285822  23.3756428
  37.5622253   4.3932528  22.8927155  72.4368057   5.2396116  65.0746155
  72.2355881   6.0957308  65.4525070  71.7365341   4.6681523  65.3897018
  46.3688278  48.0784111  78.4253082  47.3077965  48.2567596  78.3727722
  46.1489792  47.6997108  77.5741425  31.5006733  23.4274082   2.3577173
  31.5661316  22.7907562   1.6459442  31.4992867  24.2780533   1.9188192
  81.3892593   0.2322218   6.3750191  81.3807678  -0.5022124   6.9888320
  82.2951126   0.2782917   6.0691671   6.9293084  13.9399920  14.6976147
   7.8860302  13.9550114  14.7238874   6.6638637  14.7131500  15.1956072
  76.3806686  31.2786694  12.6635790  76.5683212  32.2134361  12.7486134
  76.7287521  30.8905067  13.4663267  55.8269997  14.7632427  54.1046600
  55.6801224  14.6658726  55.0454979  56.7329826  15.0638590  54.0335312
  83.8806992  43.8654022  81.3680801  83.0110779  43.7397003  80.9883423
  83.7915726  44.6435547  81.9183197  64.5902786  11.2992945  11.7636986
  65.3863678  10.9139051  11.3977079  64.0126419  11.4171276  11.0095863
  22.3603249  59.6423836  59.8340073  23.0582485  60.2560959  60.0631218
  22.0407085  59.9490776  58.9854698  85.0011292  37.7995110  80.7424393
  85.3511505  38.1929092  81.5417862  85.7062607  37.8913307  80.1016769
  17.7370491  43.3742599   2.3599958  18.4593048  43.9657402   2.1485023
  17.7269974  43.3409653   3.3165638  17.9223785  47.8791046  70.9108658
  17.3452263  47.3035355  70.4090195  18.4411659  48.3350487  70.2481308
  50.1374741  69.5075150   0.8202851  49.6448860  69.3623734   0.0124972
  49.4669762  69.6705170   1.4836798   6.9908562  10.8035011  78.5936508
   6.7773252  11.1208782  79.4710922   7.6876431  10.1623564  78.7338409
  63.5772247  28.9867287  28.2862644  63.4919052  29.4817810  27.4714775
  63.6266098  29.6558132  28.9689922  76.5459595  21.8748798  81.5004272
  75.9117813  21.2388706  81.1694565  76.4131317  21.8745117  82.4483643
  71.7831726  34.4857864  38.9060974  71.9115219  34.0166321  38.0816879
  72.6683884  34.7030907  39.1983452  54.9488602  65.7457886  61.4561615
  55.1145973  65.5494766  60.5340843  54.5435028  66.6128693  61.4473305
  82.7379608  14.5021601  38.4418793  82.8439407  13.6041784  38.7559357
  83.0319595  15.0473814  39.1716270  56.1096039  46.0344200  43.9653130
  57.0087700  45.7642708  43.7788925  55.9350929  45.6961594  44.8435822
  41.7175140  55.6090584   1.4972155  41.2914200  54.7694626   1.6697109
  42.4792709  55.6146049   2.0768070  42.4927597  44.0092926  86.0325012
  42.6800156  43.9559021  85.0953140  42.3801575  44.9447327  86.2013321
  10.0585861  40.2327423  37.6054382   9.7041245  41.0445480  37.2427216
  10.8343201  40.0518799  37.0746307  69.1456833  27.4208374  25.9425678
  69.4964142  28.2868347  26.1505756  68.2167130  27.4786892  26.1659412
  32.3926239   8.2937527  48.5094070  31.8459816   8.7365513  47.8602982
  33.2872849   8.5466509  48.2816849  63.8695946  26.6319561  58.4646645
  63.2735519  25.8920364  58.5807838  63.7954979  27.1293106  59.2791443
  76.5023193  46.2537994  81.6101685  76.2966537  45.3214645  81.5417099
  76.7896729  46.5008469  80.7311783  23.0824795  58.1370888  43.0846291
  23.6500969  57.3765793  43.2098007  22.2157364  57.7648735  42.9220161
  84.7894669  27.2209644  66.8435669  84.9076996  26.6824894  67.6260605
  85.6248093  27.1573009  66.3805542  12.2320099  15.9752045  40.8972359
  11.9364119  16.6119843  40.2465706  12.0077896  16.3714428  41.7392311
  14.7782545  63.7562256  45.8917770  15.1899796  64.3434143  45.2578011
  15.5112238  63.3653183  46.3673592  53.4471321  64.5239105  20.8445663
  54.4011154  64.5999146  20.8253365  53.2800865  63.7344055  21.3593636
  64.2952652  70.7158279  79.8870087  64.4188995  70.2985611  79.0344620
  63.5916672  71.3488693  79.7440567  32.2668571  48.8720131  80.1268387
  32.6954117  48.3933945  80.8364105  32.9860115  49.2802162  79.6447372
  73.6098251  45.4911461  31.6609097  73.1165009  45.6028595  30.8482723
  73.7158737  44.5438728  31.7484322  67.2732544  60.5647774  28.7457905
  66.5354919  60.1043205  28.3458939  67.6808853  61.0389595  28.0210705
  34.8715286  37.3803978   9.8649015  35.5797043  37.3026123  10.5041714
  35.2051086  36.9401245   9.0831633  60.7133026  39.2691803  38.1987305
  61.5491447  39.2881813  37.7326393  60.7541389  38.4749794  38.7314682
  78.2528458  37.0377007  55.4377785  78.4984283  37.7316360  54.8259201
  77.7734451  36.4051781  54.9026871  47.5622940  46.1727295  84.0403900
  46.6219521  46.1921349  84.2181854  47.9343987  46.8107224  84.6492691
  36.7694473  14.1529160  86.9754181  36.5497475  15.0741014  86.8361969
  36.7015915  13.7565794  86.1067734  15.9120770  17.8019905  25.5196190
  15.9364738  18.5959988  24.9855900  15.8388119  18.1205807  26.4192657
  49.9088821  38.2122726  72.1530914  49.0209579  37.9547729  71.9050598
  49.9366837  38.0923691  73.1023483  85.8471146  36.2904396  56.4434128
  86.5596924  35.8966446  56.9467812  86.2868576  36.7782784  55.7470856
  72.6408081  20.0547771   9.6452322  72.6601715  19.8064957   8.7209959
  71.8360519  19.6610126   9.9822025  51.8614616  67.6224060  54.9219437
  51.5409279  66.8447342  54.4650917  52.8149071  67.5509262  54.8764954
  39.2998772  39.0517426  21.9647942  39.6480865  38.3572083  22.5239010
  38.3511848  38.9270859  21.9907341  50.4984207  57.4534149  51.4901772
  50.4029121  56.5107307  51.6260376  51.0550690  57.5285149  50.7151070
  72.3428726  37.0996170  71.6816940  73.1135635  37.6552124  71.5651627
  72.4989700  36.6439400  72.5088730   5.9700150  54.4512138  83.0426025
   6.5933247  54.3549690  82.3225708   6.2164936  53.7677040  83.6657410
  66.2141342  39.3462067  67.6914597  65.8299561  39.5610695  68.5414429
  67.1544952  39.2896767  67.8610458  15.1786890  23.4918232  81.2016449
  14.6507130  23.1321125  81.9144440  14.7051830  23.2480793  80.4062729
  17.0246811  18.2170353   5.9536572  17.5041523  18.7909565   6.5511127
  17.4780426  17.3761597   6.0138502   9.8871469  69.6610718   4.8028646
   9.6141863  70.5473938   5.0398455  10.6520147  69.4909592   5.3526564
  18.6227531  40.5520058  30.5959473  18.2942505  41.4417915  30.7247829
  18.3258152  40.0727196  31.3694725  16.4458828  14.4352913  55.5403175
  17.0480309  13.9284372  56.0850639  16.4328671  13.9720144  54.7028008
  33.4693413  60.0423050  59.7006912  32.7860374  59.3939095  59.5306664
  34.2539177  59.6760788  59.2925835  52.1571045  32.0971069  84.0573425
  52.1402054  31.1420860  84.1196442  52.9376183  32.3553352  84.5475998
   7.9153643  59.0475082  58.8704796   8.7751436  58.6517067  59.0131378
   7.6586185  59.3791504  59.7309036  68.9522095  37.9278564  43.4618034
  69.6730881  37.4394913  43.0642204  68.9130249  38.7445908  42.9641647
  39.1362381  55.6900444   3.5080974  38.5415840  55.3493423   2.8398619
  39.1845932  56.6291618   3.3293386  77.4063873  67.9550629  68.7683029
  76.4614792  68.0618134  68.6588287  77.6835938  67.4664078  67.9933090
  57.7041626  71.6238861  73.8701096  56.7995949  71.8421631  74.0944824
  57.6408730  71.1812592  73.0237579  25.8568878  63.0168228  42.8050919
  25.2960663  62.2589378  42.6398048  26.0391159  62.9797020  43.7440529
  40.5162239  56.3243103  59.9593086  41.1068726  55.7841148  59.4343719
  39.8623466  56.6399040  59.3355484  13.9379320   2.8347418  73.1304169
  13.2255726   2.3180234  72.7538834  13.5546875   3.6994071  73.2777634
  68.3166504  37.6577606  39.0441589  67.9154205  38.2362862  38.3956604
  68.8100510  37.0223007  38.5255203  49.0914307  34.0504990  82.7215118
  49.2294846  33.5098343  81.9437866  49.4309883  33.5221634  83.4438629
   2.1161900  12.3071117   2.5567253   1.9993840  11.4342804   2.9318964
   3.0203202  12.3137169   2.2425010  19.3061237  48.7842178   5.1488247
  19.5227585  47.9480553   4.7363515  19.5441132  48.6664124   6.0684528
  47.5603905  54.7685242  23.5818043  47.5227318  53.9001198  23.9826660
  46.7637100  55.2057991  23.8823318  11.5990620  19.5755768  78.3313828
  12.0863104  20.0178947  77.6362686  11.1770210  20.2846107  78.8165436
  48.4054680  28.5741177  14.3961449  47.8174324  27.8256626  14.2948456
  48.5977707  28.6024933  15.3333998  48.4785538  19.9178982  16.0242882
  49.1285019  20.5629940  16.3029461  48.7585831  19.6597061  15.1461353
   4.4778152  26.3374996  83.1300125   3.9086051  26.6867046  83.8157883
   5.2904053  26.1141224  83.5839233  51.5196075  57.0814629  56.7487259
  52.1414986  56.4932671  56.3203468  50.7680244  57.1078606  56.1565628
  35.9669380  60.0390167  52.6450424  36.5626945  59.3420410  52.3702240
  35.6511154  59.7592163  53.5042267  47.2861176  59.1179047  26.4714241
  47.7298317  58.2757988  26.3703651  46.6145134  59.1181221  25.7893829
  20.1020565  59.2466431  70.6911469  20.6059628  60.0501442  70.8203506
  19.4864826  59.2295265  71.4239578  79.0380630  69.0854950  84.3301544
  78.9818420  68.1553497  84.5490265  78.4792404  69.5177231  84.9760132
  17.6108379  68.0464325  34.7189293  17.9346333  67.1540833  34.5960541
  17.6857891  68.4496460  33.8540382  84.8100815  37.3272133  70.2049789
  85.7514801  37.1663857  70.2692947  84.4385071  36.8823051  70.9667053
  40.5998840   7.3099184  67.9235001  41.2183990   6.5814743  67.9786530
  39.7420082   6.8909945  67.8543549  76.8240891  57.8714142  58.9645119
  76.4404068  58.6354408  59.3949623  76.6880264  57.1542015  59.5836487
  83.4052887  44.2226410  36.0608253  82.9718781  43.3751602  35.9600029
  82.8175354  44.7268066  36.6234932  71.2076340  28.1704578  33.4660988
  70.3976212  27.9685440  33.9344292  71.1149979  29.0887203  33.2122383
  24.0403862  65.3469238  24.7672195  24.6977196  65.8654938  24.3032932
  24.0872211  64.4816589  24.3605728  83.1599197  54.7635727  35.7176933
  83.6995697  55.2871857  36.3100128  83.6871490  53.9850082  35.5385399
  55.3532600  11.1895533  -0.1189285  55.8995819  11.9178419   0.1766370
  55.8096390  10.4069777   0.1901408  70.5509415  46.2255402  38.0671768
  71.0522156  46.9387703  37.6718826  70.9421234  45.4295883  37.7070923
  86.4504700   4.7796059  66.7259674  86.2823105   4.1388097  67.4168625
  87.4010315   4.8920379  66.7297821  49.6433678  51.1864853  50.2746124
  49.1885986  50.9773941  51.0905151  50.5241699  51.4408684  50.5497551
  30.4684658   5.4101624  86.1237717  30.2270832   5.1842861  87.0220795
  31.3453770   5.7864985  86.1988220  22.0414925  14.8835564  23.4936790
  21.9896126  14.2443342  22.7830925  21.3191948  15.4885416  23.3248234
  68.4606400  13.8924208  39.1311684  67.5223007  13.7195339  39.2077103
  68.6279144  14.5907946  39.7640419  37.2324600  70.8864365  86.0030594
  38.1558533  71.0802155  86.1643829  37.2321892  70.3817825  85.1896973
  78.9504623   8.3401022  44.6778412  78.9840622   9.1373243  45.2065582
  79.2490311   7.6483755  45.2682686  69.4917908   9.2660418  87.1856003
  68.5622330   9.0498295  87.2591629  69.5578613  10.1581831  87.5261154
  12.2437286  21.4544773  15.6023808  12.4011087  22.3864498  15.7536831
  12.0164909  21.3975277  14.6742907  48.1332359  10.2466431  26.3467178
  49.0878563  10.2173758  26.4105473  47.8271294   9.9975443  27.2187729
  31.8433342   7.2632575  22.9036427  31.0770187   7.1830492  22.3357010
  31.4954510   7.6008101  23.7290325  11.6180096  47.2682724  80.5353165
  11.6234474  48.2116852  80.3735352  12.3290443  47.1284065  81.1606979
  68.6298294  55.6298637  19.7774868  68.3376541  54.7197304  19.7272434
  69.2658920  55.7167625  19.0674877  73.8522720  18.0012188  19.4948978
  74.6775284  17.7376747  19.0877991  73.2487488  18.1153221  18.7607498
  74.4845810  56.7321701  85.6828003  74.4002075  57.6531639  85.9295349
  75.3822556  56.5014229  85.9219055  15.2690907  11.9688244  63.0117378
  15.0898361  12.7797861  62.5358772  15.0272017  12.1639032  63.9170914
  75.0554199  67.6440430  48.3475647  75.7698364  67.3188095  48.8953476
  74.8196411  68.4862442  48.7365875  27.7778034  34.4596596  78.9402466
  27.3100910  33.8684120  79.5300751  28.3716831  33.8899460  78.4514008
  23.2786312   0.1714462  49.8908653  23.7974682   0.9722071  49.9671669
  22.8953152   0.0507262  50.7596169  67.2075424  35.7140350  26.0581760
  66.8010864  36.4726639  25.6392345  67.4610748  35.1459351  25.3307056
  57.9370956  53.3952942  28.2550640  58.2904167  54.1301270  28.7564812
  57.2079277  53.7706985  27.7614880  67.6473389  65.8837280  22.4167881
  67.0334091  65.4403915  23.0022659  67.5359802  66.8139877  22.6128483
  44.7871780  34.7733498   5.2205544  45.0171089  34.2247620   4.4706101
  43.9340210  34.4452782   5.5046682  71.0211334  23.6578197  87.6165161
  71.8697968  23.2248764  87.7090683  70.4252625  23.1337681  88.1518173
  29.7571182  49.9780655  18.0452652  29.9264393  50.5008583  18.8290062
  30.5943375  49.9636459  17.5814896  80.8980255  27.8041649  81.3361664
  80.2597885  27.3235168  80.8090363  80.4825821  27.8919926  82.1940231
  85.3264999  69.3527908  49.6989403  85.9169312  69.0290909  50.3792610
  85.8344650  69.2879410  48.8902397  18.9724865   9.4818258  86.7653275
  19.0042934   9.0828762  87.6348419  18.2157803  10.0671177  86.7978821
  84.5477905   7.6355071  53.3576965  85.3656311   7.2985311  53.7235069
  84.0698166   6.8541336  53.0797997   3.9661312  32.5723610  74.3370819
   3.0490222  32.7296829  74.5615616   3.9302824  32.0413437  73.5414886
  17.6645851  24.4297447  81.9140396  16.8401642  24.1685200  81.5037613
  17.4016266  24.8566856  82.7293930  75.8170624   1.6882628  67.5233841
  75.7138672   0.8192325  67.1356049  75.9019699   2.2767239  66.7732239
  14.3935356  47.0505409  12.3630400  13.8146725  46.2884865  12.3837376
  13.9437313  47.6776848  11.7968273  79.2687988   8.3197927  17.5287189
  78.6842499   8.9172459  17.0622635  78.9095764   7.4495726  17.3557701
   4.8834863  57.6563759   2.0128555   4.5745535  57.7133179   1.1086709
   4.4876122  56.8531876   2.3510876   0.1364822  67.1301956   7.0254731
   0.1188003  68.0854721   6.9674945   1.0670460  66.9099960   7.0678530
  15.4150543  36.3356972  72.2907486  16.1149654  36.8913155  72.6337433
  15.4763737  35.5295181  72.8031464  61.1514587  71.3903580  42.6634560
  60.3486404  70.8904724  42.5157051  60.8984756  72.0709152  43.2872124
  83.3112564  48.2319489  13.9130602  83.3098984  48.1900635  14.8693419
  84.1361008  47.8196373  13.6564293  36.6663475  63.3997307  77.6981659
  37.0243683  63.5423889  76.8219833  37.2213936  62.7172546  78.0755081
   4.7840662  39.7978401  22.9234905   5.2660904  39.0168266  23.1953392
   5.4398103  40.4951363  22.9207478  55.3018570   1.8926172  20.2962685
  56.0322075   1.2773132  20.2313061  55.4631767   2.5301349  19.6007271
  16.9741192  57.6703339   5.8600435  17.7401581  57.1117096   5.7283072
  16.3943996  57.1537704   6.4197912  56.7373199  29.4674339  68.1712799
  57.4198952  29.2289333  68.7985229  56.8529510  30.4081802  68.0376434
   1.2836823   4.4973726  81.7264252   1.6107773   4.2786975  82.5990219
   1.2698563   5.4543085  81.7086868  51.6575661  55.9067459  37.1455307
  51.3892441  55.0823097  36.7398949  51.3412285  56.5826874  36.5461426
  51.4844894  71.3063660   2.4990714  51.3579636  70.4753876   2.0411463
  52.3548317  71.5988388   2.2285202  58.0666161  19.7818089  26.2773056
  58.1899185  20.7285728  26.2090092  58.9532890  19.4298382  26.3557625
  80.6120682  24.3093319   8.9059162  81.1231995  24.6782169   8.1855707
  80.0441208  25.0262203   9.1883039  82.4724579  24.6404552  49.0398750
  82.2831268  25.1247444  49.8435211  81.6114044  24.4283695  48.6795464
   6.9347734  49.8576050  27.4677162   6.9629140  49.4737740  26.5912971
   7.8089800  49.7023888  27.8253517  63.7248917   3.7194159  79.8241501
  63.2615128   4.5325117  79.6231918  63.7663345   3.2545269  78.9884567
  46.0670471   7.1043339  43.6177673  46.2515793   7.8715911  43.0760155
  46.3522644   6.3613758  43.0858879   9.2623348  56.9565582   9.5863562
   9.9704580  57.5908775   9.6978607   9.5722446  56.1701927  10.0355930
  55.4019547  38.9494019  80.4773712  55.1815872  38.9527588  79.5458832
  55.6487694  39.8543015  80.6683578  62.4044189  66.6831436   9.1308002
  62.6985321  65.9569550   8.5809088  61.6440392  66.3370895   9.5980282
   0.5661257  25.5064907   2.3138514  -0.1408715  25.0662441   2.7856243
   0.2286605  25.6165791   1.4249026  46.0442162  48.1937599  36.1319733
  46.3266182  47.2798424  36.1672211  46.7419395  48.6772690  36.5742798
  28.5676174  69.6025925  40.2040825  27.9893551  69.1507645  40.8186531
  28.3856354  70.5319977  40.3430977   5.8773975  48.1225281   0.6922063
   6.5992956  47.8688507   0.1171020   6.3018799  48.3762550   1.5117595
   9.3779564  36.7561913   1.1419406   9.6618395  37.1716080   0.3276486
   9.2716875  35.8323441   0.9151314  33.0377312  34.1975555  18.5157413
  33.3987045  33.9731445  19.3733959  33.3027344  35.1064644  18.3747120
  38.5621185  46.7572212   1.4154644  39.2056656  46.5415649   2.0904241
  38.1025581  45.9338417   1.2508926  45.4571724  52.8264771  13.2329187
  46.2295837  52.2634544  13.1817265  44.7259369  52.2198906  13.3494787
  66.4621506  54.0494690  33.5895004  65.9294434  54.7087746  33.1447830
  66.3344040  54.2270851  34.5213585  18.8749447  53.8581886  35.1198769
  19.2098255  52.9630775  35.0664101  18.2174931  53.8268356  35.8148613
  85.4037018  37.8835449  27.4908142  84.5717239  38.3331833  27.6386986
  85.2136765  36.9628372  27.6708565   2.9351974  10.3231821  26.8578472
   3.1998174  10.2456284  25.9412270   3.7199805  10.0908070  27.3541832
  42.8401451  39.3152046  18.9047470  42.0143242  39.4304161  19.3748341
  42.6567535  39.6268845  18.0184879  86.7753372  27.0785122  82.0442963
  86.1381760  27.6316299  81.5922775  87.0815506  27.6145668  82.7758102
  23.8646450   7.0131025  47.2397461  24.3265877   6.2504501  46.8916054
  23.9397945   7.6736135  46.5510445  80.9114685  57.9740601  43.0961227
  80.2521820  58.3806381  43.6585007  81.6919861  57.9139290  43.6469498
   2.8321350  63.3322029  50.2177277   3.5687504  62.9763412  50.7147102
   2.8037584  64.2575226  50.4610558  43.6278610  44.9956017  69.1064453
  42.7742195  45.1619911  68.7066422  43.6675186  44.0437202  69.1990509
  22.3631477   8.9665871   4.4930067  22.0805912   9.1797247   5.3823700
  22.1198311   8.0479918   4.3780656  26.9487419  41.2350197  11.2101860
  27.6553879  40.6885834  11.5541201  27.3899956  42.0181847  10.8812828
  42.6032715  70.6199036  85.4746933  43.0152588  69.8935471  85.9425735
  42.2627640  71.1876984  86.1659927  79.2587051  10.1227465  74.2735443
  79.6899567  10.6273422  74.9632034  78.7195206   9.4867182  74.7436295
  50.0612183  42.4254189  64.7861786  50.4502907  42.9784050  64.1086426
  49.3483429  42.9532318  65.1459808  24.7982731  65.0068436  11.7069063
  24.0660572  65.6233444  11.7024336  25.4596004  65.4163742  11.1490879
  14.1501160  26.1459713  56.4173050  14.2593107  26.9250107  55.8719521
  13.2941113  25.7973919  56.1683502  56.7430878  23.7089806  68.0570908
  57.1717911  23.0729313  67.4844742  55.8509750  23.7747917  67.7164536
  61.2592278  63.2522888   2.9445920  61.3749237  62.6775169   2.1879640
  60.3378220  63.5094681   2.9113350   0.4911086  16.5616970  33.5553780
  -0.2306498  16.9386196  34.0585899   0.1330755  15.7511311  33.1933975
  29.3094406  43.6097832  79.9308395  29.5872688  44.1158791  79.1673508
  28.7482491  44.2084160  80.4237213   6.9156070  32.0586662  14.8022804
   5.9766393  32.2281036  14.7257128   7.0119834  31.6221752  15.6486959
  85.3513641   5.5642252  64.3558884  84.7302170   4.9479227  64.7439423
  86.1124878   5.5340891  64.9355545  26.6569290  13.4628925   2.2810645
  26.1464939  13.5917463   1.4816359  26.2003956  13.9821301   2.9430325
  17.0002708  47.6504974   2.6848876  17.0686531  48.3053398   3.3796806
  17.0723019  48.1535339   1.8737171  62.3434258  63.5874252   8.2855167
  62.5777359  63.0926170   7.5003448  61.4790039  63.2558289   8.5285130
   7.7650557  43.9969749  42.6043434   8.3188009  43.7022591  43.3273506
   8.3627996  44.4621239  42.0190506  35.7308960  19.7922573   2.2283368
  34.9191666  19.8160954   2.7350459  35.4629593  20.0128784   1.3362787
   2.0109036  65.2716599  47.9417229   1.7958925  65.1247787  48.8628235
   2.9209366  65.5682297  47.9525414  86.1390533  51.9849167  61.5078278
  86.7708435  51.3758583  61.8900871  85.3055725  51.7542343  61.9180946
   3.2023158  24.7107506  61.8905067   3.6407998  24.3157959  61.1368675
   2.9816945  25.5964336  61.6021957  61.8839073  59.8180618  62.5343742
  61.5788193  60.5667419  62.0218964  62.5200996  59.3826981  61.9669647
   5.4512424  18.6166725  38.0393524   5.7786212  17.7301636  38.1915321
   6.1117077  19.0228348  37.4780617   0.3502399  16.9942284  21.1027603
  -0.5856302  16.9835567  20.9020996   0.4094605  17.4449654  21.9451141
  47.1780548  53.7996254  31.7604828  48.0730629  54.0880890  31.5816631
  47.2335472  53.3579979  32.6079025  50.9766617  59.7426643  72.5543823
  50.2626953  60.3662224  72.4214935  51.1336327  59.3698502  71.6868515
  34.2801132  53.4385643   2.9934559  34.4840546  52.9144936   3.7680447
  33.9340134  52.8079681   2.3619547  12.5624113  30.9986744  17.0765781
  12.8630266  30.7996368  16.1898727  12.2050858  30.1715279  17.3996582
  38.1900597  46.2119522  84.4382248  39.0839233  45.8964157  84.3052902
  37.9918365  46.7108803  83.6457520  34.9518127  58.8408852  54.8457298
  34.4792557  58.1031761  54.4601059  34.2698135  59.4790154  55.0552444
  60.3381004  26.1363621   8.3242054  60.8954086  26.8153362   8.7045116
  60.9400024  25.5841904   7.8251524  57.2834892  26.5265255  81.7434540
  57.7777061  25.7185154  81.8816528  57.8793373  27.2222290  82.0212860
  58.5376015  40.7209167  15.9223967  57.7037239  40.5394707  15.4888582
  59.1137657  41.0186539  15.2183943  14.0348282  16.8752422  81.6863632
  14.8096485  17.2871819  81.3040161  13.9505920  16.0438519  81.2195358
  70.6406937  15.5784702  54.8208885  69.9196472  16.1342831  55.1165276
  70.9755096  16.0165291  54.0384331  75.8570709  35.4790077  56.9928360
  75.6782303  34.6773529  56.5013084  75.6121521  36.1858101  56.3956108
  19.6764812  51.2678757  54.8630867  20.3147640  50.6277237  55.1777802
  19.7287617  51.2091789  53.9091225  30.2873459  58.7683067  55.5866852
  30.3379669  57.8771667  55.9324303  31.1072826  59.1787415  55.8614197
  61.8664055  17.4267521  30.4525928  61.5744591  18.2849140  30.1450920
  61.1270409  16.8449268  30.2763901  30.5269032  66.5424805  31.8972588
  30.7890835  66.2317505  31.0306911  30.9837875  67.3772125  32.0007362
   8.3401384  63.0398140  59.0763588   7.4987197  62.6059761  59.2178879
   8.2480249  63.4695091  58.2260017  70.9248581  12.4471951  60.1414185
  71.4456100  12.0671978  60.8489838  70.5923233  11.6918755  59.6565018
   7.1812572  27.9279709  36.0542183   8.0365238  27.7836990  36.4591103
   6.5643454  27.9134903  36.7859573  17.9421482   4.0848408  84.1443558
  17.0089207   4.2889023  84.2050018  17.9703274   3.1480532  83.9497604
  84.4006653  67.9135895  18.9928780  85.0457611  68.2550278  18.3735981
  84.7898560  67.1032715  19.3217335  80.2861481  38.8405571  39.7620049
  80.4961777  37.9161949  39.6290550  79.6529007  38.8414536  40.4798012
  50.5793800  47.7798309  38.2686005  51.3791580  47.7175140  38.7908134
  50.8548431  48.2098732  37.4590225  13.0441151  37.6709175  51.4171333
  12.9009714  38.5859070  51.6590729  12.1668634  37.2884941  51.3968010
  22.0578194  65.0054703  17.2032471  22.2903595  64.6083450  18.0425625
  21.7741985  64.2697449  16.6605663  72.3568192  58.2568779  13.4845381
  72.1279297  57.6832085  12.7532730  72.3612442  59.1363487  13.1067295
  44.2760429  32.6338501   9.2069340  43.4631119  33.0575790   8.9315653
  44.0975151  31.6970253   9.1249657  65.0738144  46.9675293  33.9738998
  64.9898376  46.5946121  33.0963402  64.2814636  47.4923210  34.0879593
  79.9324875  48.4776077  73.1918945  79.9777603  47.7002602  73.7485962
  80.0970840  49.2086487  73.7874832  11.4523573  16.6084023  86.4058380
  10.9226723  17.2967472  86.8081360  11.7454185  16.9856415  85.5763550
   4.2685280  54.3464699  73.2501907   3.5901072  54.0320549  73.8477859
   4.5938702  55.1489563  73.6581116  48.9221115  19.8481960   4.9180927
  48.0476227  19.6838703   4.5652461  49.5013771  19.3022652   4.3864498
  48.5279808  70.4538879  68.5119095  47.9568405  71.2128983  68.3939056
  47.9441299  69.6997910  68.4301605  17.7131329  28.3281097  15.8256760
  17.2612591  28.8001652  15.1262436  17.0252228  27.8187370  16.2541046
  86.6793442  64.9430008  34.8335838  86.3329620  64.6116867  34.0050430
  85.9337540  64.9149475  35.4332047  28.8354721  63.3094025  40.2103157
  28.7035618  63.1548271  41.1456985  29.7838764  63.2597237  40.0907555
  81.7918854  35.2895432  58.6624756  81.0292892  34.7157059  58.7359123
  82.2511215  34.9789162  57.8821907  66.3373413  10.1578140  41.3595085
  67.2133636   9.7727604  41.3828735  65.8539963   9.6950960  42.0439835
  75.6792603  42.3872757  30.1916275  75.9660492  41.5310059  30.5090981
  76.1862106  43.0155106  30.7059784  53.8872490  26.5616436  61.3300972
  54.7069321  26.9779510  61.5966225  53.2041245  27.1006794  61.7288589
  77.9260330  39.5215454  85.5755920  77.0510178  39.3147430  85.2472382
  78.0325851  38.9600830  86.3434753  56.4554939  68.8321609  25.9217319
  56.1916809  69.4038010  25.2007198  55.6445198  68.6605530  26.4003792
  15.1981049  65.7629471  30.8912086  16.0280991  65.8377762  30.4203129
  14.5574455  66.1799698  30.3151188   5.0545697  26.6952229  86.3041077
   4.1122093  26.8626633  86.2917633   5.4227262  27.3546333  85.7160034
  53.6994476  29.5323296  30.0564270  53.3258324  28.7183647  30.3942223
  54.5988808  29.3037987  29.8218613  34.6699791   6.1297770  60.6516800
  35.4466286   6.6791396  60.5456085  34.1830673   6.5389347  61.3670387
  50.9168777   3.9151497   8.7633324  50.4137840   3.1219473   8.9476109
  50.4728317   4.6015081   9.2612953  35.7347298  58.8224297  33.5949364
  36.6625824  59.0529823  33.6414948  35.6196442  58.1546783  34.2710266
  84.2989120  62.3262825  76.6341553  84.1322403  61.4205627  76.3731461
  84.6173630  62.7504272  75.8373337   6.5814886   9.7581387   6.9415345
   6.2633867   9.8258934   7.8417859   6.0524549  10.3883810   6.4525051
  60.5380783  19.9108295  52.9866638  59.9181290  19.1949368  52.8473892
  60.4555321  20.4549217  52.2034760  31.1081848  20.8175735  23.6204700
  30.1738396  20.9523029  23.7788334  31.5396500  21.2259369  24.3710079
  44.1172981   5.3967128  88.6209335  44.4636307   6.1014781  89.1682816
  44.5375137   5.5253348  87.7705765  81.7336578  56.7112312  49.7523384
  81.7901230  56.1261902  48.9968452  81.6849442  57.5885925  49.3727417
  11.8173313  50.8760529  56.0475426  12.3679991  50.2676888  56.5403824
  12.4262800  51.5367126  55.7174835  15.1948748  45.6794319   3.5935886
  15.0916080  45.3097610   2.7167130  16.0064087  46.1848221   3.5464077
  46.1843872  69.4193268  57.0029411  45.6090889  68.9058685  57.5700607
  46.9543343  69.5990753  57.5424805   0.6041024  38.6006508  66.0202484
   0.5692066  39.2570457  65.3244324   1.4402237  38.1542320  65.8866730
  74.6922150   7.9114203  29.9037323  74.2362061   7.7393432  29.0799141
  74.2708969   7.3299675  30.5366879  12.5172024   0.1859868  39.0913315
  13.2360182   0.1778087  38.4592972  11.8862667   0.8076574  38.7284584
  59.2199478  50.4600945   6.3228173  59.0877876  51.0263062   5.5624413
  58.3724823  50.0352516   6.4552641  84.0587692  58.7934685  32.5340652
  84.9370270  58.4374619  32.6687737  84.2070618  59.6935081  32.2439461
  10.7076225  25.4496250   4.7690806  11.1948938  24.6754494   4.4872108
   9.9986916  25.1024380   5.3104763  86.4096527  32.4998550  86.1162643
  85.6507645  32.6614838  86.6767883  86.0590897  32.5232849  85.2258759
  66.8965073   9.5682421  71.2332458  67.7757111   9.2011585  71.1411438
  67.0393829  10.5090570  71.3366165  70.5523911   8.6408491  47.2839241
  70.9572906   8.5257645  46.4242477  70.8489761   7.8853946  47.7914238
  31.3626328  54.8797684   7.4161253  32.1542702  54.3654480   7.5742965
  30.6482124  54.2461243   7.4819107  43.4807205   7.5495806  44.8294373
  43.6446342   7.9095998  43.9578018  44.3467178   7.4977694  45.2339134
  79.6028366  64.2603226  31.8409023  78.8329315  64.6589584  31.4352188
  80.1963882  64.9940948  32.0005913  27.3650322  60.4177361  69.2981339
  27.0044422  60.3725243  68.4126053  26.6265659  60.6879158  69.8439407
  16.0988045  59.5622864  33.0612450  15.9034891  60.2188911  32.3926926
  15.3228168  59.0022049  33.0807915  54.9556580  71.1448288  60.5210686
  54.5746422  71.9719467  60.2262268  55.8730927  71.1945724  60.2526131
   5.9118376   7.8878260  15.4814739   5.1926079   7.2876945  15.6784086
   5.5858517   8.7477016  15.7471399  50.5333557   6.4045849  78.7285767
  50.8990135   5.5266771  78.8372345  49.7308311   6.3960333  79.2502213
  32.1750336  36.3536110   0.6823358  31.2734852  36.2641716   0.9912707
  32.6352654  36.7783051   1.4062536   2.1243215  61.8337517  32.3475876
   2.7579539  61.4458313  32.9511261   2.1545973  62.7712288  32.5384979
  39.2646523  66.7960129  82.0053787  38.4802628  67.1077347  82.4568100
  39.9473419  66.8068695  82.6762314  14.0438251  48.6166573  79.3092117
  13.9158783  49.3028297  79.9642105  14.8614645  48.8530655  78.8712540
  43.9496613  43.2830200  17.4030762  43.1606789  43.0023079  16.9394627
  44.2614365  44.0407372  16.9082088  80.0551300  70.1141891   8.5626898
  79.4364319  70.1322937   9.2928352  80.8300934  70.5678635   8.8941193
  55.6736298   7.0441437  31.2532787  54.9486389   7.1582227  30.6387787
  56.2854080   6.4661880  30.7972889  28.7004147  18.9611244   4.6073623
  27.9651604  18.7073345   4.0494871  29.1630096  19.6310120   4.1038885
  46.2742958  54.4482002  69.8482819  45.8268700  53.9082603  69.1967392
  46.9026146  53.8550949  70.2601929  71.7558746  20.4389210  84.6472015
  72.4455490  20.8331795  85.1811905  72.2246170  19.8963928  84.0130310
  59.9728661  67.3705826  63.5474319  59.4691925  67.8122940  64.2311249
  60.8233414  67.1968918  63.9508629  80.8467331   9.2544060  68.4129333
  81.6677780   9.5169687  68.8290787  80.7614365   8.3232822  68.6177902
  53.5783234   4.0951409  85.0643768  54.2080688   3.3826928  84.9545135
  52.8131714   3.8183439  84.5602417  55.4638214  54.7378426  57.7668762
  54.9822922  55.4567566  58.1761703  56.1708260  54.5423889  58.3818321
  56.9906921  35.2402344  34.6016159  56.3957901  35.9024811  34.2498283
  56.5070076  34.8447609  35.3267937  53.1089935  35.5354347  28.4456177
  53.5039787  35.8516579  29.2581577  52.2389374  35.9342117  28.4312096
  74.2059250  52.7510147  62.3396149  73.3136444  52.4721832  62.1338921
  74.1776962  53.7060623  62.2820168  36.8780937  39.4360313  41.0209923
  36.7648697  39.6054497  40.0857353  37.6926308  38.9364052  41.0770073
  42.4002876  68.3822632  62.9701729  42.2047958  69.2683716  62.6654854
  42.5627785  68.4819260  63.9081993  57.3060341  11.6978273  12.8591232
  57.4476471  11.6628599  11.9131021  57.4984322  12.6048851  13.0967379
  39.4819183  68.2566681   3.9084365  38.7818146  68.0912552   4.5398836
  39.3393517  69.1593628   3.6237581  56.7638092   5.3383055  77.2229309
  56.2685471   6.0682726  76.8513184  57.6624947   5.6629043  77.2797623
  68.3753586  63.3658905  62.3737640  68.0903549  64.2709427  62.4998131
  68.5200195  63.0346870  63.2601089  58.8573494  41.2386665  49.7944450
  59.7868652  41.3368988  49.5880852  58.6928253  40.2988968  49.7169991
  25.3838787   5.2782083  45.6916695  26.0570908   5.6973057  45.1555939
  24.9891930   4.6254854  45.1133881  59.7527924  49.3779526  58.2138824
  60.3784943  48.6536255  58.2225609  58.9828300  49.0240097  57.7687836
  10.7659531   9.4446745  23.9785347  11.7065849   9.3807402  23.8131409
  10.6127853  10.3767824  24.1332760  76.1807022  46.7173119  31.8308697
  76.4272766  46.5610580  30.9192677  75.2947388  46.3623199  31.9035702
  69.1532898  46.4133568  70.3388367  69.6190872  46.0969162  71.1128769
  68.6294174  47.1480408  70.6582565  49.3940315  39.4856148  62.1133804
  48.8783340  38.7134247  62.3457794  49.9948196  39.1771355  61.4350548
  63.6764297  24.7782154  22.6710243  64.2783966  24.3481388  22.0636520
  62.8382301  24.7906189  22.2089653  45.0808182  54.8035545  86.6861801
  45.8516541  55.3672943  86.6210709  44.9683189  54.6592102  87.6257248
  60.1986008  28.4998169  27.5129414  61.1551743  28.5251789  27.5364113
  59.9337845  28.6022873  28.4270554  78.0970612  31.4948654   6.5446095
  78.6528320  31.9966908   5.9483552  77.3949890  32.0998917   6.7839093
  45.4208183  59.1968193  44.0929222  44.9854279  58.7764626  43.3513222
  45.6441727  58.4747314  44.6802330  27.9467735  46.9076996  72.9756622
  27.1763573  47.3059349  73.3807526  28.2202015  46.2310028  73.5949707
   7.7019138   2.5765116  27.2050953   6.9772997   3.1531286  26.9628582
   7.8737330   2.0631914  26.4156570  82.8767319  26.2681580  38.9761620
  82.7494888  27.2065926  39.1153755  82.2943420  25.8507385  39.6108398
  47.1175079   3.5469146  49.5420799  46.7108536   4.2736669  50.0139847
  48.0368004   3.8001623  49.4584312  52.2899895   0.7835280  35.4023895
  53.1305847   0.4286303  35.6916542  52.3015594   1.6950006  35.6944771
  71.7194290  57.4489517  89.0594635  71.3962326  56.9221611  88.3285294
  70.9284286  57.7881279  89.4784164  50.4183197  57.7593079  13.6344080
  50.8634491  56.9435501  13.8638201  49.7293816  57.4931793  13.0255003
  81.9220734  52.4935455  51.1145668  82.0146103  51.7634544  51.7266426
  82.7746048  52.5543137  50.6836052  45.5837135  36.1945229   7.2193875
  45.1167145  35.5747871   6.6589680  45.1401024  37.0301743   7.0740385
  42.0915375  28.8423290  79.4480057  41.3131104  29.2668133  79.8086929
  42.7493515  29.5368786  79.4146652  10.9120913  25.5029926  70.6837616
  11.8623838  25.5647087  70.5869751  10.7352209  24.5628414  70.7164230
  15.6508026  56.9839363  45.7414284  15.8551111  57.9140892  45.8378716
  14.7968903  56.9698448  45.3091431  78.6135254  24.8662853  20.2031784
  77.8971710  25.3148937  19.7539368  78.3100357  24.7751122  21.1064034
  50.2949409  38.9233055  25.6170597  50.9211578  38.9200249  24.8931293
  49.4779129  38.6108093  25.2284145  71.8397369   4.1648831  68.9048615
  71.6343079   3.4726474  69.5332260  72.7722626   4.3373241  69.0348511
  51.7079430   9.0478134  53.8865395  52.4720650   8.6220951  53.4978065
  50.9915619   8.4286757  53.7461777  23.5578308  19.4525337  17.1590233
  23.8486195  19.9883022  17.8970108  24.1034470  18.6673183  17.2034340
  71.1126480  67.9090576  45.4808006  70.2619781  68.1872940  45.1414070
  71.2593689  67.0502090  45.0844650   1.7392666  59.2464867  57.9972458
   2.5805922  59.5261307  58.3580856   1.8894564  59.1926422  57.0534363
  85.8993073  27.4098206   0.4556019  85.9275131  28.0513325   1.1654599
  85.2388840  27.7496395  -0.1482196  40.5588074  19.3927307  11.5291729
  39.7123604  19.3352795  11.9724092  40.8573761  20.2863789  11.6979342
  24.5702477  55.7510109  68.3422852  24.1578808  56.4583626  68.8381119
  23.9125938  55.4974670  67.6946487  55.7799034  50.9094658  72.8310471
  54.9188957  51.2657051  73.0501175  55.6526642  50.4779282  71.9861755
   5.9561472  37.8173523  20.7878132   6.2731638  38.6450043  21.1493664
   5.4345818  37.4324532  21.4921246   2.0921147   1.7333356  22.5695934
   1.6783167   1.6183487  23.4250355   1.7336162   1.0262824  22.0331345
   3.5439110  70.8014603  40.0933037   4.5006800  70.8017731  40.1220322
   3.3274493  71.3170090  39.3163948  10.7737885  31.8428001  29.7863331
  11.3473740  32.5394478  30.1055737  10.8668518  31.1415730  30.4312000
   3.9594982   5.5878186  75.4978333   4.7067437   6.0399594  75.1061325
   3.9100580   5.9342904  76.3887558  69.2896500  22.6832714  49.0283432
  69.5632019  22.3738842  48.1648140  69.1866531  23.6289940  48.9223747
   7.7744913  36.5649147  26.9967251   7.1423035  35.8640785  26.8373451
   8.5344152  36.1209564  27.3730907  86.1886063  68.9507065  26.5615387
  86.2721252  69.8298264  26.1922092  86.0505600  69.0962372  27.4974861
  46.4960709  15.1510172  78.4501877  46.1698074  15.7509041  79.1209488
  47.4135246  15.3979425  78.3338242   7.2378154  31.5972519  85.3817520
   6.8501287  32.3917770  85.7487106   6.7284322  31.4259930  84.5896454
  37.4266739   7.9945436  48.8860512  36.6754074   8.5708027  48.7454872
  38.1220436   8.5775537  49.1906624  61.5042076  57.0966644   3.5358908
  60.5889511  57.3079224   3.7200270  61.5606880  56.1490631   3.6587396
  69.5070496  38.1656647  26.6835289  70.1404190  38.8208656  26.9764309
  70.0160065  37.3587837  26.6051788  55.9055901  61.1204224  60.0974503
  55.3809433  60.3568192  60.3380585  56.8112793  60.8395576  60.2281113
   5.6430469  47.2526321  43.4142761   6.1473980  46.9169807  44.1553574
   4.8401780  47.5956421  43.8066750  55.0146370  39.0390511  69.9977722
  55.8396606  39.2520638  69.5616531  54.3706245  39.0086098  69.2902679
  63.7607651  21.7908802  24.5222111  63.6341515  21.2614212  25.3095322
  63.4337654  22.6580582  24.7615929  58.5327034  64.1451950  60.7128105
  57.8062782  64.4900894  60.1935921  58.8560333  63.3997574  60.2068291
  59.9008179  13.3681059  27.5387287  59.3933754  12.9979525  28.2610340
  59.3077698  13.3356867  26.7880802   2.0419750  61.4324150  29.5086308
   2.0388474  61.5086517  30.4627857   1.2024839  61.0234680  29.2982769
  10.2711964  13.8568563  86.4471130  10.5682392  14.7556801  86.3052902
  10.2516241  13.7584600  87.3990402  12.8022432  30.6837692   0.9946327
  11.9279594  30.9050560   0.6738650  12.9896221  31.3486061   1.6572880
  66.5464172  58.2129974  65.0719681  67.4129028  58.4298859  65.4160461
  66.6934586  57.4455643  64.5191116  44.0323143  10.2888794  52.4416542
  44.6846657  10.3410759  51.7431221  43.3411636   9.7323065  52.0828094
  82.4572983  55.3709297  83.0852585  81.5867538  54.9755249  83.0400314
  82.2928543  56.3138542  83.0758514  75.7239227  51.8048744  31.0530396
  75.7060318  52.7423325  31.2456131  76.4164352  51.4580002  31.6154823
  19.3999233  63.0292740  79.0799332  19.6392879  63.8451385  79.5195923
  18.4469395  63.0707512  79.0003510  52.4886398  49.7497749  30.8292179
  51.6030083  49.6405869  31.1755753  53.0581055  49.6506882  31.5921860
  54.6565247  45.6108551  11.3502254  54.4492607  44.6763649  11.3479300
  55.5970192  45.6480179  11.1761093  63.1605568  48.4125710  20.2644100
  63.6089325  48.0371323  21.0221939  62.2442818  48.4739189  20.5344181
  62.7541580  53.3978996  31.7632027  61.9255371  52.9220657  31.7066040
  63.3516045  52.7878571  32.1957893  84.7733002  52.3683128  51.1611328
  85.0707626  53.2706108  51.2777939  85.3868408  51.8452530  51.6770935
   7.1066184  61.8712234  67.0318985   7.0550704  62.2838249  67.8940659
   7.8969345  61.3326073  67.0709991  12.3824215  30.8822155  14.3366728
  12.2524843  30.3634968  13.5427723  11.5400467  31.3129768  14.4818707
  58.0931168  44.1379089   9.6423254  58.9599800  44.1870308  10.0452728
  57.6074028  43.5239639  10.1931267  69.6734467   9.8192606  84.3153534
  68.7171707   9.7796526  84.3012085  69.9092941   9.5919952  85.2147751
  69.3564377  39.1002541  52.6345520  69.8521957  39.2725601  53.4350319
  68.4924316  39.4765472  52.8022461  19.0814018  24.7294693  25.1915588
  19.6387329  25.0849686  24.4992924  19.1291847  23.7807198  25.0739937
  34.4401588  50.2991638  41.4158249  35.3447990  50.1679611  41.1318436
  33.9109917  49.9471703  40.7000618  63.1528778  12.0998049   1.1964073
  62.8916092  12.3335934   0.3057261  63.6692543  12.8470287   1.4984680
  43.3955917  54.0024681   5.2414804  42.6758537  54.2363434   5.8275785
  43.1832581  53.1183434   4.9423690  34.7981148  46.6017380  12.9099073
  35.3330193  46.6596565  13.7015839  34.2202568  45.8546524  13.0654097
  55.3363609  54.9009819  40.2266617  54.6506805  55.5123749  40.4955025
  56.1483078  55.4016304  40.3062057  66.5127182  71.3288574  84.3196335
  66.3960724  71.8655930  83.5357056  66.2148209  70.4571609  84.0595856
  81.3534317   8.0302515  58.0993767  81.2506561   7.2194257  57.6011467
  81.1979065   7.7741094  59.0084610  63.7249832  60.3475494  76.1584091
  63.0007439  59.8022728  75.8511887  64.0178528  60.8185463  75.3782654
  51.9775848  18.8764610  18.7079487  52.0811462  18.3418465  17.9207420
  51.4000740  18.3624344  19.2722969  17.8893642  40.0734978  21.8244839
  17.7596569  39.3227730  22.4039841  18.8381691  40.1981049  21.8026600
  33.7369270  70.6345139  63.7277679  32.9681473  71.1413879  63.4664536
  33.7226791  70.6539078  64.6846619  40.0454292  52.1555099  46.8173599
  40.7928848  52.7055359  46.5828171  39.2801819  52.6647606  46.5503464
   6.7603149  54.4684258  17.5671921   6.8177094  53.5688972  17.8893452
   6.7889647  54.3838081  16.6141701  53.8551178  30.0374947  86.8406601
  54.1213493  30.9536743  86.9178772  53.2891998  30.0167503  86.0689468
  55.9040222  65.6483002  76.9039612  55.6661301  64.7881088  77.2499390
  56.3746529  66.0731049  77.6210938  20.7446594  37.0820770  79.1804657
  21.3874798  37.6640511  78.7751083  21.0656242  36.2007103  78.9896469
  67.3626480  34.6948051  45.2395096  67.3395615  35.4711418  44.6800461
  66.4789734  34.6347923  45.6024895  61.7609177  46.0691071   0.5590849
  62.6521301  46.4073677   0.4721753  61.4820442  46.3500214   1.4306051
  18.8492908  49.5240211  22.2698727  18.2363949  48.9341583  22.7087917
  19.5433960  49.6697960  22.9126797  64.7908630  22.4490318  88.7821655
  64.3974609  21.9003792  88.1036072  64.8031616  21.8938351  89.5618057
  10.3242025  13.1794548  58.6166191  11.0926590  13.3786755  59.1514244
  10.3833427  13.7847681  57.8774757  54.2145424   8.4091110   6.4256983
  54.1250916   9.0071268   7.1677270  54.9807892   8.7302170   5.9503183
  85.7357178  34.2437897  25.3512840  86.3228073  34.8595314  25.7899418
  85.6096039  34.6140785  24.4776630  50.0644073  41.0988846  35.9738922
  49.9600067  40.7030258  35.1086578  49.5660019  40.5290909  36.5596886
  18.7539883  30.7419071  64.2675247  18.5495415  30.9663868  65.1752930
  19.2359200  29.9170570  64.3274918  65.9352493  45.8097916  30.1133480
  66.1080399  46.6970978  30.4280910  65.5701752  45.9333038  29.2371635
  35.1924438   6.4817080  88.2144241  35.8318253   7.0104494  87.7370758
  35.7195129   5.9457488  88.8070221  77.2160187  65.2137451  62.1835480
  76.5366898  64.8693695  61.6037636  78.0388870  64.9684067  61.7605438
  68.3909683  17.8861942  62.1050949  67.9896240  17.6478481  62.9407692
  68.7222672  18.7735863  62.2429619  17.5826702  38.4523735   3.5261345
  16.9874172  38.1283073   4.2020702  17.1971054  38.1516609   2.7032471
  73.2470474  28.1932659  74.9214478  72.3460846  28.0590191  74.6273880
  73.1680298  28.3839741  75.8561249  74.9395752  17.4645214  40.2267609
  74.7590714  17.0529480  39.3816223  75.7824097  17.0992565  40.4959068
  44.2058983  53.8679428   8.6215658  44.8391876  54.5447006   8.3824520
  43.4165878  54.0939255   8.1294756  48.2760811  15.5803642  28.4503212
  48.1865540  15.7998199  29.3777122  48.9109306  16.2132263  28.1146374
  21.2162476   3.5620880  11.4748116  21.3594837   2.7182724  11.0462198
  20.3174019   3.7978401  11.2451830  22.4116344  48.0965271   2.2827203
  23.3214569  48.3786621   2.3768227  22.3955898  47.6107140   1.4581243
  82.3037262  51.3189468  81.8981400  81.4466782  51.2945213  82.3237000
  82.7176132  50.4920540  82.1454849  84.0412827  10.3888369  68.4786835
  84.0164185  11.0204668  67.7598953  84.2560196   9.5560694  68.0584259
  23.6929283  71.0232010  55.4324074  24.5559330  70.6105728  55.4669571
  23.8695889  71.9262085  55.1685715  30.9800625  60.1771240  15.8826208
  31.0673275  59.2692261  15.5922098  30.0611324  60.2597847  16.1375046
  16.5721684  13.5194654  79.9682312  15.7830849  14.0431538  79.8292007
  16.5179749  13.2428856  80.8829956  23.3310966  43.4120865  19.6039238
  22.6271286  43.1613541  20.2020855  22.9979420  44.1884995  19.1540146
  81.1015320  24.0884647  26.2656155  80.4736176  23.3766155  26.3890343
  80.5596771  24.8590660  26.0959148   9.6500006  25.0655746  16.8197365
   9.9307814  25.4115314  17.6669140   8.7220068  25.2934208  16.7636414
  25.4765072  32.8263817  83.9331131  25.7350502  32.6360321  84.8348694
  26.2842102  33.1150322  83.5082245  53.2505226  67.8727570  86.0471954
  52.6462517  67.1419220  86.1774445  53.5226707  67.7984085  85.1325150
  37.9591446  29.7295151  78.5419617  38.1146469  30.6305218  78.2586975
  38.7346573  29.2497559  78.2510300   7.4554811  31.0476742  71.5093460
   7.4850564  32.0032921  71.5557404   7.1889076  30.8597031  70.6094360
   5.3998165  23.5341396  17.0396404   6.3047299  23.3875885  16.7641659
   5.0343280  22.6550560  17.1389446  74.6436615  14.6796474  30.0152893
  75.1885071  15.2919064  30.5097713  75.2466354  14.2692213  29.3954449
  35.1529770  26.2211418  82.0763397  34.2364006  26.3814602  82.3008804
  35.2563667  26.6029968  81.2047195  30.5155640   9.4516459  46.5814362
  30.7422962  10.3368454  46.2964020  30.4331799   8.9521646  45.7690582
  42.5191574  35.8771172   0.1259246  42.8761940  35.8571739   1.0138192
  43.2518883  36.1611977  -0.4205479  57.7607574   2.3159497  13.7292280
  56.8912659   2.6298249  13.9776144  57.7236748   2.2371504  12.7759981
  49.1692657  29.5502148   6.4078693  48.3977585  30.0688763   6.1798348
  49.7778625  30.1819210   6.7910042  51.4181213  68.9155045  74.4231720
  52.3575974  68.7821808  74.5490265  51.3437195  69.8179703  74.1129227
   8.0816498   6.7073488  53.6767006   7.2380676   7.1399117  53.5444527
   8.4747486   7.1701851  54.4166260  85.5793839  41.0199699   4.1981235
  85.6501541  40.9436073   5.1496444  85.5718613  41.9628601   4.0334101
  74.2267151  25.4489803  62.5088005  73.6511841  26.0243855  63.0126877
  74.5388260  25.9947739  61.7870445  27.4756927  45.8941422  62.6945839
  28.3993168  46.1240921  62.7959328  27.4819679  44.9562988  62.5031662
  13.8759165  64.4724350  55.9691048  13.5035515  65.2358780  55.5278168
  13.6794338  63.7392387  55.3859673  12.1782465  63.4107857  21.1012268
  11.8204079  62.8012733  20.4557209  13.0275640  63.6681595  20.7425461
  68.7304688  53.7345963  54.3460236  69.6431198  53.5429649  54.1302338
  68.2358093  53.4332695  53.5839539  33.0076637  23.4896889  88.7044373
  33.6108818  23.7684174  88.0154724  32.6892014  24.3064404  89.0887985
  65.8190079  43.9964104  22.3617191  66.2697830  44.7439384  21.9689941
  65.2986908  44.3756104  23.0700397  16.2264805  46.4985542  31.4541969
  15.2789459  46.6336403  31.4415340  16.5863266  47.2874641  31.0487804
  21.5995121  29.6943169  72.4964066  21.3674393  29.2149734  73.2917709
  22.5492210  29.8012791  72.5497284  64.2341537  61.9292946  39.7748947
  63.8931313  61.6604080  40.6279106  65.1657410  61.7121811  39.8101273
  13.1140127  48.8667908  54.4023857  13.5618229  49.6016541  53.9832535
  13.3862514  48.9116898  55.3189583  45.2240639  36.8010025  15.5459118
  44.4373360  36.7472878  16.0885029  45.9080353  37.1006508  16.1447678
   6.2196693  37.9563599  24.4964428   5.9914670  37.0303192  24.5777092
   7.1766305  37.9664536  24.4776001  26.1563053  47.3421631  79.5359879
  26.5008869  48.1760025  79.8556824  25.2648773  47.5444794  79.2519913
  83.7349930  62.1439018  30.1318779  84.2962799  62.1489372  29.3565254
  84.2388687  61.6640511  30.7892075   9.1179419   6.6645188  20.4134941
   9.4059067   6.0014992  21.0409603   9.2404642   7.4963875  20.8708935
  73.0699768  44.8205376  49.8324623  72.1514206  44.7053185  49.5891151
  73.3241653  43.9798737  50.2131195   3.5762062  32.5161629   7.5018840
   4.1119304  33.2509422   7.2030077   3.8742936  31.7733040   6.9769673
   1.1387473  42.1270142  52.5090027   1.3860846  43.0495262  52.4454880
   1.5648458  41.8193359  53.3090057  59.6886292  28.0487270  51.8867607
  59.8633499  27.2298794  51.4228706  60.2049446  27.9837475  52.6901436
  69.3137512  32.8281250  77.1576385  68.5842972  32.7643890  76.5411377
  68.9494629  32.5306206  77.9913101   8.3910933   8.1923313  24.7024174
   7.8089213   8.1470823  23.9439564   9.1441002   8.6979485  24.3965359
   3.0065193  25.0983028  25.2052746   3.8371284  24.7343025  25.5115814
   2.7462373  25.7121429  25.8920708  70.7819672  29.9416618  48.1074371
  71.5487823  30.4903698  48.2722168  70.5062332  29.6483860  48.9758797
  13.7291594  17.0150909  20.7559109  13.0639858  17.5605450  21.1757393
  14.2272758  16.6423283  21.4833431  66.7209549   3.4186566  32.8417740
  67.5663071   3.7093318  33.1839981  66.7846451   3.5572615  31.8968067
  72.9987259  47.5599747  18.4836845  72.7748413  46.6578522  18.7123356
  73.3650131  47.4995804  17.6014042  56.4865456   2.7285779  11.2989397
  57.3360291   2.8069248  10.8648090  55.8656693   2.5810382  10.5855122
  63.5425262  37.5689240  14.9153042  63.7455177  37.7437363  15.8342543
  64.3761444  37.2931862  14.5341377  85.4884567  67.8485641  39.6342163
  86.3762283  68.1924133  39.5349197  85.6088791  66.9074478  39.7607994
   9.5163994  56.6875534  34.4445114   9.3212681  57.4807739  33.9455566
  10.2505970  56.9332047  35.0073967  58.4570351  28.8538265  13.5601454
  58.3094788  29.7539139  13.2697973  59.2189980  28.9100304  14.1367598
  17.7327938   9.6859312  80.6369553  16.9830265   9.5086794  81.2049942
  18.2366104   8.8720856  80.6444016  53.5772133  55.0578842  61.3476753
  54.3735123  54.8504715  61.8366699  52.8739548  54.9843102  61.9928513
  70.0525513  14.9990759  37.0662994  69.3750763  14.5150871  37.5385437
  69.8502502  14.8541002  36.1420250  62.0788841  61.7858658  21.8798103
  62.1033325  62.2159691  21.0250301  62.9992142  61.6681175  22.1150970
  78.4238205  69.5211716  36.5965538  77.6105118  69.4594345  36.0956078
  79.0500870  69.9146576  35.9889450  49.1571159   4.6800776  75.9163132
  49.1472893   4.2992959  76.7944565  49.8133278   5.3753033  75.9640503
   8.5800600  36.1793060  83.0350876   7.8464065  35.9100761  83.5878143
   8.1827021  36.7318611  82.3620224  77.9270401  34.5165863  67.3858871
  77.7225876  34.1605034  66.5212326  78.5356674  33.8840599  67.7676086
  75.0637436  38.7137604  60.8004532  75.7899551  38.7139359  61.4240227
  75.0018463  37.8053589  60.5051346  16.8593769  14.9451008  13.2448759
  17.4616318  14.5528383  13.8770561  17.3315525  15.7046165  12.9036741
  57.5850410  52.6369171  62.3725662  58.2883606  52.4706726  63.0002098
  57.3195992  51.7669640  62.0743141  44.1343765  62.4564857  79.6345367
  43.4876404  61.9952927  80.1686401  44.8401375  62.6705322  80.2447128
  48.0528717   5.9366736  23.1477356  47.6625900   5.4431224  22.4264050
  47.9234657   6.8542261  22.9077721  14.5323334  49.8253479   2.6271045
  14.9482050  49.7919769   3.4885972  15.2604065  49.9219894   2.0132625
  14.3555193  18.2610378  73.2740555  14.2011843  19.0459290  72.7483521
  14.3975382  18.5808239  74.1752777  79.4279861  59.4036674  28.5992527
  80.2239532  59.6239204  29.0831547  78.7169495  59.7552605  29.1350193
  54.5231590  15.2500286  29.2454319  54.0456009  15.4937878  30.0383682
  53.8644753  14.8381538  28.6862144  47.1342850  28.0083961  62.1469955
  46.6356430  27.1957397  62.2317200  47.8522491  27.7880955  61.5535126
  77.9450150  33.8226318   0.3488336  78.2015457  33.4496307   1.1922170
  77.1785660  34.3603554   0.5479420  67.4353943  56.6209068  57.4691391
  66.6254349  56.1712074  57.2283897  67.3794556  56.7228203  58.4192543
  34.8009872  55.1165276  79.3939438  33.8687325  55.2749062  79.5424271
  34.9147453  54.1810760  79.5619278  32.5370636  50.7832603  72.1762924
  31.9376373  50.5122490  72.8716125  32.1420288  51.5769272  71.8153610
  22.2205849  43.4634972  10.2453156  23.0348587  43.0051041  10.0378008
  22.5021973  44.3266563  10.5484362  84.7911911  32.9543953  79.8732224
  84.9563904  33.1152916  80.8022308  83.9793091  33.4267731  79.6890030
  50.4545746   2.9401488  37.6437225  50.3372459   2.7566938  36.7116203
  50.4372520   3.8952999  37.7038727  25.4154911  29.5897179  86.0112152
  24.5269108  29.9447727  85.9869232  25.9822865  30.3572845  85.9349594
  11.9393482  34.0367393  12.8987350  12.5987778  33.4038010  12.6145239
  11.1026373  33.6168442  12.6991444  81.4920883   6.3905582  12.6320496
  82.0499344   7.1351771  12.8569660  81.9767380   5.6257768  12.9426279
  41.6218109  13.0406151  71.8093872  40.9168701  13.2486753  71.1961975
  41.6436119  12.0839701  71.8336029  44.6381645  60.7861786  77.5230789
  44.8267365  61.3088226  78.3025131  43.8602180  60.2797775  77.7567215
  74.3213654  35.1536560  39.8749847  75.2149963  34.8311386  39.7581825
  74.4235764  36.0935516  40.0245705  76.7333832  20.4272976  44.6690483
  76.7666092  19.5576019  45.0674934  77.5433960  20.4899654  44.1629066
  34.5821953  39.7891617  67.7597733  35.4850311  40.0965729  67.8410797
  34.6548538  38.8348999  67.7412415  46.2193909  37.9099350   2.6913784
  46.4516487  37.9446907   1.7634339  46.9689178  37.4868088   3.1101940
  44.0512505  54.3456459  72.1291122  43.7093544  55.2397041  72.1303101
  44.8067589  54.3789215  71.5423126  80.9972839  18.7907333  15.5233669
  81.3186035  18.1743908  14.8652611  80.5794983  19.4866314  15.0160074
  44.4863853  68.8572998  23.3829041  44.3888893  69.6985779  22.9368382
  45.0461349  69.0486603  24.1354294   3.9803731  63.0161209  27.9971981
   3.5166013  63.3244324  27.2186794   3.2857394  62.7809601  28.6123524
   4.9761882  54.1264572  36.8452606   4.4455814  54.2758408  37.6278000
   5.3063717  53.2337379  36.9465866  34.7678299   4.5815620  85.2929459
  35.7243271   4.6179776  85.2883377  34.5516815   4.0612292  86.0667496
   8.6190062  15.5631123   0.4265327   8.6442547  15.7369661   1.3674732
   7.6892085  15.4513903   0.2284745  31.2883720   5.2614107  75.0799561
  30.7079639   4.7853041  74.4860840  31.8016014   5.8314810  74.5073776
  56.8988647  28.0615540  47.4064255  56.5622215  27.8466549  48.2763214
  56.9814606  29.0151768  47.4104233   3.2215936  11.9320583  58.0855980
   2.7415485  11.1340113  57.8644409   4.0985379  11.7906713  57.7289352
  15.3111076  31.1236134  70.7017746  14.4326687  30.7494278  70.6342239
  15.8030682  30.7093620  69.9928284  40.4866142  55.0406723   9.3170052
  39.5474205  54.9783096   9.4909563  40.8526230  54.2374306   9.6872339
  69.5034027  62.6178627  14.7712078  69.6686096  63.5598373  14.7308979
  70.1765518  62.2817383  15.3629208  83.5679855  62.9079704  66.7880096
  83.6859283  61.9580650  66.7877121  84.3408813  63.2451477  67.2409668
   6.9429784  64.4782486  77.6716385   6.9129615  64.2788849  78.6073685
   6.1097136  64.1532440  77.3306503  80.0494690  14.7634983  11.9414701
  80.3607559  15.3103456  11.2201576  79.5269623  15.3554487  12.4825935
   2.3900585  18.0875530  86.1404037   3.2187068  18.1244869  86.6181183
   1.9055474  18.8562012  86.4415054  74.9085770   0.4817421  16.7601147
  75.2638702   0.9039329  15.9779692  74.5063171  -0.3239330  16.4356079
  57.9971046  33.8578606   4.2383709  57.1920319  34.0795212   3.7704444
  58.6710052  33.8368759   3.5589235   6.9604325  14.5387239  78.1720505
   7.8631492  14.3672657  78.4402618   6.7166290  13.7747335  77.6494446
  75.7244186  46.9227829  52.5750160  75.1757507  47.6756973  52.7948341
  76.5022583  47.3040199  52.1677666  48.0011368  43.3797798  78.0483322
  47.7205620  43.1921539  77.1526108  48.2872963  44.2928658  78.0233841
  43.0678558   4.4829259  73.9046936  42.5659218   3.7522178  74.2657547
  42.6334114   5.2641950  74.2469101  12.5364847  25.3020916  87.8422470
  11.9213362  25.8163128  87.3193665  13.2870560  25.8825455  87.9685287
  81.9882126  23.8314667  37.1402130  81.2966537  24.4898281  37.2075348
  82.0552063  23.6494598  36.2028694  55.8329201  24.1463985  26.6226578
  55.0806618  23.6430054  26.3113155  56.1043854  24.6647015  25.8650951
  59.7483978  21.4349537  50.2080193  58.9185104  21.7466545  49.8469620
  59.8354073  20.5426502  49.8726730  80.7001190  59.3795242  49.1687088
  80.6077042  60.2792625  48.8554039  80.0296783  59.2917786  49.8462372
  70.8065033  13.3468790  70.0993423  71.3208771  12.5634823  70.2941437
  71.4420776  14.0622807  70.1212234  40.9376335  22.5705624   2.0151267
  41.0648766  21.7273159   2.4498415  40.1242790  22.4652634   1.5215659
  62.5449371  34.0228119   7.0525093  62.0422935  34.6454735   6.5272756
  62.8669395  34.5383110   7.7919736  14.2521429  28.7111702  55.3175354
  14.3442545  28.8866882  54.3810844  14.7657385  29.3985748  55.7417145
  12.7216120  53.6121254   9.6992664  12.9963913  53.6431198  10.6156549
  13.5392752  53.5447845   9.2061901  52.7636299  52.2990913  62.6300125
  53.0883827  52.2207718  61.7330017  53.5540390  52.3313293  63.1689415
  81.2529907  29.8991585  65.4273071  81.4101181  30.7505417  65.0190277
  80.5475464  29.5116310  64.9092331  21.6387672  62.2516975  42.4560661
  21.1382885  61.6959572  43.0534859  22.4984226  61.8339615  42.4038887
  29.5441189  35.5066910  13.3294125  30.4958916  35.6025238  13.3636980
  29.4038162  34.5842094  13.1159220  22.8610077  48.3542519  20.9253235
  23.2318192  48.2472229  21.8012657  22.4995804  49.2405930  20.9248962
  61.8496475  25.1773376  20.2656822  61.0083427  24.8632679  19.9343281
  62.4930534  24.5711422  19.8985481  48.0224915  10.8881149  79.4251099
  47.5638161  11.3392448  80.1338577  47.8403473  11.4160566  78.6477203
  68.6025009  29.2502861  44.4555740  69.4858932  29.5563698  44.6609077
  68.0660400  30.0429707  44.4653854  57.4662971  24.0520401  48.7338562
  56.6618958  23.5435543  48.6308556  57.8660927  24.0466175  47.8641663
   0.7355159  21.1518669   8.0376549   0.9522234  20.4541988   8.6561441
   0.4118634  21.8663311   8.5863085  44.2679939   3.7383196  21.0085640
  43.5460510   3.3611484  20.5057983  44.9679642   3.8611178  20.3673229
  10.4220371   2.0508816  38.2845306  10.0925074   1.8964479  37.3992081
  10.4740391   3.0038481  38.3578987   1.5093085   1.2961899  48.6543121
   0.9378167   2.0420156  48.8369942   1.0684335   0.8239816  47.9479980
  16.9610233  41.4940033  15.0245628  16.0699024  41.7559814  15.2558708
  16.8532639  40.6667976  14.5551510  13.7380209  28.2932129  16.1978321
  13.3076286  28.2607460  17.0521965  13.1154203  27.8792744  15.6001225
  14.8811989  42.2699776  30.1715393  15.4013500  42.3196602  29.3695374
  14.9969950  41.3701630  30.4767590  43.0611916  42.0463829  69.8763428
  42.2405052  41.7470398  69.4850616  43.6965332  41.3674660  69.6490707
   9.7806149  36.5946159  79.0991516  10.5921001  37.0041771  78.7991791
  10.0301418  36.1221123  79.8933182  10.6443653  56.0038834   2.0708146
  10.5431166  56.4467354   2.9133492  11.5748882  55.7839699   2.0261195
  23.0009861  54.2460861   1.8170284  23.3012218  54.9730072   1.2714283
  22.2746315  53.8620911   1.3259175  40.9158173  23.4691753  67.0862503
  41.1850967  22.6150417  67.4241562  41.5868530  24.0741863  67.4023285
  -0.1534609   4.8944144  70.4337616   0.7349759   5.1820831  70.6439056
  -0.0308526   4.1273494  69.8744736  72.4336319  70.4668503  42.9720230
  71.5733566  70.8852386  42.9386368  72.8707809  70.7537613  42.1702690
  29.0352631  23.7703800   7.8474541  29.8643951  24.2205105   8.0091791
  28.5647373  24.3447895   7.2433925   3.2150514   0.4594552   1.2656144
   4.0030346   0.9598859   1.0537572   3.3081105   0.2480525   2.1945281
  74.7118835  62.9386826  76.7519226  75.2011337  62.4469185  77.4114914
  73.7938461  62.8147850  76.9929352  61.2595024  35.9392662   5.1474361
  61.5150108  36.2584076   4.2819333  61.3603897  36.6982002   5.7219543
  68.8930206  67.8630753  87.6817169  68.4479752  68.1935272  86.9013519
  68.2214127  67.8751755  88.3636475  64.4765472   3.4807544  39.0124283
  63.9448357   3.6464725  39.7909241  64.0120926   2.7837465  38.5490837
  74.7366943  30.2373524  54.1880531  75.2051697  30.5923271  53.4325676
  73.9892426  29.7738762  53.8102570   8.3317480  49.6268768  88.1282806
   8.3663950  49.8695717  89.0535507   8.3521814  48.6698990  88.1307449
  54.9934273  23.8141499  31.6104317  54.1937180  23.5395718  31.1617661
  55.2792473  24.5940266  31.1346893  41.5326881   9.7855253  74.7327499
  40.5884209   9.9162083  74.6460800  41.9195862  10.4445190  74.1563187
  28.8634892  63.9861069  19.3665638  29.3954372  63.2309494  19.1155643
  28.8723087  64.5523987  18.5948982  16.0361366  61.6891899  14.1201410
  15.7556782  60.8442726  13.7684393  16.3126717  62.1885757  13.3517828
  79.8983688  22.8107491  67.0417557  79.9739609  23.6989403  67.3905182
  80.0012207  22.2437572  67.8060684  57.4298782  52.2924995  21.1149750
  56.8812981  53.0298004  20.8472538  58.3258286  52.6209793  21.0400848
  16.1816006  15.0820723  29.7317848  17.0048122  14.9831400  30.2100792
  16.1178074  14.2898331  29.1983814  31.2437077  68.9929733  65.5091858
  31.3701553  68.0776749  65.7591400  31.9988594  69.4491730  65.8804779
  37.1419678   3.6894813  67.4652405  36.5991974   3.2040372  68.0865173
  36.8655968   3.3710024  66.6059265  85.8536072  44.2770119  70.2967300
  86.7010040  43.8321609  70.3128510  86.0562744  45.1863899  70.5162659
  27.7080517  51.3299255  85.5564575  27.5940208  52.2489929  85.3145142
  28.6559410  51.1968231  85.5516739   3.1393979   0.8611122  37.9613266
   2.5315976   1.5509303  37.6949387   3.8481047   0.9053314  37.3194427
  37.9264069  44.1369667  17.7914886  36.9834518  44.2611694  17.8993664
  38.3036118  44.4363747  18.6187153  63.9544563  28.5834045  17.3441315
  63.8451729  28.3943558  16.4121704  63.5241623  27.8530617  17.7887383
  45.2693291  62.1847725  12.9080362  44.7245026  62.7796631  12.3927670
  44.9885941  61.3098831  12.6397285  27.0237484   4.6931534  38.0718880
  26.7647839   5.6039710  37.9319572  27.0413952   4.3116207  37.1941910
  11.0267649  23.2404156  86.7563248  11.6073809  23.9997234  86.8070221
  10.1562996  23.6133976  86.6170197  42.9382095  54.4660072  17.6840210
  43.0090065  53.8622551  18.4234161  43.7268295  54.3040962  17.1662388
  17.4765854  68.4636688  54.8930054  17.5157299  67.5606308  55.2080002
  17.5788631  68.9969406  55.6812859  61.6337662  12.8791256  46.8116646
  61.3125801  13.3273392  47.5940819  62.2803993  12.2551937  47.1415176
   5.8411798  28.8111515  12.6002712   6.6129379  29.3509693  12.4293423
   6.0320206  27.9774876  12.1703672  25.5142670  19.9830227   7.3631501
  25.9996033  19.4074135   7.9542112  24.9999409  20.5438766   7.9437909
  25.6588249   0.6964306  43.5722771  25.1874638  -0.0822339  43.8684731
  25.2181625   0.9489907  42.7609444  21.4394550  31.6275349  26.1269569
  22.1197357  31.1292343  25.6740246  21.5614719  32.5279045  25.8258305
  14.7772732  12.7331944  82.3156357  14.8629580  11.7827711  82.2408981
  15.0972033  12.9340973  83.1951294  84.4943008  66.3524857  23.2918892
  85.3808136  66.0057297  23.3923340  84.4783401  67.1332016  23.8454781
  19.5859737  59.4390564   3.9991710  20.1218090  58.6458893   3.9985905
  19.1595345  59.4406395   3.1422126  10.6308765  53.2357597  89.1399841
   9.9587259  53.8900909  89.3305054  11.2407045  53.6827393  88.5529938
  84.3250122  31.3877220  21.4777164  84.3240433  31.2185001  22.4198399
  83.3985062  31.4309177  21.2411804  19.9928532  65.2372208  80.4962845
  19.8189735  66.1601639  80.6811371  20.5470257  64.9480362  81.2211914
  61.4926262  28.5123749  82.8171997  60.6415024  28.6388264  82.3978729
  61.7164803  29.3738346  83.1693497  10.8704910  44.2408180  58.7774658
  10.0817108  44.7499237  58.5907288  10.6307678  43.3397293  58.5611267
  68.0379715   6.9328160  33.0082283  68.7558517   7.0192199  32.3810005
  68.3434372   7.3974423  33.7873573  22.7011852   5.5786915  60.6476097
  22.3787823   5.2147241  59.8231010  22.3198929   6.4557600  60.6875916
  42.9820938  41.3979797  87.7294693  42.9016228  42.3122444  88.0012665
  42.3761024  41.3126945  86.9934464   8.5570564   9.9452934  52.3661385
   7.9923396   9.2125731  52.6119995   8.2093105  10.2442751  51.5259514
  13.7214899  29.7182312  38.2398300  14.3078270  30.0177212  37.5450325
  12.8454294  29.9462814  37.9287949  75.8056183   9.8691835  21.0055637
  76.3845978  10.1887426  21.6975880  75.2645493   9.2055368  21.4334087
  81.7482147  14.8883667   2.5370378  81.4368210  14.3782368   3.2847228
  80.9895248  15.4061050   2.2676709  29.7014771   0.3481873  17.3280602
  28.9704742   0.4565828  17.9364319  30.2431030  -0.3347095  17.7236938
  37.4061508  59.6190491  55.1645813  36.7097244  58.9623718  55.1662064
  38.2146530  59.1105728  55.1013145  11.9512005  50.7541542   9.0868807
  12.1713028  51.6523781   9.3338232  10.9953461  50.7469444   9.0366716
  74.6873932  23.9972630  41.8667831  75.6118698  23.7874546  41.7342720
  74.3403931  23.2516594  42.3565788  24.4282398  65.5897903   7.9984732
  23.9181004  66.3345795   7.6802258  23.7757988  64.9145126   8.1843519
  28.7941322  60.8402176  55.0335617  29.4701862  61.5170250  55.0669327
  29.2373562  60.0442696  55.3272400   8.9633179  54.0798759  10.7568836
   8.0319605  54.2387619  10.6033850   9.1174288  54.3992653  11.6459684
  33.0476875  65.2465057  35.4311104  32.1024055  65.3408203  35.3137283
  33.3309593  66.0909882  35.7815895  30.3158169  23.1198750  12.2028923
  29.7604580  22.6418476  11.5870209  31.1944752  22.7705822  12.0539351
  41.3525429  31.3140049   5.6096630  41.2244186  32.2274628   5.3539057
  41.9298820  30.9552994   4.9356871  18.5237732  19.3083820  73.6228638
  18.1521683  19.4441681  74.4944763  17.7629776  19.2426395  73.0457153
  32.6803360  25.0366974   8.5576286  32.7435036  24.0854988   8.6440172
  31.9283276  25.2769394   9.0989227  29.9674549  47.4075928  62.3828316
  30.3588104  48.1586456  62.8289146  30.4745750  46.6559296  62.6895294
  48.2385445  37.3261337  23.6975746  48.9192772  36.6835365  23.4978199
  47.4761009  37.0297203  23.2005310  78.9361877  38.0664978  24.9184799
  79.1913300  38.7197800  24.2670536  77.9976120  37.9418907  24.7778397
  60.8058128  10.8976822  73.4516678  61.2526588  11.3190193  72.7174759
  60.1304054  10.3567667  73.0424423  84.0161209  35.7092743  78.5795364
  83.1033020  35.8429375  78.8347473  84.4064865  36.5823135  78.6202011
  49.2028542  15.2896185  25.4307156  48.7041054  14.4824371  25.5569592
  48.5398560  15.9538622  25.2424526  73.8564987   2.8871202   1.7736782
  74.2537384   3.5988317   1.2717844  74.5475922   2.2285306   1.8435462
  33.2806740  10.5054388  82.5227585  32.9720764   9.8427124  83.1406555
  34.0813713  10.1336088  82.1528091  11.9393377  67.0396271  74.2115555
  11.5552359  67.7532654  74.7208939  11.7349997  67.2574539  73.3021469
  73.7026215  62.7075500   0.7140816  74.1649399  62.2687721   1.4282039
  74.3883514  63.1728172   0.2349866  67.0672760   2.4905705  44.9716072
  67.4346237   3.0155809  44.2605171  67.7801132   2.4141533  45.6058464
  74.6297455  62.7276802  37.2761688  75.0438232  63.2850723  36.6173172
  73.8413162  63.2057953  37.5331154  28.9127445   8.0490303  11.5471601
  28.0172901   8.1225128  11.8772984  29.4540634   8.4371738  12.2345839
  80.5282745  40.1051216  66.6984787  79.6464233  39.8930473  66.3925476
  81.0357971  39.3099480  66.5361633  77.5029526  34.2999954  16.1084728
  76.5503693  34.3702545  16.1706676  77.8258820  34.7008400  16.9154911
  44.0967140  29.9202328   9.2362080  44.9532623  29.5097408   9.1176691
  43.7671700  29.5540962  10.0569258  15.6613922  38.0112991  87.4541931
  16.3139515  38.7111435  87.4293671  14.9086246  38.3689194  86.9833603
  34.1831017  62.4756737  76.9795074  33.7180901  63.2011223  77.3963089
  35.0933914  62.5851479  77.2545013  27.4109020  39.6398849   0.9396836
  27.5536270  40.4335213   0.4239313  27.5073643  39.9242973   1.8485489
  43.5883484  44.0597267   0.2552466  44.5449104  44.0608368   0.2901855
  43.3232117  43.4818077   0.9707480  53.5362053  56.3807335  41.3027458
  53.4623146  57.3113251  41.5143433  52.6859474  56.0123100  41.5426559
  74.0983276   3.7722065  41.1304092  74.6146088   3.7367482  41.9356575
  74.6430283   3.3331606  40.4771309  73.8782349  61.9402847  65.2224426
  74.0080566  61.2334785  64.5901413  74.3227005  61.6378174  66.0143967
  39.8063583  16.2962017  23.4769363  38.8702888  16.2869816  23.2771225
  40.2035255  16.7637024  22.7421360  29.2160492  44.8803291  77.3663559
  28.2959995  45.1413536  77.4064255  29.3007164  44.4294090  76.5262756
  54.8891869  11.7348061  76.9839706  54.2044792  11.0743904  76.8778839
  54.4411240  12.4831676  77.3782120  47.1011429  48.7403412  30.8001842
  47.4994125  48.7403603  31.6705952  47.0438614  49.6659126  30.5629787
  80.4428940  12.2783451  16.9543705  79.9718475  11.9307318  17.7116756
  79.8368607  12.9078503  16.5636311  85.4295654  63.9211349  32.0783234
  84.6142273  64.1897736  31.6549091  85.4063187  62.9644394  32.0575638
  73.6561508  64.2190399  58.7781754  73.1258163  64.4746475  59.5329208
  73.1992188  64.5952835  58.0259209   2.0669415  21.0552235  73.3013611
   2.9585636  21.3531265  73.4816208   2.0176737  21.0109234  72.3464508
   4.6621084  39.6849403  54.1665039   4.8094478  39.8838692  53.2418671
   5.5180197  39.4044380  54.4904900  83.1253510  65.1382904  79.2611237
  82.7881622  64.3029785  78.9374084  82.4149628  65.4921265  79.7962646
  44.2881813  56.0929070   2.2234321  44.7322693  56.6757736   2.8392916
  44.5583191  55.2136993   2.4884882  11.9466105  54.2842903  26.9767208
  11.7750130  53.6961021  26.2413158  12.2593269  53.7094345  27.6752777
  26.7537003   7.5044222  47.5559235  27.6669865   7.2188544  47.5802879
  26.2791023   6.8309956  48.0432434   5.0628915  50.6404495  88.4907913
   5.4710932  51.3966064  88.9124908   5.3300066  49.8939629  89.0271072
  65.9560242  35.4024315  16.7930946  66.4685516  35.9058380  17.4256592
  65.1636353  35.9223747  16.6589012  49.4604416  38.7172585  75.1358032
  49.8893547  38.9115562  75.9691772  48.6229973  38.3251457  75.3831253
  14.8726711  33.8446083   9.4779558  15.7176113  34.2671509   9.3237953
  15.0320187  33.2511673  10.2118940  41.1673431  36.9842072   8.8715639
  41.4319839  37.7987556   8.4441204  40.2119904  36.9819641   8.8121634
  81.6178665  33.5680733  63.3576202  81.0249634  33.6656151  62.6125145
  82.3121872  32.9921989  63.0374336  52.9133530  40.1666374  36.7834053
  52.5982552  39.7624664  35.9749565  52.4502602  39.7014084  37.4800644
  30.4896507  50.9350166  20.3519268  31.3288651  51.2531700  20.6846905
  30.0090466  50.6640320  21.1341133  46.5418968  25.3990231  10.9357271
  47.2286530  24.7481499  11.0805149  46.2567406  25.6460724  11.8154325
  10.8069849  60.1130486  51.6140022  10.3252220  60.9259109  51.4610596
  10.4313087  59.7601128  52.4205627  67.7265091  50.0986824  51.9488983
  68.6575546  49.8897972  51.8729897  67.7086258  51.0075417  52.2487068
  44.8435516  41.3167229  46.8388863  44.5156708  42.0622635  47.3417740
  45.7881966  41.4613647  46.7844734  77.2120056   4.2486320  86.2320099
  76.8054581   3.4124115  86.0046692  77.7087555   4.0645428  87.0292511
  15.9901447  13.0708132  76.4197235  16.7803955  13.4748669  76.7781525
  15.3734007  13.7962914  76.3220444  14.1103468  68.6767654  41.0153961
  15.0089321  68.6802368  40.6856003  14.1633444  68.2111740  41.8500519
  45.0490303  64.7153625  18.9122391  45.9177589  64.7393646  18.5110340
  45.1111298  64.0295715  19.5771141  47.3214645   2.0121100  36.0088654
  46.5818558   1.4587038  36.2597694  48.0711632   1.4171927  35.9928932
  15.0585985   8.1771774  34.3224678  15.6772280   8.8939943  34.1821022
  14.9825535   7.7553763  33.4665871  80.7969894  55.9126091  85.8497391
  80.9139099  55.1382484  86.4001236  79.9550323  55.7734070  85.4161911
   7.2142982  40.2944641  56.8538933   6.6862612  41.0914116  56.8060989
   6.9145274  39.8559227  57.6501656   2.7303426  19.9401455  79.5133286
   2.3136799  20.2538834  80.3159485   2.3910465  20.5146351  78.8269882
  73.1954651  19.5698090  66.6342087  73.4460983  19.5871086  67.5578537
  74.0253983  19.5025673  66.1620483  82.0206146  59.4418144  75.4112015
  81.2731323  58.9795761  75.7904587  82.7021713  59.3851433  76.0809097
  15.4945078  53.0674973  27.4231720  16.3403759  53.2578926  27.8287449
  15.1588430  52.3154526  27.9110107  24.0704689  33.9602242   7.4189372
  23.8633099  34.7810097   6.9721365  23.8747768  34.1328392   8.3398829
  52.9193382   1.9674497  63.5199623  52.3161354   2.7087314  63.4663086
  53.7842789   2.3516366  63.3767509  53.8151665  53.9380112  34.7783051
  54.6226807  53.8505936  35.2847748  54.0557594  53.6609802  33.8942223
  73.3139954  17.5702171  50.2951050  72.7738037  17.1808376  50.9827156
  72.8218307  17.4173622  49.4884834  70.9274597  31.3259888  36.7597618
  71.5298920  30.7640953  37.2471924  70.1536179  30.7808781  36.6174431
   6.3091245  55.6635933  11.8065586   6.3729815  56.1223221  10.9688711
   7.1375704  55.8529358  12.2470808   8.5164585  27.4426937  88.1938248
   9.2387953  27.1408482  87.6430511   8.0372086  26.6451836  88.4186096
  74.1040573   7.2678881  83.6317673  73.4899673   7.9953284  83.7315140
  73.5574265   6.4839420  83.6852036  64.4283295  67.9697723  50.3369293
  65.1894073  68.1552582  50.8870125  64.4212570  68.6766586  49.6915741
  42.7079430  25.4373474  76.4896240  42.4944420  26.0942535  75.8269653
  42.5432968  24.5991459  76.0577240   6.2907057   3.3443093  65.6286011
   7.0544195   2.8306522  65.3656769   5.9680266   2.9074266  66.4167938
  77.7190170   9.9123688  66.6815262  78.3726807   9.2887602  66.3651962
  78.2166748  10.7096796  66.8628235  45.6424561  34.2409897  25.6037464
  45.4813728  33.4612083  26.1349907  45.7276955  34.9509239  26.2401104
  73.0529556  31.3740463  25.3528805  73.4387894  31.8268642  24.6029987
  72.2675552  31.8803768  25.5602455   1.5506490  67.1433258  26.8329754
   1.2827652  67.8773422  26.2800922   1.2572417  67.3854980  27.7113228
  58.6213493  10.5458345  42.6545486  57.9489098  11.2220621  42.5722656
  59.1329651  10.8086557  43.4196663  22.5078430  13.5848026  25.7703495
  21.8023605  13.9265566  26.3196487  22.5653782  14.2032948  25.0420704
  71.4831543  55.9695930  43.5195885  71.8321686  56.6214333  42.9117012
  71.3535919  55.1872787  42.9834595  39.6245613  46.0216560  53.2788506
  39.1207542  45.5149460  52.6419411  40.3960495  45.4836464  53.4565697
  64.2157822  37.9876595  44.5306206  64.6955261  37.2749634  44.1085472
  64.3977127  38.7539597  43.9866371  14.9701109  44.7279358  18.0156975
  15.0549040  45.3397369  18.7469578  15.4626875  43.9550133  18.2917252
  37.8508682  66.7127609   1.1895450  37.4915504  66.2670670   1.9566698
  38.1220169  66.0041199   0.6059825  82.4753342  27.3714237  29.6871357
  82.2706528  26.4491329  29.5331306  83.2838974  27.3550549  30.1991863
  19.7287674  54.2209549  85.4372101  19.9529743  54.9826393  84.9026031
  20.5707321  53.8105507  85.6344223  23.5103168   7.1713004  73.8688507
  22.7160511   7.4755096  73.4297256  24.0563698   7.9537406  73.9453125
  28.1467590   1.0250233  69.7950058  27.3361359   0.9105453  70.2910004
  28.3888454   0.1394691  69.5240402  21.4615326  47.9798393  59.5105286
  21.9521656  48.4228363  58.8182411  20.7749405  48.6012535  59.7527428
  37.8120422  49.5859985   3.4835417  37.9056206  49.6164894   2.5314147
  38.6507874  49.9046936   3.8169687  76.3672104  37.8203964  80.7869949
  76.9115982  37.0331268  80.7783890  76.9134827  38.4937782  80.3815536
  29.3570786   3.5493577  74.0608139  29.6236935   2.7250519  74.4678421
  29.4067402   3.3790855  73.1201935  58.0227089  10.3600769  21.6938801
  57.9902573  11.3159742  21.6559334  58.3477974  10.1661768  22.5730572
  74.7035141  28.9733582  45.7074699  73.7649765  29.1024971  45.5707359
  74.8063431  28.0246449  45.7823143  60.6271057  60.8125839  83.8872681
  60.0982399  60.7721786  83.0904617  61.2513084  60.0925217  83.7972031
  67.2679443  47.9304428  34.8783531  66.5515671  47.3694344  34.5811958
  67.6259003  47.4775658  35.6418953  49.7907906  27.1762619  74.7676392
  49.9808578  26.2512493  74.9240341  49.6134529  27.2288876  73.8284836
  81.8329391  12.3128948  78.2742844  81.6698685  11.6559420  78.9510803
  82.6918182  12.6742897  78.4932861  83.6888657  31.9087849  33.7167168
  83.1831512  32.6290436  33.3402710  84.4432831  31.8160992  33.1349144
  83.6426849  68.4417419  68.5350647  83.4010315  68.9791412  69.2894058
  84.4785385  68.8038177  68.2409668  77.3783035  17.2253189   7.0419407
  78.0121384  17.6919975   7.5866365  77.1618500  16.4404850   7.5453434
  82.0866623   2.0540071  23.8575268  82.6991882   2.7874107  23.8012333
  81.8947983   1.8317256  22.9464779  43.9973564   5.8549366   9.0160379
  44.6503754   5.4770341   8.4269829  43.2700195   5.2329345   8.9979601
   4.2398505  59.0842094  67.6743546   4.4540000  59.7502213  68.3276520
   4.9469609  58.4429703  67.7453537  45.4308357  53.6106224  81.3729630
  44.9922256  53.7974396  82.2029953  45.5318756  54.4669762  80.9574051
  69.2685089   0.6054054  77.4653625  69.6604385  -0.1615952  77.0478363
  69.8508911   0.8025435  78.1989899  64.5498962  10.6094770  23.4911366
  63.7663841  10.2655001  23.9201221  64.2721481  10.7881765  22.5927181
  28.8131599  31.6624146   4.8123198  28.9753265  32.2873611   4.1056542
  29.5537281  31.0573273   4.7715797  12.6786470  47.9447441  51.4527779
  12.6315155  47.0059433  51.2720490  12.3304424  48.0356789  52.3397484
  79.3534088  21.6814785  86.6093826  78.9601669  22.1126041  87.3681488
  80.2669983  21.5431805  86.8592987  40.2499123  62.7120781  13.1854095
  39.3998260  62.3106918  13.0052061  40.5420952  62.2995300  13.9982224
  34.4310036  43.8361702  76.7652512  34.8486671  44.5794220  77.2004166
  34.9151764  43.7354813  75.9457016   4.1208363  60.4459877  40.1393356
   4.7321215  60.6046410  39.4200325   3.4330614  61.1005592  40.0179405
   4.8483815   6.7410812  38.1620216   5.1372466   7.4381604  37.5730667
   4.2115030   7.1632323  38.7385674  26.5311623  51.9068375  20.4610310
  27.0147724  51.1781464  20.8500786  26.2068596  51.5620422  19.6290607
  45.6482773  47.8506126  87.6019897  44.8990402  47.4367409  88.0304489
  45.6369514  47.5021744  86.7105331  27.7609463  33.9945602  82.8337784
  27.4727631  34.8099060  82.4234238  28.4737186  34.2582016  83.4157410
  30.9092712  12.0248127  46.0955276  31.5789700  12.5803757  46.4943810
  30.0802860  12.3863115  46.4091148  14.9632320  63.1997261  67.9485626
  14.8148575  63.0112152  67.0219116  15.7123652  63.7955399  67.9548111
  20.9539776  34.2730827  78.4228592  21.0963993  34.3299561  77.4780273
  21.7162209  33.7965622  78.7517242  34.7144737  59.5837746   1.7276610
  35.3394089  59.5403938   1.0039167  35.1682701  60.0834923   2.4063215
  80.9876480  38.8418236  63.3720322  80.8157425  38.0034485  63.8007622
  81.8416595  38.7270279  62.9552383  63.4821167  30.9189835  62.8885193
  62.5910034  30.5754166  62.9526291  63.8742485  30.7282009  63.7406120
  50.8682060  42.0315018  58.9277878  50.5386353  42.3339920  59.7740250
  50.4246292  41.1957588  58.7828598  75.9423294  23.8190556   5.5496531
  75.3523941  23.9282093   4.8038025  76.2266083  24.7079926   5.7622747
  75.5227737  42.8914375  59.0771637  74.8579712  42.4061203  59.5657616
  75.2537766  42.8110352  58.1620636  41.0038528  67.6928635   1.5384394
  40.5556641  66.8900986   1.2721150  40.6012192  67.9256973   2.3750455
   0.5766329  52.8562965  64.7179642   1.3472316  52.3090248  64.5666351
   0.6369491  53.5436096  64.0544968  25.3243046  60.7895279  67.4731827
  24.4805527  60.9021263  67.9109421  25.1624508  60.1184158  66.8101273
  62.7074699  48.5231934  50.3334541  63.1087265  49.2830048  50.7552567
  63.2394638  48.3744850  49.5517235  10.1667290  57.3160744  76.2249374
  10.3276234  58.0535126  75.6362686  10.7204275  57.4916954  76.9857330
  17.0493469  42.6645164  79.5887146  16.5470791  42.0775948  79.0234909
  16.3919792  43.0807686  80.1462402  39.9148140  39.7561874  83.1307831
  39.4523163  38.9614983  82.8646927  39.2738647  40.4572372  83.0127029
  67.0479584  53.7162247  29.3997784  67.2023697  53.8376083  30.3366089
  66.9056091  54.6011696  29.0638599  49.8601761  59.1017532  38.1939392
  50.0514717  58.6959229  39.0394821  48.9920769  59.4893684  38.3052406
  10.8297863   7.6237040  16.9094505   9.9589281   7.8280244  16.5687275
  10.7155571   6.7972651  17.3786850  21.1133728  10.1962080  74.4962540
  21.2601089   9.4552364  73.9083176  21.9644279  10.6309128  74.5507431
  14.0220985  19.6919422  12.8958979  13.6064682  19.3174572  13.6725855
  13.9708452  18.9979267  12.2386703  64.3794327  18.1102600  76.5023346
  63.9875755  18.2713547  77.3606567  65.1123428  18.7241020  76.4546280
  41.0182190  63.0905876  33.7609444  40.8400879  63.9466820  33.3715858
  41.8143883  62.7893677  33.3232079  75.5795212  57.2752037  40.0053596
  75.5843353  56.9577751  39.1023369  76.0863266  56.6242409  40.4907684
  78.8733597  21.0434437  83.9203415  79.2666855  21.1705837  84.7836914
  77.9964294  21.4190102  83.9990005  47.3433533  45.1919556  19.2886944
  48.1110725  44.6674919  19.0611553  47.0707130  45.5888939  18.4614468
  50.9335632  46.5928078   5.7837615  51.1013031  46.6696930   4.8445148
  50.1379166  47.1051178   5.9276938  25.5764351   6.6812558   1.9927286
  24.9162006   7.2291870   1.5683523  26.1892548   6.4585195   1.2919636
   4.9658923  41.1822433  60.9100113   4.0857348  40.8254662  60.7905807
   5.4644175  40.4643440  61.3002968  19.7638016  34.8460083  17.1122341
  20.1826324  35.4471397  17.7282333  20.4893360  34.3572502  16.7237110
   0.4928049   7.0242829  54.3279190   0.9657758   6.6675029  55.0797424
   0.2754853   7.9203572  54.5849266  17.8708286  36.7729759  69.9649506
  18.3814297  37.0880547  69.2191391  17.2976170  36.1009979  69.5960312
  28.1542625  13.4042206  22.9304180  28.9050312  13.9879074  22.8213844
  27.8539982  13.5647669  23.8250122  10.5176315  21.5250282  88.8221664
  10.8935823  21.9594994  88.0565720  10.4163742  22.2238083  89.4684525
  44.4625893  66.8877335  45.3697624  45.1206093  67.5587387  45.1881447
  44.7691650  66.1163864  44.8930283  11.0784359  65.4495316  78.4139709
  10.1405334  65.2636414  78.4588394  11.1580591  66.3541336  78.7166061
  39.3343887  21.7332363  17.1401958  40.1115417  21.9108315  17.6700306
  39.6676750  21.2620296  16.3765755  63.1561737  13.2750959  40.6560669
  63.5178986  12.8625565  41.4404106  63.0764885  12.5602293  40.0245247
  46.3538742   8.5626640  74.1455688  45.9734421   8.2305889  74.9587250
  46.6862221   7.7829933  73.7007141  43.8274918  33.2110252  31.9206047
  44.2171135  33.7943573  31.2693329  43.3980942  33.7987976  32.5421944
  65.9622574   6.4759173  66.4920731  66.5822372   5.8186321  66.1761093
  66.3975525   7.3129663  66.3305130  33.4606781  66.4937515  30.8463745
  33.7579422  66.5352173  31.7553024  33.6014252  67.3779297  30.5077801
   2.8639209  63.4901047  20.5708237   3.7822978  63.3792572  20.3247967
   2.5309856  64.1499786  19.9625835  14.6536160   9.8338966  80.9283371
  13.9810095   9.3606825  80.4385452  14.6455030   9.4311619  81.7966537
  31.7651138  10.3923111  37.8497620  31.1177120  11.0420351  37.5759697
  32.4317856  10.4144526  37.1632576  78.6218262  67.6399918  63.2659225
  77.9753799  67.0518875  62.8754501  79.4411011  67.1456070  63.2413445
  32.9279823  16.3462677  10.8355360  33.4629707  16.2649593  10.0459738
  32.2538452  15.6737108  10.7383833  53.9919739  25.8549347  35.0136871
  53.4005318  25.1327171  34.8019600  54.7526550  25.4324856  35.4126091
  53.5709610   1.0888797  11.5974598  53.7618828   0.1692230  11.4130354
  53.7612076   1.5423487  10.7762394  15.2408237  48.7357826  59.0796661
  15.9788589  49.2491608  59.4082680  15.5927649  47.8521690  58.9720001
  54.1296043  24.0769272  87.5486603  54.2231789  25.0221539  87.6670685
  54.8953094  23.8231297  87.0333786  39.4549637  42.6624146  28.2953854
  39.7665634  43.5387230  28.0690613  39.7014084  42.5502853  29.2134933
  17.9912491  12.0227337  13.4775963  18.3774891  12.5603571  14.1689796
  17.0468121  12.1034517  13.6108398  73.1997604  63.3126945  30.1941738
  73.0069733  62.9661140  29.3229980  73.9435959  62.7932739  30.4993706
  21.8774433  57.9743233  13.3954821  21.6770649  57.0636292  13.6116199
  22.8117638  57.9711227  13.1874800  57.4120522  22.2568016  65.4943695
  56.9478531  21.5555801  65.9515762  58.2482872  21.8654766  65.2417755
  73.7819672  13.4467745  25.7100620  74.7092438  13.4076462  25.9442940
  73.7365417  14.1106844  25.0220280  21.9135723  52.0203247  28.8906002
  21.0325241  51.6575623  28.9822159  21.7759838  52.9630165  28.7976933
  29.5767899   2.7395952   9.8237448  29.1551590   1.8923405   9.9673376
  30.4360237   2.5214078   9.4627123  44.8942299   7.2423220  76.4439163
  45.0847778   7.9294090  77.0825348  45.7433243   6.8371820  76.2674637
   2.2644768  69.2910156  36.9001617   2.6337013  70.0304260  36.4172821
   1.7524074  68.8114166  36.2490082  45.1993675  53.0113068  16.6559925
  44.7145195  52.5272255  17.3244381  45.8080292  52.3696785  16.2898388
  17.8116016  32.6045036  13.7135973  17.8979168  32.6965103  14.6624470
  17.7126713  31.6629791  13.5722723  66.1262360  53.9512291  16.6023693
  65.2923431  54.2535439  16.2425556  65.9730072  53.8926277  17.5454063
  56.5169373  57.1229591  12.6772070  55.7462540  56.7590027  12.2415314
  56.1664467  57.5795135  13.4420233  57.3224411  61.6517334  14.3279514
  56.8222351  62.4154472  14.0402632  56.6753769  61.0868797  14.7504244
  39.4140205   2.0583336  73.4895782  39.4568329   1.1211249  73.6794128
  39.9177055   2.4683867  74.1927032   9.9460840   6.1765537  76.5196838
  10.0298309   6.5469298  77.3983383   9.9746284   6.9349427  75.9363632
  82.2494659  19.3738174  55.3991585  81.4358521  19.5734138  55.8622169
  82.8667068  19.1360664  56.0910530  74.4923019   0.8053327  33.8936539
  73.6419144   0.6881094  33.4701805  74.9497986   1.4389220  33.3409424
   4.8987269   3.5285523  63.3663750   5.5220184   4.0187407  62.8302269
   5.3755450   3.3381619  64.1742249  53.8382721  23.2365761  24.8678017
  54.5280647  22.5865612  24.7340088  53.2460480  23.1135063  24.1259422
  16.5020695   7.0838485  53.3669853  16.5176105   7.7417884  54.0620422
  15.5723658   6.9577651  53.1772804  57.9382477  36.7199440  22.1477261
  58.5429726  37.2767906  21.6573563  58.3249969  35.8456879  22.0994205
  22.7331142  52.4879150   3.9187558  22.9041157  53.1372643   3.2366040
  22.7126942  51.6515846   3.4536035  83.4446640  17.0194702   3.0319402
  82.8951645  17.6920834   3.4342763  82.8335190  16.3230324   2.7917135
  58.1519852  43.1430321  29.0247955  57.5196571  43.6586151  28.5242271
  58.9753532  43.6232948  28.9373722  28.6266441  38.6467438   5.7153592
  28.5208931  38.7867813   6.6563363  29.5274067  38.9144096   5.5331149
   1.7133467  22.3380108  16.8588409   2.0699267  23.2256546  16.8246250
   0.8829996  22.4312954  17.3258038  56.3554382  21.9706059  11.2148886
  56.1667824  22.2480164  12.1113729  55.8446312  22.5667152  10.6672001
  15.3675318  51.7313843  32.7271576  14.7027102  51.0888824  32.4792976
  16.0691948  51.6088486  32.0877151  20.2721291  40.8594742  83.8453369
  21.1627655  40.5242958  83.9485474  19.9214611  40.8858261  84.7355957
  19.4616470  27.8417912   2.5852711  19.7596207  27.5738659   1.7159843
  18.7394333  28.4464970   2.4150674   9.4300365  71.3696899  49.3657684
   9.5265789  70.8740616  50.1789513   8.9664755  72.1662292  49.6243591
  72.3491516  63.1795235  38.6980057  71.9207382  63.9726486  39.0199585
  71.6982269  62.7703018  38.1278610   8.5605469  28.0396824   6.3429866
   7.7930994  28.4357319   6.7557817   8.2253885  27.2459049   5.9260712
  29.7668819  50.1925316  89.4027405  29.1275902  49.7792053  88.8224792
  30.4467049  50.5214043  88.8145905  25.2531281  28.4209270   9.1614590
  25.5539322  28.5667076  10.0583963  25.5628624  27.5414925   8.9449158
  81.9728699  44.5891190  57.1679878  82.5259476  45.3137245  57.4600182
  82.2782745  43.8358688  57.6735268   0.5175226  69.7086639  69.6918793
  -0.3179415  70.1757126  69.7017212   0.6804392  69.4898911  70.6093903
  75.7396164  37.6403503  11.3477812  76.6649170  37.4556732  11.5088558
  75.7029495  38.5885773  11.2222471  37.7433319  60.9917374  30.6749668
  37.0972595  60.2858925  30.6504173  37.4908409  61.5213432  31.4312744
  52.6559410   5.0982685  21.1491623  53.4212608   5.4279232  20.6781578
  52.2859383   5.8711963  21.5756721  69.1842728   0.1164584  16.4120655
  70.1240234  -0.0047594  16.5477428  69.1245728   0.8122266  15.7574091
  55.3084908  49.9549255  70.2782974  56.1813545  50.0115395  69.8895340
  54.7509422  49.6341019  69.5694656  82.9627609  35.6846123  75.9363327
  83.1996155  35.0110588  75.2987900  83.5236893  35.5074921  76.6914597
  47.6384583  -0.3006966  88.4962387  47.1332855  -0.0140890  89.2570877
  47.7747040   0.4969348  87.9849091  69.9439926  26.5478134  19.5491314
  70.4767303  25.8101559  19.2519932  70.4883881  26.9891300  20.2011337
  51.0626297  58.1601486  82.7816696  51.8244019  57.9240417  82.2523422
  50.9380493  59.0950699  82.6184845  47.5518379  56.8527794  86.9305115
  47.1418571  57.6827126  87.1741409  48.4230766  57.0982971  86.6192398
  33.4093170  53.0539131  59.4165726  34.2235680  53.2554474  58.9554749
  33.5235023  53.4409103  60.2845726  22.0063171  58.7910843  10.2596130
  21.6407757  59.6463890  10.0336380  21.5379143  58.5325584  11.0533361
  79.4074173  47.7460899   7.4504442  79.1207123  47.7064018   6.5380530
  78.8470840  48.4120865   7.8488255  66.1404114   8.9082642  38.7568817
  65.9626389   9.5336275  39.4594116  65.4195023   8.2805529  38.8068848
   7.0019064  71.2824249  78.5620422   6.5318418  72.1105499  78.6594009
   7.4884834  71.3780289  77.7433014  79.3027344  50.7122383  80.4967728
  79.8998871  50.3840675  79.8245087  79.1792908  51.6357346  80.2773438
   9.7924252  41.1086082  40.8369331   9.8504915  41.3879700  41.7506180
  10.0867195  41.8686218  40.3349342  64.2160797  39.9856453  55.2012749
  64.3517609  40.6690674  55.8575935  63.2661324  39.9446716  55.0910072
  63.1324043  11.1690731  21.1033764  63.7192879  11.8098001  20.7017956
  62.3544807  11.1742563  20.5456638  65.8421326  50.1004829  84.3210297
  65.4317169  50.6035118  85.0244217  66.3841553  49.4542007  84.7735443
  49.0777092  13.4450102  73.8358994  49.0811539  13.5459385  74.7877579
  48.1892929  13.1549263  73.6290131  12.5209618  21.2057838   2.0008676
  12.7268829  21.8433590   1.3172556  13.2157259  21.3175411   2.6497467
  69.8754044  46.8146362  11.8790464  70.4058075  46.2960091  11.2741232
  69.3784714  47.4068298  11.3146057  11.9787073   1.2379559  22.9802513
  12.0175924   2.0054884  22.4096260  12.0685635   1.5923765  23.8648663
  81.0688171   2.7055137  52.6649551  80.5950470   3.5214007  52.8265190
  81.0594940   2.6076529  51.7128143  18.1232033  14.3844652  74.1613541
  18.2524796  14.6814451  75.0620880  17.8935986  13.4589758  74.2449265
  34.7064514  40.2692108  82.8466644  33.8725471  40.3054810  83.3152008
  34.4771614  39.9497032  81.9739838  74.4090042  12.5900545  21.6256199
  74.8416519  11.7756062  21.3692684  74.0251007  12.9229383  20.8144226
  45.9972649  47.4748421  28.5821724  45.3172073  48.1362152  28.4543495
  46.4380493  47.7375984  29.3901958  38.0498161  67.6702271  69.3256226
  37.9190521  68.3968582  68.7164078  38.9869499  67.4816971  69.2759323
  39.6122627   0.3757102  40.4484291  39.6775627   1.1803957  40.9626732
  40.3232994  -0.1756296  40.7750511  75.0143204   5.4751000   5.2988892
  74.4501648   4.8665571   5.7760053  74.6228104   5.5313754   4.4272299
  19.6165543  54.3815536  38.8910103  19.3030987  54.1696701  39.7702637
  18.8538799  54.7534294  38.4479866  85.2104645   5.1567907  33.0691986
  84.5026016   5.0558405  33.7055817  84.7751770   5.4619136  32.2731743
  16.8322449  61.3474693  36.3319740  17.0658550  61.2313309  37.2529373
  16.2941246  60.5838699  36.1232452  34.1389580  52.4663506  86.1707840
  34.2773361  51.9240761  85.3942337  33.4800339  51.9932709  86.6789551
  67.8873825  60.2074699  59.2715797  68.2812119  59.3969917  59.5944595
  67.4385757  59.9512787  58.4658623  39.6592026   8.2472820  61.4034920
  40.1368294   7.5289164  61.8182907  40.1615257   8.4438171  60.6127472
  74.6684265  37.7531166  14.0306396  74.9291763  38.0817795  13.1702766
  75.2954636  38.1466064  14.6374559  85.7228470  18.7722149  36.8806076
  85.7169876  17.8150406  36.8846092  85.3388519  19.0176010  37.7223701
  41.5224686  62.1106682  86.4325180  42.4505157  62.1438484  86.6645966
  41.2306519  63.0209885  86.4814453   5.1584902  32.2150383  45.5601501
   4.5897641  31.4883690  45.3057175   6.0456815  31.8892822  45.4084702
  52.6225471  31.0134354  18.4282036  52.6174889  30.0773525  18.6280956
  53.5213585  31.2912178  18.6048584  81.9696884  51.2786446   5.3767457
  82.6310349  50.6054039   5.5367365  82.0450287  51.8709717   6.1248798
  48.2463799  68.7287979  47.3195915  47.4309731  68.4162369  47.7115746
  48.8150139  67.9589691  47.3037415  77.6953278  55.5183449   1.1276435
  78.4572220  55.0355148   1.4479989  77.3133850  54.9479027   0.4605970
  19.0488281  12.5871544  87.0326691  19.6435070  12.0148783  86.5478134
  19.1044407  13.4288578  86.5802612  30.4253426  41.6343231  10.0085573
  30.1338272  40.8422165  10.4600191  29.9592400  42.3456650  10.4478464
  39.1825409  64.3070831  39.5350037  38.3512611  64.5280609  39.1150284
  39.5313301  65.1473312  39.8326149  68.4527206   0.7522134  73.2266083
  68.9419785   1.2351985  73.8926315  67.7086334   0.3793308  73.6993942
  19.1725235  33.3524666  19.7612896  18.2175846  33.4180794  19.7654648
  19.4712467  34.1823807  20.1330967  56.6030235  25.5038071  39.0905075
  55.9653969  26.2140903  39.0186806  56.6921272  25.1707230  38.1975632
  78.9979248  47.1659050  76.9406509  79.9297562  47.1977654  77.1572266
  78.6671143  48.0322075  77.1779633  24.0727520  70.0179825  24.3276863
  24.0515022  70.0559540  25.2838974  24.8431664  70.5314331  24.0846596
   1.0032196  71.2371826  89.2768097   1.2235693  71.1586838  88.3486328
   1.8013842  71.5727692  89.6849136  85.1693420  10.7479639  39.5010872
  84.9385910  10.0783138  40.1449509  86.1001129  10.9136467  39.6509018
  22.5446587   7.3218307  13.9513073  23.1021938   6.5449529  13.9083176
  22.4582310   7.5031199  14.8872004  51.6873016   5.2654638  72.9891586
  50.8516502   5.7312183  72.9577103  52.2884407   5.8180637  72.4896622
  11.6559258  66.1777191  67.3024216  11.3065662  65.2870865  67.3333130
  12.2338352  66.1819763  66.5393829  24.1929283   2.3178225  53.8587456
  24.9656906   1.8511316  53.5405197  24.5436249   2.9964609  54.4355431
  30.2811642  15.4530382  86.9622498  31.1241341  15.0557089  87.1807938
  29.6312218  14.8424482  87.3100739   6.1213350   5.3243132  61.2988243
   5.8564749   6.1991787  61.5828857   7.0696282   5.3865166  61.1843605
  26.1259499  35.5179939  26.2230072  26.8597870  34.9310265  26.0408421
  25.3568687  34.9481430  26.2195282  68.5422058  55.0030479  23.7881088
  67.9231339  55.7328835  23.7700672  69.0482254  55.1379471  24.5893459
  35.5625877  34.0894966   9.5010729  34.7308655  34.5204773   9.6978512
  35.3152695  33.2084541   9.2203074  55.9851036  56.1390190  64.9844971
  56.2204475  55.9565506  64.0747986  56.1749687  57.0702057  65.0988541
  76.3998337  21.3111286   2.1460536  75.6994019  21.5649490   1.5450492
  77.1339264  21.8789806   1.9117926  66.9789810  40.1487465  34.0248604
  66.0403595  40.1675529  34.2115631  67.0323868  40.0078735  33.0795898
  73.7078857   8.6174784  33.3673897  73.1757812   9.3049145  32.9667320
  73.5577774   7.8478370  32.8184357  66.3386230  19.8387604  76.6781921
  66.5498352  19.8759460  75.7453232  65.8083191  20.6200447  76.8350296
  15.0036325  16.0198479  23.1539650  15.4569235  16.4813175  23.8595181
  14.5616121  15.2911224  23.5896339  84.4349365  43.3292542  52.8644981
  83.5725021  43.4853363  53.2493172  84.6975555  44.1797066  52.5123711
  14.1507025  68.4847031  52.6044693  14.4679985  68.3037186  51.7197075
  13.9564743  69.4219894  52.6022034  11.7596989  34.1464119   5.4623456
  11.0571623  34.5788269   5.9478259  11.9624434  33.3661804   5.9784513
  64.2535629  51.5374374  21.8330727  64.5010376  52.4355888  21.6132698
  64.9353867  51.2419662  22.4364300  56.5534668  41.2378311  18.7606850
  55.8664474  40.9044418  18.1835442  57.1308212  41.7365150  18.1825829
  61.9877930  13.8581982  22.5597401  61.5723572  13.9467049  21.7019463
  62.7966499  13.3768883  22.3856087  62.7420769  10.6187925   3.3469055
  62.9125366  11.2023535   2.6075602  63.3081932  10.9461498   4.0458937
  70.4644852  25.0355778  78.8764343  71.0430450  24.4347992  79.3460770
  71.0422974  25.7349911  78.5711670  22.4657001  35.3795586  81.6472702
  22.7008820  35.6658020  82.5298691  22.8536224  34.5082016  81.5667419
  84.3424454  12.2416391  60.8175125  84.8428116  11.4734011  60.5424156
  83.7878647  12.4482498  60.0651894  40.2591858  10.9547043  18.4338303
  39.8242874  10.3033171  17.8835678  40.0524635  10.6879930  19.3295784
  62.6672821  42.7726974  51.8044434  62.4664574  43.6820564  52.0257416
  63.5225792  42.6124306  52.2032013   5.8298812   6.9891300   3.4331288
   5.5969424   6.8482261   4.3507986   6.7811189   6.8852673   3.4088116
  34.8968735  20.9934826  11.8221769  35.2571564  20.1316071  11.6133766
  35.6224861  21.5993042  11.6715298   7.9892716  21.2151737  46.6707573
   8.5964193  21.9497433  46.7602577   7.1226168  21.6212597  46.6554184
  60.7468910  23.4750977  78.3489990  60.3865814  23.6297722  79.2221985
  61.5699463  23.0129795  78.5079193  27.3272057  23.3801594  74.5313263
  27.4784489  24.2872906  74.2658615  26.3744926  23.2996445  74.5770264
  60.0942383  51.4205322  54.5708733  60.4800301  51.7759819  55.3715324
  60.0939789  50.4728317  54.7053909  35.3745308  65.5444717  78.6806183
  35.6152534  64.7283325  78.2422028  34.4174690  65.5510483  78.6657944
  29.7125969   8.8012342   1.5041074  29.8601284   9.1133642   0.6113359
  30.2360706   9.3861465   2.0519059   9.1888113  52.9524040  14.8310080
   9.2845230  52.6987343  13.9130087   9.0729198  52.1245956  15.2974110
  78.7003250  42.1486282  84.7818375  78.1268311  42.8625946  85.0603790
  78.2871933  41.3591995  85.1316376   5.1568546  42.8774681  34.3423653
   4.4576645  43.3609657  33.9023743   5.5708184  43.5231133  34.9150848
   4.8866324  45.7297211  81.0443954   5.0109792  46.5221863  80.5221252
   3.9679723  45.4964447  80.9106903   2.3268592  33.1956863   2.1722448
   1.9644619  32.9493675   3.0232606   1.8898190  34.0191345   1.9550766
  41.9474564  29.1920166  83.1573334  42.0575104  30.0535240  82.7549362
  42.0166359  28.5762768  82.4277420  61.5310364   4.2669024  39.7719154
  61.5528107   4.9933906  40.3947906  61.7009850   3.4897811  40.3042984
  61.2229614   6.0043240  84.5475769  61.4468994   5.2126751  84.0583191
  61.1810455   6.6924591  83.8835449  23.4560833  28.7357082   1.3204154
  23.8286915  29.5805740   1.5725973  22.9569550  28.4554825   2.0876038
  26.4470425   4.9697533   6.4741998  26.9136105   4.4263062   5.8392096
  25.7430553   5.3770056   5.9694414   0.4973325   0.4068584  16.8287830
   0.8807011   1.0441432  17.4313831   0.4795952   0.8565897  15.9839993
  58.7076797  46.3363266  38.8094826  58.2606468  46.2772522  37.9651451
  58.1474457  45.8469353  39.4118652  46.8734627  35.8488197  74.0714340
  45.9779320  35.5306854  73.9572067  46.8112831  36.4904251  74.7790375
  45.0990143  62.0585251  73.6168289  45.3661041  61.1393967  73.6264267
  45.9205894  62.5472145  73.6661453  59.7101936  61.4155540  16.0562096
  59.1275749  61.4266853  16.8155937  59.2761269  61.9760704  15.4130621
  24.8281040  48.4491005  56.1284790  24.3868046  48.5900116  56.9661140
  24.2780323  47.8124237  55.6720810  14.4320297  52.1645775   6.0081825
  14.8343534  52.2277412   5.1419392  14.6853313  51.2984276   6.3273315
  25.6524773  10.9102850  13.1591558  24.9402981  11.3277426  12.6746330
  26.2324333  10.5635843  12.4811583  32.1837196  30.0965099   2.4015932
  32.1196938  30.5306911   1.5509359  32.8202705  29.3948040   2.2650356
  17.6803646  53.2397499  52.9225273  18.4204464  52.6840286  52.6782265
  17.0819511  53.1828308  52.1776161  80.7436676  60.2193069  53.5421143
  81.2712250  59.5225258  53.1517220  80.6531296  59.9652214  54.4605255
  68.4590607  40.1501770  61.3992348  68.3208466  40.0646515  62.3425369
  68.9395676  39.3592072  61.1548843  71.8535919  60.1940155  30.2049370
  72.1142120  60.5566597  29.3582954  71.4021072  59.3784866  29.9874287
   4.4223876  33.8215332  22.8505955   3.7536044  33.1602058  23.0283794
   5.2381310  33.4257469  23.1574287  79.0982971   0.9843971  30.8616638
  79.6501007   1.7435296  31.0499916  78.2090302   1.3370050  30.8285446
  67.7470398  63.6659470  24.6550674  68.2839737  63.3127861  23.9456902
  66.8545761  63.3979912  24.4361439   6.9698915  10.7332802  67.4116211
   6.4268737  10.7813997  68.1984177   6.5526028  11.3352766  66.7954178
  10.5631332  51.3253708  12.7229843  11.5044622  51.3913307  12.5624199
  10.2136755  50.9133492  11.9328260  68.0715714  36.4450340  35.0303001
  67.3574677  35.8366966  35.2206078  68.4184494  36.6836281  35.8899384
  33.1687889  22.2165737  75.2288208  32.6660805  21.5004387  75.6169815
  33.9381256  22.3018646  75.7919159  11.0994873   2.9508462  41.6883545
  11.1783609   2.6365910  40.7876587  11.7876234   2.4867096  42.1650887
  33.9642830  43.1497040  15.9792213  33.0965881  43.3344193  16.3386917
  33.8721924  43.3052292  15.0392408  63.1337471  69.1858826  31.8806534
  62.4106255  69.6921539  32.2508163  62.9360275  68.2791595  32.1151619
  57.2732468  56.8684998  72.8958130  57.4484901  57.0286102  73.8231125
  56.4910469  57.3868637  72.7068939  75.1076126  58.2323380  30.8159142
  75.1331329  58.6410484  29.9507313  74.8774109  58.9457550  31.4111233
  66.2877502  50.1143265  14.0805912  66.5852966  50.8772926  13.5850248
  66.6735306  50.2276115  14.9492521   6.0907826  42.1639862  48.9015007
   5.7612462  41.3788300  49.3387260   5.3776169  42.4328232  48.3224030
  45.9692917  32.0023193  77.6067429  46.9162254  31.9447613  77.7341614
  45.7978706  31.4603539  76.8366013  10.4895306  60.2097855  30.4520721
  11.2259779  60.5833473  29.9679985  10.3679953  59.3405914  30.0700207
  71.6722260  21.3310089  65.4020691  71.9806671  20.9048061  64.6024170
  71.8703690  20.7052135  66.0987396  75.2114182  15.0692739  74.3121567
  76.0071182  14.5710249  74.4988022  74.7714996  15.1440821  75.1589813
  11.1932497  66.0875015   8.1413002  10.5234299  65.7444839   8.7328329
  11.5147734  65.3179550   7.6715622  39.7253113  12.5001507  14.2463617
  40.4635849  12.7660551  14.7945232  39.0119591  12.3432064  14.8650112
  41.3075485  62.8783073  67.0360641  41.8508720  62.0914040  67.0786743
  41.8985939  63.5909081  67.2791595  69.9978180  25.7633896  41.1463852
  69.5306168  26.0472069  41.9321365  70.1637878  26.5717201  40.6613235
  24.8988094  60.1748962  62.4879570  25.8241520  59.9300995  62.4949303
  24.8926315  61.0791283  62.1740150  29.0260220  70.9568939  65.7655029
  28.4134674  70.9387207  65.0301971  29.7202816  70.3478165  65.5139923
  58.5061913  25.8942242  29.0811272  58.7309494  26.7459850  29.4555874
  57.6288414  25.7092648  29.4162045  13.4155807  42.5243263  32.3978233
  12.4962292  42.6094017  32.1452599  13.9008684  42.6555481  31.5832634
  36.0533981  13.8136406  71.8953323  35.2903137  14.2611599  72.2609253
  35.7004776  13.2830648  71.1810760  20.3484879  44.4760857  59.8697166
  19.9127789  43.6352921  60.0092125  19.7676907  45.1176071  60.2788086
  30.8444557  51.5620079  30.8919334  30.7361050  50.6677208  31.2155800
  30.1702690  52.0652771  31.3484707  83.9868469  45.3374901  68.2019806
  83.3854752  45.3157959  68.9463654  84.6681213  44.7034874  68.4258957
  47.8573570  61.1797523  46.1312637  47.4575424  60.4261818  46.5654411
  48.3519211  60.8024292  45.4037590  14.5252666  61.4627686  18.8836136
  14.3502474  60.6776352  19.4024239  15.3034439  61.2428665  18.3714466
  83.1245346  49.1652145  69.9515457  82.9918518  50.0362511  69.5774841
  83.9181061  48.8402519  69.5262375  83.8821487  53.9016533  26.6287060
  84.0097733  54.8048630  26.3386135  84.7271423  53.6475983  26.9997520
  52.9687691  15.9439116   4.9087448  52.3076324  16.5690460   4.6115308
  53.2168732  15.4639130   4.1186323  10.2881002  66.7757492  81.9460526
   9.4884195  66.8554230  82.4660416  10.3728209  67.6215057  81.5058670
   1.0185603  53.5705719  87.2400818   0.8708717  53.7091408  86.3045502
   1.9467723  53.3460846  87.3053589  12.1259136   0.4079513   4.2334318
  11.9025049   0.1207330   3.3480923  12.2741470  -0.4039024   4.7183571
  86.0789185  22.6597290  51.5562859  86.1319351  22.3734035  52.4681168
  85.5184708  22.0092545  51.1331863  43.0283356  12.2534895  74.0585938
  42.4762383  12.9209499  74.4659195  42.9315758  12.4038382  73.1182404
  23.2496719  70.3597412  41.4382248  22.8415661  70.1248779  40.6048470
  22.9631004  71.2585297  41.6003571  32.5146027  65.3305588  44.4575005
  32.8774490  66.0376740  43.9240570  32.1255455  64.7278824  43.8237495
  24.7537823  15.9519310   6.9780326  25.7049122  16.0435619   7.0344782
  24.4606953  15.9309988   7.8890181  32.1956520  46.7398911  16.8240585
  31.5423698  46.8064194  17.5204964  32.8514023  47.4006348  17.0468636
   2.9879973  24.0328026  28.2369843   2.4321814  24.8102570  28.2905216
   2.5643098  23.4802418  27.5801754  41.3043251  58.3716545  73.8260651
  40.3810883  58.5061798  74.0400009  41.7773857  58.9234123  74.4489746
  20.1741409  27.9589882   5.8221855  20.5326557  28.0219402   4.9368968
  20.7420425  27.3293667   6.2663646  28.9335976  28.0243702   8.8812084
  29.1621552  28.4790668   9.6919146  28.6755733  28.7226658   8.2795124
  77.0392609  34.1155357  39.4660378  77.0275726  34.1901283  38.5118217
  77.2878952  33.2062454  39.6321716  83.6303406  67.3979645  35.8543015
  82.8561783  67.7343140  35.4028854  83.5264587  66.4466934  35.8315392
  53.3039551   0.4755262  66.0593414  53.6833572   1.3363572  66.2361298
  53.0515289   0.5099461  65.1366653  41.6616402  42.8956413  15.7902756
  41.8231316  42.8185921  14.8499479  40.9951935  43.5787888  15.8636560
  32.4480324  16.2930431  78.8040619  33.4033928  16.2343311  78.7956238
  32.1662674  15.5386648  79.3215103  63.0611267   9.0324421  69.6734314
  62.2281952   9.4964666  69.5889359  63.0931816   8.7630739  70.5913925
  70.1019669  20.0257931  61.4071426  69.8153381  20.7271805  60.8222237
  70.3814621  19.3234444  60.8199310  72.4944382   2.2217815  31.0161285
  73.4023361   2.5027468  31.1302052  72.4140320   2.0462923  30.0785942
  13.6138649  53.8657722  12.6466398  14.5430622  53.7757721  12.8581181
  13.2223606  53.0399857  12.9313011  25.9816227  32.4556389  80.2599945
  25.6866646  33.3254776  80.5294571  25.9252167  31.9264736  81.0556335
  85.5259857  63.5958786  81.6854858  86.2971573  64.1486816  81.8117065
  85.5026321  63.4288750  80.7432556  11.7641182  48.1977348  18.1506538
  11.6944933  48.1692696  17.1964130  12.4804707  48.8095016  18.3203926
  46.5390701   7.4539604  26.2950840  46.3738327   8.1690493  26.9095554
  46.4833565   6.6615601  26.8291531  57.4518204  48.1394196   6.2572718
  56.7663536  47.7988472   6.8320594  57.9784431  47.3724976   6.0320315
   6.8411012  56.8679085  31.1695061   6.1786900  56.6675835  30.5082092
   6.9796257  57.8118134  31.0914936  73.7549973  70.7353287  27.0368004
  74.3422928  70.5676727  26.2997704  73.0066452  70.1587448  26.8826962
  35.1745338  70.9591980  28.1515255  35.1339760  71.9113998  28.2403870
  34.5499573  70.7568283  27.4549732  78.6471100  27.9028091  45.8285713
  77.7379532  27.8043327  46.1113739  78.6039200  28.5113239  45.0909538
  81.0013199  42.1058693  29.1686230  80.7175217  42.2410507  30.0727329
  81.9549866  42.1803932  29.2032623  21.9640694  10.1291142  82.8129349
  21.7740841   9.1909599  82.8152466  22.7459087  10.2165031  83.3582077
  52.1882629   6.3439355  32.3507385  52.6140938   5.4902720  32.4292221
  52.1766853   6.6888051  33.2435799  81.5976715  42.2255707  14.1993494
  81.1000519  41.9312515  13.4364691  81.0660400  41.9591484  14.9494305
  27.8991108  48.4765930  11.7737303  27.3889389  48.9536514  12.4282303
  28.1457520  47.6611214  12.2100906  76.2935181  45.2747421   3.5195150
  76.2533188  45.1803970   2.5678246  76.2430573  44.3783417   3.8514097
  35.6830025  47.9197197  31.8837337  36.3718987  47.2748108  32.0441933
  34.9022369  47.5419273  32.2885933  47.2038002   8.1094084  80.0026627
  46.3423882   8.2516775  79.6102905  47.4964638   8.9832993  80.2613068
  86.8914642  43.2004051  55.0151901  86.6523514  43.4210587  54.1149826
  86.3829498  43.8068542  55.5535851  13.6368227  60.7075615  11.4266415
  14.1779490  61.4956894  11.3790407  13.9286366  60.1717644  10.6890783
  49.6963348  46.8786163  62.1582031  49.0880775  46.7599640  61.4286995
  49.8026695  46.0015144  62.5264664  25.7670212  58.6003265  83.1087723
  25.4862309  59.5128021  83.1778717  26.2835217  58.4480858  83.9001541
  62.3882446   5.2476182  10.8961315  62.4225082   6.2010708  10.9735031
  62.8810310   5.0541701  10.0986547  77.2758179  65.4399567  30.6976128
  76.8536606  64.9025192  30.0274010  77.4104462  66.2880783  30.2747822
   8.9277458  20.2402115  17.2895775   8.0806828  19.7967033  17.3344669
   8.7217131  21.1646595  17.4280682  62.6936607  65.9737778  26.0631428
  63.5869789  65.9221649  25.7232208  62.1996727  66.4153671  25.3723373
  18.7909317  49.0361328  36.3494949  19.5609093  48.4812660  36.4739571
  18.9856739  49.8309402  36.8460693  49.9329643  23.7338715  75.3073196
  49.1600304  24.2957611  75.3629074  49.5872192  22.8739033  75.0682602
  40.5679245  65.3702850  27.7375622  40.1174240  64.6706238  27.2645283
  41.4909515  65.2569046  27.5108585  75.4719086   4.8847284  12.8983173
  75.3042221   4.0289540  12.5036488  74.6025772   5.2268286  13.1067896
  24.7443123  16.9631310  20.3250561  24.0196877  17.4945660  20.6547966
  24.7855453  16.2168884  20.9230957  26.5710602   3.8757617  74.1555710
  27.5189342   3.9825716  74.0758438  26.4401989   2.9289377  74.2068710
  42.4269753   7.6942182  72.1697769  43.2026787   7.4341364  71.6729126
  42.5363312   7.2730632  73.0223618  78.5215302  33.0939789  10.8676004
  78.2533569  32.7805367  10.0038462  77.7063446  33.1484833  11.3663359
  30.2249393  54.5578918  40.3697510  29.3288288  54.3289108  40.1232071
  30.7473068  53.8011513  40.1038399  63.6732330  53.8533516  43.9826775
  63.3283730  53.7342072  43.0977440  64.4626236  53.3125153  44.0069351
   9.9061050  42.1109314  69.3853455  10.6789865  41.6478043  69.0622406
   9.8534679  41.8724213  70.3108597  27.0354881  58.8993416   6.4410567
  27.2485466  58.9510078   5.5093012  26.0876026  59.0274696   6.4774680
   0.4729476  21.4937000  21.2748604   0.5466600  22.4121513  21.0155449
  -0.2996010  21.4654522  21.8393097  18.8470802  54.5780449   8.2918310
  18.2846146  54.2912941   9.0113010  18.9960365  55.5084305   8.4604435
   1.9380492  45.9317436  77.8409805   2.2256172  45.7991600  76.9376755
   1.1199046  46.4223404  77.7623215  67.1268997  13.7060461  36.1593819
  67.7075043  12.9870968  35.9098892  66.2750854  13.2905073  36.2934494
  31.0695457  52.8564529  26.4967499  30.4707737  53.5938492  26.6148567
  30.7132339  52.3759003  25.7495251  63.4206886  55.5629311  39.1813316
  64.3438644  55.6087685  38.9325867  63.0690842  54.8380318  38.6644859
  26.9700775  12.1772423  78.4684982  26.9653549  13.1083937  78.6902390
  27.5579834  12.1132450  77.7158356  61.3726044  23.7212925  81.4660034
  62.0438919  23.1626911  81.0741272  61.7009811  23.9095592  82.3451843
  29.7183113  63.7254295  86.7237625  29.1151600  64.4092941  87.0149231
  30.5872593  64.0662766  86.9358521  81.5874939  31.2617111  27.3165283
  81.1595917  30.8300076  26.5770912  82.5103607  31.0219460  27.2325115
  84.2768402  61.4791679  48.1169319  84.7650452  62.0389442  47.5131607
  84.4613419  61.8427734  48.9829483  25.0234146  14.5447378  21.8356075
  25.6293030  13.8488636  21.5808697  24.1604271  14.1312828  21.8124466
  51.3776665  51.4982300  40.3749428  50.5385361  51.9580193  40.3488350
  51.9615974  52.0920830  40.8467407  44.0795097  56.7120857  11.7508783
  44.1799850  55.9797173  11.1427898  44.8716393  56.6880684  12.2877083
  24.6363335  66.7667847   2.5476232  24.2155151  67.2714539   1.8515955
  24.5835266  65.8584518   2.2503357  69.9303360  30.0588398  25.6568356
  70.1574707  30.8341599  26.1701756  70.1431732  30.2980442  24.7547760
  30.6924057  61.4115219  61.5351982  29.9969845  61.7341537  60.9620209
  31.4812489  61.8600121  61.2305450  68.9218979  22.5901775  63.2243462
  69.5901413  22.0838242  62.7625160  68.0946426  22.3053493  62.8360634
  29.1318474  16.0146542  14.4804029  30.0568829  15.8580914  14.2905951
  28.6649933  15.3808451  13.9358253   9.8832064  66.4617462  88.8324814
  10.0182819  65.9660797  89.6401291  10.5765219  67.1216888  88.8376846
  36.3907127  10.6846189  71.7922058  37.2839622  10.7600222  71.4565659
  35.8594360  11.1865673  71.1741257  10.1406946  39.6582108  51.6207123
   9.8028755  39.9773903  52.4575119  11.0495749  39.9577370  51.5994110
  28.7393799  53.3527412  37.9680672  29.6418419  53.5087357  37.6897507
  28.4516582  52.6072960  37.4410362  27.4916687  57.6635132  42.9275665
  27.8040619  58.3705139  42.3629456  28.2568398  57.1026268  43.0546379
  34.1303902  33.0684242  35.9110336  33.3354683  33.6015701  35.9013634
  34.7994156  33.6426888  36.2836685  54.8179970  45.3370171  87.8260345
  55.3268738  46.1404839  87.7177811  55.2029152  44.7235641  87.2001419
  34.1107025   2.1574001  79.7999039  33.3013802   2.6678121  79.7732773
  34.8060684   2.8047235  79.6829834   6.4750061  25.1519375  57.3101501
   6.0435739  24.9521713  56.4793739   7.3220229  24.7098103  57.2525558
  78.6187744  41.5793114  19.3641853  79.0721207  42.4191628  19.2910099
  77.6909409  41.8000755  19.2827797  85.0768356  18.3576069  88.3042603
  84.5678177  18.4720783  89.1067657  85.6375122  17.6024189  88.4819260
  78.1152115  34.7958336  64.0904083  77.5264816  34.0412407  64.1050797
  78.0621719  35.1235809  63.1926346  61.3034821  12.8721933  82.5618515
  62.2595177  12.9193001  82.5583191  61.1029472  12.1166477  83.1142654
  39.2311211   0.9214196  88.5602417  38.4476242   0.3869869  88.6896591
  39.9284592   0.2874937  88.3926544  67.7642212  26.0274124  79.0726624
  67.1520081  25.3633060  79.3895035  68.5578537  25.5378742  78.8564758
  82.1044617  51.0333862  16.4249382  81.2996368  51.2058830  15.9363346
  82.1411743  50.0796051  16.4969597   8.7551308  65.7686844  19.5196934
   9.3003883  66.1514893  20.2069950   9.0113649  66.2342300  18.7235508
  67.6088791  39.8440056  89.0552750  66.9012909  39.9557724  88.4204025
  68.4088058  39.8766823  88.5306015  83.2848434  44.3786163  25.5237675
  82.7545166  44.4825783  26.3138142  83.8159637  45.1740227  25.4854393
  40.2308235  34.3088875  58.2911606  40.9473991  33.7547150  58.6004257
  39.4514275  33.9528923  58.7178230  85.4159393  62.7286301  28.0444221
  86.2541199  63.1859093  27.9767704  85.4940033  61.9941177  27.4356270
  41.4804001   6.3262897  10.6437283  42.4141617   6.2552018  10.8418951
  41.4298515   7.0016260   9.9672689  69.3447113  13.1929340  52.9952011
  69.7956543  13.8059578  53.5757904  68.4947891  13.6009350  52.8296661
  10.8387794  39.7008171   7.5310564  11.1467352  40.6041756   7.6041193
  11.4641924  39.1920891   8.0470867  12.2931242  69.9175797   6.3780437
  13.0294638  69.3307571   6.5503130  12.3273048  70.5593872   7.0873733
  47.5561905  60.6977997  22.0121593  48.0769348  60.5752144  21.2184162
  47.5686302  59.8422699  22.4412842  14.9390984  58.7887192  16.3531532
  15.2167473  57.8754616  16.4245815  15.3160791  59.2145805  17.1230602
  78.5873566  58.2254181   9.2295504  77.9047623  57.6604767   8.8674278
  78.2207718  59.1080589   9.1766739  63.2642670  71.0779419  61.6073418
  62.5256653  71.4681396  62.0747147  63.5964241  70.4060287  62.2026939
  68.1380920  19.1595764  48.6368256  67.4206238  18.8906384  48.0631065
  67.7347107  19.7685699  49.2554054  42.6507187  58.1901588  45.8186150
  42.8334999  58.6790619  45.0162430  43.1556244  57.3821297  45.7270088
  86.1466904  61.3173409  83.2204056  85.8446045  61.9823151  82.6017075
  86.3851624  61.8109665  84.0050659   8.7204313  38.8116531  33.9469604
   8.2714319  37.9710846  34.0368271   9.6007509  38.6504669  34.2865028
  70.1715317   7.7579608  26.4942722  70.2289505   8.2421207  25.6705475
  69.5681076   8.2708015  27.0319614   4.5246530  31.3724632  20.1902046
   5.2405539  31.4063034  20.8246918   4.0902815  30.5372906  20.3635254
  26.8306084   3.3593566  17.7136936  27.3109608   3.1960745  16.9020081
  27.0938854   2.6462431  18.2954025  77.1346893  57.6333008  53.1370201
  77.7653427  57.5042496  53.8454361  76.8759537  58.5518875  53.2110710
  15.7396812  17.0325050  54.3423271  16.1612835  17.6365528  54.9535637
  16.1069183  16.1758957  54.5604820  82.3744965  39.4676819  85.6509933
  83.3128433  39.2839470  85.6953506  82.2831955  40.0711823  84.9136429
   6.5852137  64.0856705  16.8573532   7.0314846  63.5421219  17.5066814
   7.2798829  64.6230087  16.4766502  16.2810574  42.5160866  11.7567787
  17.0017147  42.1385574  12.2611170  15.8533649  43.1191368  12.3647604
  36.8711891  56.8926735  -0.1449489  36.0013237  57.0187759  -0.5239827
  36.7252007  56.9105453   0.8008843   3.9981198  24.6471062  52.3240204
   3.2603092  24.6224041  52.9333305   3.9550672  23.8100681  51.8616943
  12.7395611  40.2275963  52.0773277  12.4639168  40.8895569  52.7114105
  13.6765623  40.3839798  51.9598351  25.1439419  71.1973953  67.8301086
  25.5022087  71.7225494  68.5457153  25.5337677  70.3314438  67.9500504
   0.6145091  17.0312843  73.9350815   1.5641776  17.1002693  73.8370895
   0.4430731  16.0896835  73.9503479  40.5538406  36.1733246  16.3919048
  39.8476143  36.6918564  16.7773952  40.3906822  36.2096443  15.4494133
   4.1771812  12.7228737  66.3582001   4.5484266  13.5894003  66.5241547
   3.9798064  12.7222366  65.4215698  31.4412594   3.1053932  79.7559052
  31.2813129   4.0427909  79.8651505  31.2613277   2.9379337  78.8308029
  44.1665688  60.1268425  70.2629089  44.6825066  59.7213516  70.9597702
  43.3596954  59.6127930  70.2321930  81.1286926  15.4426985  47.6070938
  80.4327698  16.0333786  47.8952293  81.1664276  15.5619450  46.6581001
  31.8146915  22.4437542  71.3936081  31.3162670  22.7938652  70.6552124
  31.9806614  23.2031784  71.9521408  34.4189262   8.2018843  14.8807478
  33.8014565   8.2736921  15.6086245  34.1661835   7.3956637  14.4309034
  67.7042313  65.4753113  74.9600830  67.9254379  64.6098099  75.3039093
  67.2901459  65.9265900  75.6956863  21.1410122  37.4283524  71.6184464
  21.2186623  38.3646202  71.4351349  20.2726612  37.3320732  72.0095139
  83.1407623  37.0142555  67.0453873  82.6574326  36.9783783  67.8708191
  82.8730392  36.2238541  66.5765305  40.5939751  54.4120102  55.1301918
  41.5494118  54.4478073  55.0844727  40.3223228  55.3282051  55.1851540
   3.2389660  69.4352112  84.3181915   4.0907784  69.5301056  83.8919907
   3.3646948  68.7269592  84.9496994  78.7679825  25.1198864  14.2339001
  78.3891678  24.8954430  15.0838165  79.4269714  24.4431171  14.0791540
  64.9179764  12.4312544  45.4631042  64.8605499  11.6406708  45.9996796
  65.8333130  12.4662256  45.1853218  76.4234467  47.4588394  61.9133186
  76.1037369  46.6763954  62.3625336  75.8568802  47.5430565  61.1464157
  27.9456501   2.5138288  43.2549210  28.4686623   1.9618216  42.6735611
  27.0574703   2.1644864  43.1819382  55.3260498  42.1992569  29.2787685
  55.1171608  41.6595993  28.5162945  56.2160683  42.5111046  29.1149025
  49.5895538  52.5147629  25.0079403  48.8423271  52.5567169  25.6047020
  49.9064674  53.4165535  24.9571819  18.8876591  10.3774958  32.5425148
  19.5423985  11.0303583  32.7901421  19.0542202   9.6377277  33.1266632
  29.5887775  42.2322731   7.2054605  29.6380653  41.6991234   7.9989057
  28.7486973  41.9977608   6.8111248  30.1056614   7.5104389  44.7449799
  29.3281879   7.7593336  44.2451630  29.8074322   6.8011479  45.3143616
  68.4589539  65.7805557  26.1508789  67.9037628  65.7195511  26.9282303
  68.0558853  65.1828613  25.5211735  35.8829651  40.7930794  10.2009907
  35.6883278  39.9135132   9.8774004  36.8340988  40.8706741  10.1264591
  18.3259373  41.6908760  65.9966278  17.4494305  41.7664375  65.6194534
  18.5356808  42.5760765  66.2943878  10.0060759  27.8515682  28.3512573
  10.1102543  27.6902485  29.2889957   9.1468697  28.2662487  28.2735653
   9.4747686  32.0894890  79.8125916  10.3522348  31.9691982  79.4495239
   8.9669180  32.4637032  79.0926743   7.9388409  14.9000731   3.3370471
   7.6671758  15.7910051   3.5576620   8.8757868  14.8801918   3.5319037
  63.8977013  39.6767387  85.0867767  63.6412315  39.0299225  84.4294434
  63.0775986  39.9196510  85.5164948  65.7759628  16.4054546  72.6093597
  66.1992340  16.7173710  71.8094940  66.4677429  16.4272728  73.2705688
   1.9851201  59.7676735  74.2820969   1.4013102  59.2097130  73.7682114
   2.8523278  59.3801308  74.1638031  19.0877476   7.2127490  31.3078613
  19.7542858   7.8980021  31.3567066  18.8962078   6.9993982  32.2211113
   6.2855635   2.0460665  49.9108772   6.7282319   2.4328313  50.6663170
   6.4738665   1.1098590  49.9763680  68.9699020  36.4082184  15.1358137
  69.1670303  37.2987442  14.8454075  68.7652969  35.9333725  14.3302755
  40.7945366  18.4897518  71.4644852  40.5657768  19.0567684  70.7280121
  40.5639343  17.6089096  71.1692429  12.7648582  28.4063377   9.4504480
  13.2185841  27.5688553   9.5452442  11.9312162  28.1816635   9.0371752
  41.4748573   5.0174952  26.4216423  41.7831116   5.3365545  25.5734615
  42.1758690   4.4437456  26.7308807  78.6655197  66.2854462  88.9778824
  79.0953903  65.5986481  89.4875488  79.0279160  66.1922760  88.0968475
  21.1574402   7.1764565  82.8748474  20.9806862   6.3467684  82.4314499
  20.6211605   7.1436620  83.6670380  26.3962364   5.0920668  54.1823349
  26.0479507   4.5636616  54.9004669  25.7724819   4.9654417  53.4674034
  43.2863998  15.2613688  26.0207996  43.1068497  15.7755051  25.2336159
  42.9410362  14.3909836  25.8223362  85.4142151  37.9051399  13.2671337
  86.0807571  38.4180489  13.7241611  85.7764206  37.7673531  12.3918867
  86.0282135  70.4557343  18.9447689  86.4206619  70.9180450  18.2041702
  85.1316376  70.7883072  18.9868355  64.2874603  18.3791752  19.5157890
  64.0155487  17.7092075  20.1430359  64.8840332  18.9416618  20.0096989
   1.6486796  53.9427376  66.9720230   1.1440843  53.5378456  66.2665634
   1.3067614  54.8349380  67.0294952  27.6814823  19.4740467   9.4897738
  27.9449520  19.9843731   8.7240181  27.6744461  20.1064987  10.2082338
  75.6237793  65.8131332  12.3632660  75.1077118  66.6192932  12.3591795
  75.4383316  65.4143372  13.2134428  12.1593399   9.8720217  48.6061821
  12.9319925   9.5705662  48.1283073  11.5334568   9.1520100  48.5281715
  86.6077576  41.2780495   1.3596408  86.6098404  41.0570946   2.2909875
  86.8291473  42.2089386   1.3338317  46.0927429  62.4633331  20.4890575
  46.2623901  61.8760529  21.2256393  46.5353584  62.0510864  19.7471828
  50.9253845  22.5944786   8.5382805  50.1571121  22.0243435   8.5688114
  50.5670128  23.4813766   8.5731077  17.2882538  28.8306427  82.3942261
  18.1469650  28.9800987  81.9986115  17.0786171  29.6563663  82.8306503
  12.6064949  21.3360519  76.3875885  11.9156237  20.8824635  75.9047012
  12.5554295  22.2424126  76.0840607  38.3785324  17.7261620  19.2363491
  38.8545685  17.7878189  20.0644913  37.8418846  18.5183086  19.2090092
   7.3523602  46.1335983  39.6031685   7.0574164  47.0054474  39.8660774
   6.5449433  45.6506310  39.4269562  71.1839600  31.0182343  22.9109821
  71.9032974  31.6349049  23.0470295  70.5611267  31.4941826  22.3616371
  56.8045692  69.2580872  35.7930298  56.3404694  68.4405441  35.6128616
  57.7235451  69.0554047  35.6180115  48.7859955  66.7101364  89.0059280
  49.4285316  66.0138397  88.8697357  48.8721733  67.2698593  88.2342300
  28.7147789  22.6607590  31.0579433  29.1176319  23.4808159  30.7725506
  29.3899803  21.9983749  30.9110432  38.5877991  50.2901535  41.8124428
  39.0643463  51.1179581  41.7502060  39.2652054  49.6361809  41.9846954
  68.9362259  42.0043259  65.7560501  69.6417770  41.5086403  66.1716537
  69.2993774  42.2773590  64.9135513  16.9755917  49.2376022  34.2046585
  17.7614269  49.3345032  34.7425308  16.8151970  48.2941895  34.1827240
  78.5706635  50.6139908  59.8843231  77.8966370  50.3768044  59.2474098
  78.2341156  50.2917252  60.7204514  64.6830750  61.6221924  20.8940105
  64.2249756  62.0704422  20.1830616  65.5678635  61.9869843  20.8763714
  79.0112228  33.8021927  56.0208969  78.4624100  34.1677017  55.3270340
  79.8029022  33.5082321  55.5702744  83.3896484  17.8498459  18.5080605
  83.9253769  17.1229057  18.8255234  83.9070740  18.2385502  17.8027897
  85.6725769  23.2329330  15.1969509  85.7211380  24.1234245  15.5446548
  85.6388092  22.6741505  15.9733887  38.8199577  60.6950569  69.7734756
  38.6025810  60.5881920  70.6995163  39.5174828  60.0586967  69.6162033
   8.0897198  68.2698975  35.5098686   8.6473303  67.5514603  35.8084335
   8.5861111  69.0611725  35.7189598  25.6050377  34.3911858  21.3280430
  25.3828640  33.6915932  20.7136822  25.9275513  33.9342842  22.1048679
  69.3296127  30.7493591  30.2166805  69.6736603  31.6351547  30.3316975
  68.3872223  30.8380852  30.3590488  34.6861801   5.4186893  52.7165565
  35.5415726   5.0094085  52.8470192  34.8684883   6.1877718  52.1766434
  74.7644272   6.0750656  35.7352638  74.2584152   6.4126501  34.9962006
  74.3476868   6.4595752  36.5064354  69.6543274   1.0828989  87.4534302
  69.1336899   1.3462573  86.6946106  69.0322571   0.6354958  88.0270920
   7.4950271  11.8094959  85.6238632   7.0882335  12.1847506  86.4048462
   7.4409728  12.5046968  84.9681168  49.3859215  33.5517464   7.1706676
  48.7468414  33.6657219   6.4672365  48.8838272  33.6859169   7.9744897
  49.3422737  35.3212280  29.2758179  49.8703880  35.4207001  30.0679226
  49.4109917  34.3918419  29.0572853  82.3258743  36.6751671  30.4359188
  82.9225388  36.5130844  31.1666374  82.0919495  37.5996819  30.5182495
  19.8809967   3.7469702  19.0316048  20.5537014   4.4268904  19.0691509
  20.2006035   3.1299174  18.3733273  78.8123779   2.5446477  37.0865822
  79.4441833   2.9622996  36.5012436  78.2072601   3.2466152  37.3259659
  75.3897476   0.1033969  52.5433540  75.6494598  -0.0613691  53.4497910
  76.2161942   0.2217785  52.0751534   3.7398751  40.1919556   0.2461505
   4.4534726  40.1009026  -0.3852918   3.7228289  39.3551712   0.7106245
  86.3394012  19.6001434  19.2342129  86.6879196  20.1451302  19.9397316
  87.0341415  18.9663601  19.0556393  72.2438660  25.9680595   9.0306673
  72.4480362  26.4072361   9.8562994  71.5662994  25.3316784   9.2590532
   5.6856279  19.9920406  50.1382904   6.4043808  20.5843296  50.3592453
   5.6353273  19.3892536  50.8801422   6.0552897   7.0890412  74.3761063
   6.3179612   7.9978232  74.5222244   6.8786235   6.6010242  74.3622437
  86.5763626  39.5475159  38.2788429  86.1242828  39.5779686  37.4356766
  86.5681305  40.4534187  38.5878792  20.3359375  62.1075897  71.3689499
  21.0901508  61.8333664  71.8906784  19.6063099  62.1155701  71.9884796
  14.8670511   4.5785360   5.9634509  14.3672476   3.7848575   5.7723951
  15.7810507   4.3206258   5.8437896   6.3737845  57.2167664  83.1168823
   6.1661468  56.2955017  82.9607010   7.3202906  57.2744179  82.9863663
  54.0479012  43.4566193  45.4420319  54.6275101  43.4543076  46.2037888
  53.9596825  42.5333366  45.2053871  35.7157326  49.5217552  21.2017193
  36.0453606  48.6800461  21.5165253  35.2118149  49.8716011  21.9365044
  18.0763607  49.2005234  61.7829819  18.7156086  49.2978554  61.0772057
  18.5638676  49.4134560  62.5787354  41.7327194  44.5373688  25.3240261
  41.4450645  43.7418633  24.8760815  42.4580002  44.2507668  25.8790588
  42.2258606  18.5119381  13.6325178  41.6320343  18.9705429  13.0381403
  42.9144211  18.1669273  13.0641127  78.2367096   1.9111477  77.9661102
  78.6702576   1.5522341  77.1918640  77.3605118   2.1477301  77.6619110
  12.7535305  50.1926384   0.4043550  12.9473848  49.4425697   0.9665372
  12.8496532  49.8555412  -0.4863518  78.3619766  42.7853203  79.0892563
  78.7304459  42.6192474  78.2215729  77.4446793  43.0020599  78.9224625
  75.7296066  11.3942862  42.5339737  75.9831619  12.0417900  41.8761902
  76.0568161  11.7509918  43.3597641   6.4944806  22.2951031  28.1197701
   6.0957465  21.9474487  28.9175034   7.4351125  22.2813854  28.2965603
  29.6877117  16.7069740   1.0651981  29.7592945  16.6784096   2.0192902
  30.0061073  15.8520546   0.7754237  86.2966309  58.7011185  44.6011505
  86.7614288  59.3399620  45.1415863  86.0217209  58.0215607  45.2166634
  20.8084602  48.7766571   8.2600117  20.3031082  49.2021523   8.9526920
  20.5193405  47.8643532   8.2785072  66.0921173  48.4887352  16.7783604
  66.3527069  47.5835876  16.6079597  66.8491211  48.8774605  17.2166080
  84.8005676  39.9012794  63.5466499  84.4320221  39.0263519  63.6687698
  85.0135956  40.1971169  64.4317093  77.6272507  47.9111786  83.3617172
  78.4883957  47.5103264  83.4799576  77.1495514  47.2935524  82.8080368
  31.2434902  20.5243912  75.8883057  30.9069710  20.1128311  76.6843033
  30.5150948  21.0559502  75.5671844  64.8471069  60.7291794  16.9483414
  65.1429672  61.6258392  17.1055126  63.8974571  60.8033714  16.8540573
  84.9826813  25.3433361  23.5768242  84.8241501  26.1540260  23.0932121
  84.7155228  25.5434608  24.4739342  21.1868114  22.2162266  51.0469818
  21.5239658  22.1240463  50.1558800  20.5083790  21.5446224  51.1170464
  50.2266502  22.5029335   5.8516202  50.6303062  22.3774796   6.7104321
  49.9063148  21.6343498   5.6083522  69.4730835  45.1438560  66.7106476
  68.6555557  44.9489441  66.2525177  69.3861160  46.0591736  66.9768448
  76.4587479  68.7268143   6.7523494  77.3637543  68.5118790   6.5265427
  75.9536514  68.4809341   5.9773283  10.1604490  35.0796318  68.8669662
  10.2585239  34.7672729  67.9674988  11.0283546  34.9685135  69.2550735
  16.3911400  39.7717819  84.9556122  16.5802078  40.0689850  85.8456421
  16.4127140  40.5695229  84.4270554  76.8700027   5.0759792  46.1811981
  76.0167618   5.0560441  46.6145821  77.0393219   4.1643214  45.9436226
  28.5083351  43.0994186  87.4136505  27.7241840  42.6020508  87.6459503
  28.7332649  43.5783081  88.2113342  73.8296814  27.3424530  67.6500092
  74.2166519  27.1616821  66.7933807  74.1061172  26.6076241  68.1975861
  47.7905273  54.9784393  52.3561249  47.4782448  54.3521385  53.0091591
  48.7188110  54.7706261  52.2496529  32.4445953  26.9693336  81.8224258
  32.6054001  27.7825508  81.3438263  31.7377892  26.5423050  81.3383789
  29.3097401  66.8453903  73.4368973  30.1192150  66.8111191  73.9466095
  28.9499607  67.7139511  73.6168823   4.4300714  14.6170855  79.2109146
   5.3672915  14.5846100  79.0190887   4.2450309  15.5466623  79.3446274
  79.5894699  35.4613075  73.4998093  79.4529877  34.6300850  73.9544220
  79.0681458  36.0933876  73.9947128  45.1826172   6.5690594  67.7045593
  45.9779549   7.1015120  67.6918869  44.7411575   6.7783098  66.8814163
  58.8742714  57.5127602  17.1504459  58.8325958  57.1545219  16.2637901
  59.8026237  57.6997643  17.2898216  10.9074802  16.3092251  70.4494171
  11.6440668  15.9636974  69.9451523  10.4144487  15.5331631  70.7156525
  16.1523590  35.0257492  68.8843689  16.4127197  34.1952477  68.4859848
  15.3256130  35.2480049  68.4561996  80.7005920  35.4370041  43.5218430
  81.0199356  35.6987495  44.3854065  81.2009735  35.9749489  42.9082718
  32.2615700  69.8857193  82.8793106  32.9008904  69.2896500  82.4891815
  32.7369537  70.3144379  83.5909576  65.2359314  36.8183975  61.1205711
  64.8270874  36.0148392  60.7990646  65.0676727  36.8123093  62.0628471
  25.1286507  70.2576828  18.7757568  24.3320656  69.7270355  18.7661076
  25.3111458  70.4325562  17.8525314  72.5639648  19.4937801  29.5678463
  73.1363678  19.7149315  30.3024769  72.4183655  20.3263626  29.1185799
  14.6457844  23.8683815  71.5594406  14.2046528  24.5100803  71.0027924
  15.0190563  24.3863564  72.2726059  68.0151672  33.1342049  24.7969551
  68.1179047  33.5332184  23.9329739  68.1962204  32.2051010  24.6547489
   5.9938874  44.4834404  29.0214653   5.6920176  43.8890572  29.7083511
   5.6591387  44.1015244  28.2101002  11.6408386  41.8735428  15.9771309
  11.7611074  42.6395493  16.5383816  10.6917934  41.7585373  15.9289799
  55.2710533  24.4319439   6.8699508  54.8828087  23.8997822   7.5644317
  55.5485611  23.7976742   6.2089486  31.2711716   8.0620403   9.8488350
  30.5644817   7.4487596   9.6470728  30.9230022   8.6041822  10.5567141
   5.1148868  45.8159180  68.6862030   5.8068280  45.1545639  68.6785507
   4.3140521  45.3226433  68.8638992  55.8821716   5.3974185  69.4544449
  56.7819824   5.6706533  69.2757874  55.7349892   5.6406641  70.3684464
  44.9554138   9.6089516  29.0199623  44.6921043   8.8749084  29.5750122
  44.1658020  10.1440659  28.9400082  73.1114426  51.9685440  31.7561836
  74.0169907  51.8456497  31.4713955  72.6873627  51.1298256  31.5746918
  73.9526291  32.5431137   6.0652118  73.7356796  33.4700928   5.9658647
  73.5187378  32.2812729   6.8772497  53.1759186   7.6120524  26.2227306
  52.7289429   6.8728323  26.6350384  52.6529808   7.8042531  25.4443798
  66.4217682  47.9056206  81.3973618  65.9195099  47.6890602  82.1828995
  67.0062408  47.1578407  81.2730560  62.3365860   1.5997814   5.8969693
  63.2913094   1.5763817   5.8322453  62.1296425   0.9914811   6.6064601
  34.4977341  60.1945190  23.2640705  34.7773743  60.6191673  24.0750618
  35.0041389  59.3828888  23.2317467   6.4525690  59.8318710  18.1282597
   6.6821074  60.3393860  17.3498173   5.6946816  59.3121452  17.8604527
  42.5374985   2.5053420  19.3460350  42.1568985   2.8943543  18.5586052
  42.6009979   1.5716048  19.1452007  61.3155060   4.5789795  47.3250275
  61.5704155   4.9291124  46.4714088  60.6729622   5.2051711  47.6585732
  74.5503540  65.0671921  53.9473076  74.7370148  65.2423935  53.0249748
  73.7380371  65.5425110  54.1217690  35.1920586  31.2356968   8.9108639
  35.4905090  30.5919399   9.5533104  35.4953537  30.8933048   8.0700235
  73.8252029  53.5643539  39.6819725  74.4620132  53.2039909  40.2990990
  73.1580200  52.8827858  39.6009483  23.7999439  36.3134651  22.2822094
  23.7902889  36.4534569  23.2290688  24.2806072  35.4938774  22.1661568
  65.8236771  12.9647179  39.8451118  65.0026398  13.4458828  39.7420959
  65.6211395  12.2788610  40.4813576  38.5374947  33.9887085  79.7851944
  37.7081871  33.8714714  80.2485886  39.0745583  33.2470284  80.0639572
  41.4306374  52.9231987  87.0362396  40.9512596  52.6382828  87.8142242
  41.9238586  53.6904869  87.3264694  81.0401764  22.6802425  13.2647839
  81.4809265  22.8818760  12.4393644  81.5247192  23.1784801  13.9229727
  60.5326042   3.2136319  51.2566719  60.6549187   4.0968060  50.9084320
  60.3252945   2.6802113  50.4893951  33.3491592  11.7306070   5.2163224
  33.9026222  12.2935200   5.7576528  32.4551277  12.0008640   5.4258456
  38.5519066  58.5951920  33.1291008  39.0361595  59.3152771  33.5330925
  38.9763947  57.8045235  33.4620972  66.0606689  53.8209114  85.9084549
  66.5561142  53.4956322  85.1568146  65.2267456  54.1105614  85.5384445
  82.4957199   9.9035559  45.5218468  82.7529221   8.9857082  45.6092262
  81.9842072  10.0850611  46.3102837  11.1307697  36.3081436  62.2150230
  10.4521904  35.6475372  62.0758820  11.7959375  35.8615952  62.7388344
  28.5929756  39.8143044  22.1547184  28.3187237  40.0119514  23.0502357
  27.9248505  39.2122879  21.8269653  54.7518539  69.0746155  68.4181824
  54.0720406  68.4010849  68.3970108  54.4110260  69.7402344  69.0156860
  10.5846071  40.5084343  79.0837631  10.8575315  39.7483749  79.5976257
  10.5446024  41.2243881  79.7178345  11.0952539  20.3476982  63.8617287
  10.5775757  20.5043411  63.0719795  11.0335760  21.1658516  64.3547287
  29.9758968   4.4503226  17.3991947  29.1623802   4.9546309  17.3894424
  29.7750797   3.6620173  16.8947372  28.0914478  43.5792961  10.0404100
  28.7290592  44.2704468  10.2192726  27.6686783  43.8486366   9.2249632
  62.1653137  25.0030479   6.8988643  62.6441154  25.1509228   7.7144098
  62.8335457  25.0570469   6.2156472  71.1774521  27.8033676  36.5418510
  72.0340958  28.0437851  36.1888657  71.3568115  27.5327950  37.4423256
  56.7343445  23.0102520  76.1646194  57.0439644  22.9240646  77.0662460
  55.9047089  23.4816456  76.2403030   4.9155889  66.2172470  15.8988943
   4.2937317  65.8743591  16.5407314   5.4902501  65.4771957  15.7031202
  71.3223724  15.1386099  17.9771442  70.7835693  15.8683233  18.2828255
  71.6818619  14.7548180  18.7769604  64.7847443  64.6650543  22.7880192
  65.0071869  64.0244293  23.4635601  63.9007072  64.9542618  23.0140018
   1.3244958  25.0528641   9.2008619   0.6383913  24.4824314   9.5474138
   1.2777400  25.8403606   9.7429838  20.2004910   8.9011230  29.1594563
  19.3849258   9.3800659  29.3067665  19.9635162   8.2086515  28.5425625
  66.7846375  35.1678963   1.8604139  67.0928802  36.0517349   1.6602888
  65.9781799  35.0749207   1.3532523  35.7376022  40.5345802  86.1799164
  36.0559692  40.0837250  86.9619675  36.0027275  39.9703598  85.4535599
   9.0660973   7.2844238  32.1561279   8.5206156   7.2916641  31.3696003
   8.6110897   6.6951437  32.7577515  76.5658951  31.9702892  29.8435326
  77.1712341  32.5036354  30.3586445  76.9904175  31.8828812  28.9900856
  49.3064995  53.2073555   9.0259123  48.7253838  53.0614929   8.2794142
  48.7654495  53.6737366   9.6630821  58.2060776   7.0302520  18.4969482
  58.6587448   7.3290114  19.2856617  58.8228111   6.4283500  18.0803089
  21.5091324  56.4720154  25.2451534  22.2664261  56.4646606  25.8305454
  21.3202953  55.5471916  25.0861855  56.7855453  32.9879913  32.2234993
  56.2666168  32.4263000  32.7992172  56.1504402  33.5974808  31.8474674
  55.2096443  45.5313950  23.8752937  55.7671051  46.1230850  23.3699474
  54.5501251  45.2311592  23.2498951  23.6787853  44.8006630  72.6728821
  24.5218925  44.4267159  72.4168243  23.6949596  44.7948647  73.6299286
  16.2414246  27.4511566   3.1894886  16.1757412  27.0107384   2.3421702
  16.3499832  28.3766460   2.9705942   7.1214705   4.6634622  87.0286255
   6.9463162   4.2127433  86.2025452   6.6196256   4.1733971  87.6799469
  34.8962593  68.3288651  62.5865288  35.0936165  67.8669281  63.4013252
  34.3895874  69.0931244  62.8611641  21.1533604  14.8531961  81.5370178
  20.5513687  15.2694054  82.1539536  21.1165695  13.9224453  81.7574310
  49.3763351  27.4011898  78.5276489  49.9210777  27.9643860  79.0774612
  49.0243034  27.9880085  77.8583527  64.3642044  47.7446899  48.2751808
  63.7653732  47.0091858  48.1460762  64.6181259  48.0050812  47.3897667
  54.6890602  57.9211273  51.1202164  55.0563965  58.5204506  50.4705200
  55.4420280  57.4246941  51.4408798  56.4062920   4.1169672  66.1295090
  56.9918251   4.7736616  66.5065155  56.9235039   3.3115766  66.1210022
   9.5698061  11.9823694   2.5482497  10.1437931  11.5348949   3.1699717
   8.9277697  12.4331732   3.0966988  48.9749680  48.9175034  78.1531372
  49.9097023  48.7134705  78.1827393  48.9220734  49.7245445  77.6411667
  25.3379612  61.6800156  71.4402771  25.2537346  62.3894272  72.0773621
  25.6228580  60.9264526  71.9571991  55.8688583  43.3515396  32.1776390
  55.2035217  43.4631157  31.4985867  56.2569695  44.2207718  32.2778091
  80.5041885  50.6852074  75.4184647  80.6898880  51.6238441  75.4451065
  81.1287003  50.2999611  76.0331192  15.8753529  22.3098431  10.3095379
  15.9127617  23.2128563  10.6248178  16.1077423  22.3698540   9.3829174
   2.0618517  11.0557356   5.8552508   1.9660372  10.7118273   4.9671187
   2.9987276  11.2303648   5.9446945  37.0263138  57.3793144  83.7919388
  36.2461128  57.2210464  83.2604599  37.7386665  56.9724388  83.2987518
  56.3892326  50.7977448   2.9630108  56.4302979  50.6800385   2.0139637
  56.4558868  49.9110832   3.3174353   1.2807245   0.8005372  40.6795998
   2.0477786   0.2413970  40.8029785   1.3572683   1.1169443  39.7794571
  80.7135696  17.5933800  58.6191559  80.3506699  16.7427197  58.8659592
  81.2992783  17.8223820  59.3407745  61.9610558  56.2010078  67.7989502
  62.3994675  56.5070610  68.5928955  61.0514717  56.0656776  68.0646133
  10.9995346  33.8155746  47.1903114  10.1465845  33.9619217  47.5993271
  11.6324921  34.1182709  47.8414459  60.6275482   0.8194937  88.5489807
  60.4766388   1.2024317  89.4131699  60.4607048   1.5362848  87.9369354
  69.1081314  14.9460182  43.7837982  69.8093262  14.4121675  44.1573792
  68.3218002  14.4083405  43.8776817  22.2554493   7.5377021  11.0136871
  22.6873302   6.8888907  10.4580307  22.4496326   7.2549815  11.9073277
  34.3510666  27.4603081   1.8831106  34.6422844  27.4199696   2.7940433
  35.1134872  27.1825047   1.3753949  83.0820618  39.8162613   4.7064018
  82.4806061  39.4855843   4.0392160  83.8544769  40.0959396   4.2150912
  58.1949387  67.8998489  27.5938034  58.4863586  68.8049164  27.7040386
  57.7388115  67.8959045  26.7522774  34.9202347  16.1471691  85.7929077
  34.8436394  16.9966354  85.3584290  34.4654922  15.5384970  85.2107010
  72.0900040   7.4749498  23.2158928  71.2228622   7.8483443  23.3736229
  71.9215698   6.6900063  22.6946182  54.4343948  34.5557060  14.2061777
  54.3193436  34.7825966  13.2834015  53.6725044  34.0159340  14.4168968
   7.6985321   6.9410896  29.8981953   7.2414989   7.3363338  29.1558113
   7.5255108   6.0034018  29.8143063  15.4527845  10.9987059  31.4592590
  14.5639563  11.2648478  31.6945972  15.9240074  10.9745817  32.2920837
  68.6670837  55.4429321  11.7776146  68.6290741  55.1936722  10.8542213
  68.1080093  56.2173958  11.8398485  25.9601440   7.3292122  16.0049725
  26.0692329   6.6880631  15.3026476  25.5270996   6.8438644  16.7072124
  74.2191086  37.7592430  21.6413116  74.3809891  38.6926117  21.5040188
  73.5237350  37.7308884  22.2984886  55.9467735  25.1383533  57.6350899
  56.8522606  24.8284264  57.6186485  55.9723244  25.9771557  57.1746674
  62.0445900  33.3727951  81.8595581  62.7520828  33.8287659  81.4037323
  61.2509727  33.8394051  81.5974960  59.1457024  32.2105331  55.9781952
  59.1916656  32.8581734  55.2748566  59.4397545  31.3949909  55.5724144
  76.8555908   2.6224947  41.2607956  76.2582855   2.1926708  40.6486588
  77.4244919   1.9192877  41.5739746  37.0029335  66.8968887  83.5710983
  36.3899307  66.5716476  82.9117966  36.8450394  66.3456650  84.3375549
  13.3406515  28.9485741  64.2015457  12.7243366  29.6039543  63.8746452
  13.6846571  28.5289402  63.4130058   6.0762873  70.9699936  64.5342407
   6.5958524  70.2406921  64.1960144   6.6583676  71.7274094  64.4730606
  43.4218216  40.9110031  31.3619766  43.8116226  41.5848236  30.8049736
  42.7565117  41.3754349  31.8698120  63.1796989  22.0234890  80.0683670
  63.6521606  22.5984058  79.4663086  63.6743546  22.0747128  80.8862457
  51.5959435  68.6543350  70.5935364  52.5162277  68.9167175  70.6151581
  51.1231613  69.4100876  70.9421768  15.7291746  41.9472160  65.3083420
  15.2355423  41.8252525  64.4973602  15.5628834  41.1504593  65.8120804
  43.3845291  19.5986958  71.4694443  43.3816490  19.4570827  72.4161072
  42.4674492  19.5074902  71.2108383  11.5180559  14.3334379  17.1024323
  11.5177689  14.8840532  17.8854103  12.4394379  14.1138105  16.9644127
  27.5243683  61.4166374  87.7970810  28.2909126  61.1338234  88.2957382
  27.6886883  61.1040154  86.9074173  11.3364725  66.3204041  23.9276218
  11.1890831  66.5140305  24.8533726  12.2669897  66.4983826  23.7908974
  42.3849068  70.2433929  41.2586403  42.4236374  69.8516922  40.3861122
  43.2088089  70.7233734  41.3424873   1.9529332  67.2175751  42.6822968
   1.2187799  67.0798111  43.2808571   2.5990458  67.6959381  43.2018547
  23.6026287  42.7022629  75.1196671  24.1499901  43.2502251  75.6821289
  22.7407589  42.7176437  75.5358124  39.8599205  71.1385193  85.3553009
  39.7291870  71.6363754  84.5482788  40.4694786  70.4421005  85.1110077
  43.4491615   6.1082940  14.2721262  42.8349609   5.4652743  13.9178438
  44.0117378   5.6037626  14.8596535  45.5921516   2.6866262  52.3615303
  46.2731094   3.0830624  51.8180580  44.7904739   2.7798471  51.8468895
  46.8025169  62.5929565  76.9932632  46.6320839  63.4814453  77.3059464
  45.9855232  62.1212196  77.1551819  67.3430252  14.6998186  68.3289948
  66.5923462  14.5922728  67.7449112  67.9289322  13.9779158  68.1014099
  34.4387970  10.9520798  36.2380943  33.9356689  10.3430433  35.6975708
  35.3221588  10.5838108  36.2549400  56.7008324   8.5782404  58.3446960
  57.3741913   8.6338034  59.0227318  56.3202362   7.7070322  58.4559364
  76.5632172   7.6737480  24.2326870  76.0684738   8.4896526  24.3085499
  75.9451447   7.0539947  23.8452339  66.8819046  41.3781509  12.7349844
  66.8930206  41.1936378  13.6741667  66.2122345  40.7914276  12.3835306
  46.8782768  42.8443680  75.4312744  47.2170372  42.0667419  74.9876862
  46.0421410  42.5630531  75.8027115  40.3626900  44.8536148  83.4850616
  40.4382553  44.7817955  82.5335541  40.9285355  45.5905190  83.7153244
   1.6084008  48.9618607  22.1654453   1.9428660  49.8389854  22.3525848
   0.6898434  49.1000481  21.9343853  51.9187126  62.3304787  40.4163017
  52.0970459  63.2671089  40.5008812  51.1862106  62.2806358  39.8021431
  18.8122807  30.5727367  72.6077347  18.2594662  29.9608440  72.1217117
  19.6850281  30.1805611  72.5804977  76.3626404  33.5834465   5.7177429
  75.4803925  33.2162819   5.6623859  76.2529144  34.3974037   6.2093358
  72.6020813  39.4153442  80.5655441  71.8710785  39.8735275  80.1508942
  73.3048859  39.4489479  79.9165802  63.3904228  70.7841644  64.6282730
  62.8936806  70.0694656  64.2299347  62.7509689  71.2482071  65.1686401
  29.5098648  50.8838959  38.7225761  30.2117405  50.2961006  38.4431114
  28.7335396  50.5661507  38.2615013  76.4217529  38.6604881   6.8180127
  76.3561325  37.8035202   6.3966670  75.6575775  38.7039146   7.3928094
   5.6859331  70.8901291  44.6755104   6.3555532  71.1775894  45.2961617
   5.5142117  71.6608276  44.1344376  57.4323540  53.8211403  59.8290024
  57.1224594  53.4193268  60.6406326  58.1703262  53.2750931  59.5579720
  40.3203163  42.1995850   5.6336646  39.6149712  41.7741661   5.1460781
  41.0167999  42.3228989   4.9887319  53.5637245   3.6240680  41.9291687
  52.6268311   3.6568809  41.7358208  53.7415085   2.6985018  42.0963554
  68.8708649  56.3716316  53.4652939  68.1195374  55.9608383  53.0375214
  69.5823212  55.7403488  53.3578758  62.9483757  47.7089729  53.7176819
  63.7892952  47.8656273  53.2880974  63.1107597  46.9652939  54.2980347
  23.0466976  59.9570312  16.2306881  23.1280270  59.2273903  15.6164894
  23.3101692  59.5901909  17.0746326  69.7518692  25.7631817  15.3690157
  69.4595337  25.3512287  16.1820774  69.6007919  26.6983261  15.5065327
  76.2355728   8.9979286  64.3047714  76.6253357   8.9985237  63.4305229
  76.7690048   9.6153479  64.8052444   4.9420309   9.9346151  37.7270203
   5.3340373  10.6820421  38.1785927   4.0736437  10.2411070  37.4658699
   1.2883527  17.9790325  55.9549026   1.5414565  17.6883717  55.0787239
   0.4545123  17.5395012  56.1214981  79.0181046  30.5313969  48.5938225
  79.2388611  29.6444645  48.3094902  78.0619202  30.5379086  48.6374245
  25.5387421  51.3302002  77.6631851  26.2623444  50.9314270  78.1465149
  25.9639626  51.8499451  76.9810638   5.9152856  48.3740768  12.4579735
   5.7410364  48.5699997  11.5373859   5.3808498  49.0035210  12.9421320
  34.2771072  68.7974930  81.0450363  34.6620560  67.9702988  81.3345032
  34.9538994  69.1988678  80.4999847  37.1555710  18.4776535  80.2942200
  36.3812447  18.8974686  79.9195175  37.4366646  19.0713978  80.9904175
  77.3414612   1.4577307  64.1368332  76.5108871   1.1544368  64.5034332
  77.1422958   1.6520022  63.2209587  79.7377625  30.2070274  43.8123894
  80.0758972  31.1016426  43.8518791  78.8123703  30.3103199  43.5905418
   8.4423466   2.1798887  44.9255905   8.8377514   1.5249097  44.3503609
   7.8300309   1.6834116  45.4685555  14.8895636  63.0552902  65.1500931
  14.5651188  63.8965874  64.8288651  15.8281593  63.0733757  64.9631653
  83.7709732  27.9762154  17.5494766  82.8186493  27.9790974  17.4530659
  83.9370499  27.3669224  18.2687931  45.8454628  17.8530083  55.7740746
  45.3872681  18.3730526  55.1138878  45.8057060  18.3855686  56.5684471
  11.3920794  29.3151302  79.8707047  10.7756672  29.3161469  79.1383972
  12.2552824  29.3259907  79.4571838  31.9645653   3.8946655  60.1316490
  31.4687767   3.1718316  60.5162735  31.8903198   3.7600398  59.1868744
  63.0250282  49.9681702  84.6316223  63.1753426  50.6385689  83.9651337
  63.2799110  49.1483116  84.2084198  81.0535812  18.6059875  50.4262466
  81.8628387  18.6000195  49.9150810  81.3028107  18.2371426  51.2736359
  72.4259949  64.3013000  50.0966454  72.7441635  63.3985367  50.1004753
  72.1357269  64.4491348  49.1965752   2.6390462  15.5113697  35.2982635
   2.0924046  15.6728258  34.5292702   3.5363619  15.6018457  34.9775276
  85.4785004  13.6995831  87.3272705  85.4816437  12.7730236  87.0870438
  85.5876770  14.1627226  86.4967194  77.3331223  65.7362213  50.3890343
  78.2698669  65.8965988  50.5031052  76.9129944  66.2964935  51.0415840
  81.8798141  19.0642109   3.9174266  81.3767319  19.2444973   4.7115536
  81.2482910  19.1665535   3.2054281  73.7351837  70.1636047  57.3684731
  74.1759644  69.3170853  57.2952843  72.8429108  69.9960480  57.0651474
  19.6240406   9.3044224  25.9006138  19.8707008   8.5024815  26.3613510
  20.4553585   9.6777124  25.6076984  41.6417770  24.1217422  72.7049789
  41.1144791  24.5231266  72.0142746  42.0977783  23.4012203  72.2700729
  28.2083130  44.5545082  74.5046997  27.2899323  44.5098877  74.7708206
  28.3335972  43.7868309  73.9468460  46.8800087  33.6954269   8.4828157
  46.6420975  34.5187721   8.0565147  46.0518379  33.3504639   8.8165379
  65.8174362  22.5605068  41.9842300  66.3985443  22.4738884  41.2285614
  66.2863007  22.1277924  42.6977806  76.2119751  25.6622467  35.1723289
  76.1876984  24.9591045  34.5233040  75.4927750  25.4606056  35.7709312
  63.7588348  31.4431610  72.8407364  63.5878487  32.0874519  72.1537933
  64.0875702  30.6756001  72.3727417  72.9235840  29.7511482  37.9611015
  73.7093887  29.9007473  37.4354019  73.2555542  29.4637432  38.8116455
   7.1679482  58.7962036   9.8409119   7.9724841  58.3756294   9.5374823
   7.4439888  59.3338318  10.5831995  86.3014832  16.5979061  40.1128235
  86.5161591  16.3517323  39.2130737  87.0196075  17.1705494  40.3822899
  71.3530273  48.2745094  66.8764343  71.9119339  49.0487175  66.9432526
  71.4586563  47.8295670  67.7173309  46.1104622  19.6448727  57.6551552
  45.2684059  19.6711063  58.1095543  46.5823479  20.4113541  57.9808235
  78.0781708  13.7371864  84.6071091  78.7613907  14.1709385  85.1182785
  77.2771988  14.2140608  84.8245239  57.0733261  35.3235435  57.7309685
  56.4796181  35.5825615  57.0262337  56.4997978  34.9613953  58.4063530
   4.7242799  54.7312737  23.4227886   4.1365428  54.0528908  23.7553463
   5.0885735  54.3597527  22.6193619  13.6643906  27.9011040  24.1443024
  13.2749500  28.1449776  24.9840012  12.9640007  27.4433460  23.6793900
  61.0950165  48.5045128  18.2737617  61.1711388  48.8067322  17.3687191
  61.9793625  48.2222519  18.5072021  77.6026001  57.3274307  12.8145208
  77.0421448  56.5515480  12.8258963  78.4626083  57.0056572  13.0848618
  73.8030701  43.9844856  41.8305473  73.6724319  44.3570251  40.9585495
  74.7483597  43.8477020  41.8934097  50.6762085  39.1976318  77.7030945
  50.3068924  40.0802917  77.7304840  50.1170616  38.6858063  78.2875748
  70.2759781   0.5573183  42.4885178  70.5764771   1.4602658  42.5915527
  69.8657684   0.5385977  41.6238708  32.0814285  36.5595284  28.6512547
  32.2956543  37.4720192  28.8454113  32.8727379  36.0732460  28.8827553
  13.3847809  71.0487747  53.7114372  14.2027502  71.5217896  53.5584297
  13.2608156  71.0852661  54.6598778  84.4986038  22.6842327  87.6266479
  84.0506134  23.3288269  87.0788956  84.5673141  23.1047020  88.4838104
  23.8412151   7.2818589  82.7471695  23.7440052   7.3362293  81.7964706
  22.9441528   7.2954583  83.0808182  81.9074249  55.8936806  41.2907906
  81.5547562  56.5262489  41.9166565  82.2452927  56.4295807  40.5732269
  48.7642365  46.0780525  69.0339127  48.8339195  47.0321579  69.0664520
  47.8225555  45.9064331  69.0370560  18.3218517   8.4859705  46.6977196
  18.8620796   9.1687469  47.0954628  18.2050629   7.8379087  47.3924217
  60.0727081  37.6792221  50.6056328  59.3922043  37.3297729  51.1809883
  59.7291374  37.5490532  49.7217484  59.8525925  23.6767750  87.5774536
  59.1748276  24.2641068  87.9119797  60.6173515  24.2390957  87.4542847
   9.7109222  63.1109238  70.1511383  10.4351959  62.5085831  70.3209839
  10.0501986  63.9701691  70.4017715  11.6334887  58.6798286  22.3164635
  11.1988268  58.1525307  21.6461983  11.4763212  58.2060089  23.1331825
   7.7355084  65.2004166  68.3641815   8.4643650  65.3400879  68.9687424
   7.3336315  66.0640411  68.2699509  26.2803707  53.0045776  75.3946228
  25.7685471  52.9567795  74.5871735  26.8266354  53.7830811  75.2862091
  10.9308453  53.0725784  24.6048241  11.0330315  52.3418121  23.9950924
   9.9842625  53.1978607  24.6720352  18.5211601  51.5845528   7.6965661
  19.4712048  51.4749985   7.6559863  18.3249664  52.2280769   7.0156727
  80.3837509  39.0236320  44.1197968  80.3746185  38.1524315  44.5162239
  81.0745621  38.9787369  43.4587364   5.7691412  19.2230034  84.3191071
   6.3408351  18.5413074  83.9659958   5.8003154  19.9231606  83.6671524
  76.6023941  61.7557983  74.4797745  75.8699417  61.3475075  74.0182037
  76.2510910  61.9706726  75.3438644  55.9536057  52.4017296  23.6821690
  56.4220505  52.4286575  22.8478622  56.6253929  52.5813332  24.3399506
  78.8817673  27.6732559  18.4315739  79.1732712  27.8709354  17.5415287
  78.4057388  26.8468609  18.3497086  57.1370506  21.4985981  58.2309227
  56.2563782  21.8451042  58.0874634  57.6888390  22.2757912  58.3188705
  33.8222275  70.7463303  70.5981750  33.3723679  70.9108200  71.4269104
  33.1255264  70.4886093  69.9944992  40.0084496  66.9806824  60.6759033
  40.5742188  66.2090530  60.6489487  39.3141594  66.7907791  60.0449295
  28.1457500  66.2211914  12.7382174  28.8946857  66.1736679  12.1440220
  27.6715183  67.0059814  12.4635506  36.0766373  52.1686821   5.4574151
  35.2924843  51.6371002   5.3204670  36.3227806  52.4628029   4.5804100
  55.5007172  47.5273476  50.5416832  56.0052147  46.7349014  50.3579979
  55.7772484  48.1488075  49.8682251  27.7486534   7.6429706   4.4605789
  27.6335735   6.8333111   4.9580116  28.3214931   7.3982062   3.7338209
  59.3640747  34.3576393  22.3284512  60.1850166  34.8249893  22.4829502
  59.4567146  33.5417404  22.8203487  84.2203064  54.9287071  85.2116852
  83.4481659  55.2484055  84.7449722  84.5507736  54.2144089  84.6668930
  74.5814514  59.8891640  51.3222771  74.5162735  59.2374153  52.0202827
  75.0532837  60.6204872  51.7207451  14.0435963  52.3399544  82.3365402
  14.4491863  51.9778404  83.1243286  13.4641867  51.6449356  82.0243530
  48.2072182  68.3969727  27.4574223  47.3764801  67.9492722  27.6176662
  48.0542374  69.2964859  27.7467461  62.2829323  64.6425629  50.0012779
  63.1654282  64.4599457  50.3238983  61.7351189  64.6373672  50.7862053
  17.1234760  15.5919142  67.8514557  16.6126766  15.5151415  67.0455856
  16.8840752  14.8180513  68.3614120  39.2635727  23.5722427  87.1778564
  38.6874924  24.2892666  87.4428787  40.0517006  24.0063915  86.8513565
  74.7577820  51.2683411  70.6528854  74.6428223  52.1333389  70.2594452
  75.0823898  50.7211533  69.9377365  42.5947189  51.9832764  71.1534576
  42.4853668  52.1385689  70.2152863  43.0836029  52.7442207  71.4667969
   3.2310495   5.4139695  12.4075432   2.4110754   5.5665855  11.9378815
   3.9063075   5.7779894  11.8350506  76.8120575  11.5858364  55.8423538
  76.9402390  12.3807783  55.3247948  77.4683609  10.9742498  55.5085030
  47.7670364  54.5754890  10.5226355  46.8142433  54.5133743  10.5901976
  47.9622688  55.4906807  10.7239780   7.8725948  20.8912964  85.8835068
   6.9278526  20.7855034  85.7716904   7.9674382  21.3042717  86.7418060
  55.8255653  66.7093811  11.0930395  55.2755280  66.5905838  10.3187141
  55.2066956  66.7537842  11.8219156   5.9637785  39.3776855  87.2106857
   5.2524652  39.7274666  86.6741028   6.6971445  39.2815437  86.6030960
   0.3896534  59.1750793  52.8227882   0.0060442  60.0450401  52.9334641
  -0.3159682  58.6481133  52.4477768  40.0052528  53.3732948  19.9708233
  40.5895767  52.7172394  19.5908356  39.9226723  53.1171532  20.8894100
  82.4886246  21.0918045  31.5725727  82.6650391  20.3730183  30.9655647
  82.8941269  21.8560867  31.1630917  60.1639328  67.1120148   2.2028692
  60.7080002  67.7594070   1.7544224  60.7902718  66.5136642   2.6101909
  47.4147797   3.1579583  74.3506012  48.1115799   3.5900161  74.8445892
  47.5569801   3.4334183  73.4449844   6.4748712  34.1202049  38.7684975
   5.6760092  34.2753830  39.2724533   6.2676826  34.4344025  37.8883934
  53.0191689  67.7016525  62.4159889  52.7014427  68.0643005  63.2428894
  52.9918480  68.4381638  61.8052254  85.3367691  57.6672935  46.9931679
  84.5986176  58.2720909  46.9184570  85.1974258  57.2213593  47.8286057
  64.6249466  22.9666748  28.6510487  65.2955093  23.6463757  28.5833263
  64.7801743  22.5612354  29.5041351  60.7000580  55.7782211  55.8863678
  59.9849777  55.9082184  56.5092621  60.2935524  55.3287468  55.1454506
  12.5982456  70.8793030  35.9704399  12.9482832  71.2674332  35.1685257
  13.3247900  70.3672485  36.3256340  50.9294662  19.1039734   9.8453798
  51.8015785  19.4881592   9.9351311  50.3441124  19.8563175   9.7583694
  44.9825020   3.6134813  38.8126488  45.2143440   2.8412020  38.2968330
  44.5167961   3.2633059  39.5720749  74.2438660  21.7120972  11.0688858
  74.5449448  22.2225113  10.3171797  73.7087402  21.0163136  10.6871004
  60.7399559   9.0575981  80.0952454  60.3994064   9.9196301  79.8561707
  61.3742027   8.8517504  79.4085159  56.7209854  14.0922127  74.8581314
  56.2862778  14.6082973  75.5370407  56.6885147  13.1925983  75.1835098
  63.1648407  52.0839195   9.3344107  63.7539711  51.4454880   9.7363605
  63.6138573  52.9228477   9.4384222  13.4453135  62.9426994   2.9260714
  14.0482492  63.6583252   3.1275196  12.5851412  63.3600693   2.8798397
  13.8177023  58.9296379  30.3024902  14.5890760  58.7130966  29.7787304
  13.1038389  58.4434586  29.8898640  71.2684860  66.5159073  87.0323639
  71.0742722  65.5830002  86.9418869  70.4103928  66.9326324  87.1114120
  27.8501472  30.0770683   7.2431588  27.7010498  31.0112705   7.3889947
  27.0786381  29.7842464   6.7581224  41.2985649  51.9172096   9.4580393
  41.8216286  51.9291039   8.6564837  40.6015244  51.2858543   9.2798300
  55.2447968  67.6135483  88.1724396  54.8814163  67.9227600  87.3426361
  54.5497169  67.7704391  88.8115692  74.2937393  21.7244663   0.5619100
  74.6268158  21.9897289  -0.2953702  73.6364975  22.3857574   0.7786041
  77.9323959  26.7040081  26.1607075  77.1557770  27.1374931  26.5145264
  77.5890045  25.9459972  25.6877041  77.8429642  36.0927544   3.4974260
  77.8153381  35.2538376   3.0373335  78.7758102  36.2655907   3.6245525
  60.7884636  51.7920914  29.8460617  59.9880257  51.3077278  30.0483513
  61.4968681  51.1914520  30.0776310  54.2150040  34.9367485  22.1063614
  53.7238312  35.3839378  21.4171543  55.1047020  35.2811165  22.0283909
  61.2641869  46.0939827   7.8915200  61.5394325  45.1925316   8.0584307
  62.0701714  46.5493240   7.6480422  38.6351776  56.0674858  81.7641373
  38.4168663  56.5083122  80.9430161  38.2943535  55.1794357  81.6571960
  12.7119980   9.3018379  27.7246933  12.5725355   9.1180801  28.6536808
  13.6519136   9.1763134  27.5941811  59.1664810  45.9540749   6.0189905
  59.6372490  46.1701775   6.8239183  59.8251152  46.0299950   5.3285789
  73.0267792  62.5974960  18.3211803  73.5084534  63.2413902  17.8019390
  73.6391068  61.8695831  18.4280853  77.5563507  46.1835365  26.0204983
  77.1453247  45.3622322  25.7507820  77.2193756  46.8337364  25.4041233
  37.2888336  19.7937927  15.2333612  37.0529366  20.6961536  15.4486036
  36.8082008  19.2626343  15.8682594  71.1936111  50.9502983  27.7914753
  71.9884720  50.6264114  27.3677750  70.5115280  50.8535652  27.1269169
  72.6414032  69.3250046  47.1730461  72.1366348  68.6602707  46.7044563
  73.4485779  69.4141541  46.6663322  51.7135811  22.8669033  34.2371902
  51.0838852  23.5788593  34.1239128  52.1676369  23.0763474  35.0533981
  16.0497341  46.3105392  25.3371983  16.2898960  45.5041924  24.8807354
  16.8294029  46.5411148  25.8423519  86.5951614  40.3162842  86.0457916
  85.8872833  40.9545403  85.9576569  87.3937531  40.8439331  86.0540619
  21.9584465  57.7072678  33.2883301  21.3596897  58.3266296  32.8710632
  21.5543156  56.8511620  33.1469269  46.8359299  20.8034782   6.6725650
  46.4325752  21.1410580   5.8728309  47.6052933  20.3222370   6.3680592
   0.3979514  25.6094284  84.8971939   0.5801839  26.5169163  85.1410980
   0.6013946  25.5670719  83.9628220  22.3995419  25.9577942  13.3872652
  22.9099808  26.6440468  12.9574490  22.3190689  26.2518692  14.2946119
  54.7665977  18.8978271  13.4606533  54.2383995  19.3088455  14.1449804
  55.3436699  19.5961876  13.1516037  58.3134956  55.9663811  57.1995010
  57.6038895  55.5945930  57.7233963  57.8852196  56.6177635  56.6440620
  45.8315887  11.8158035  31.0899372  46.0344353  11.1910467  31.7861881
  46.5921631  11.7830601  30.5096893  65.7738800  51.2238541  24.2320995
  65.4691010  50.4676895  24.7336540  65.9233322  51.9030533  24.8898087
   5.9227929  42.3648033  21.1995125   6.6136670  41.7135506  21.3211460
   5.5026689  42.1173096  20.3758163  10.7980461  38.9384575  21.2785320
  11.3701162  39.5387115  21.7567196  10.8807116  39.2067490  20.3634262
  55.1911240  13.4107933   6.9949965  55.2028694  14.3493176   7.1827903
  54.3094902  13.2442865   6.6614809  18.0741081   2.0285139  20.5842934
  17.2803421   2.0465980  20.0496540  18.7642727   2.3404758  19.9989891
  84.1163254  71.0909729  35.5973854  84.9913406  70.7268753  35.4631729
  83.7514420  70.5779343  36.3184166  21.1049347  34.1504936   0.7214675
  20.8628349  34.3110466  -0.1905854  20.7127934  34.8776245   1.2049309
  31.7800884  64.3662567  70.6642532  32.2701530  64.2781754  69.8467560
  31.2995415  63.5424042  70.7453842  63.5960464  29.1102619  10.8681030
  64.2585144  28.4294739  10.7501945  62.7694702  28.6808853  10.6475630
  35.2217903   7.6814842  21.0315781  34.4332047   7.1407104  21.0754700
  35.5580788   7.6877751  21.9277382  73.8046112  35.6810799  48.5559883
  74.3038483  36.4114037  48.1904449  73.5042572  35.1897736  47.7913742
  85.2022018  49.1712875  84.1496658  85.6715469  48.3744698  84.3967133
  85.2921982  49.7473755  84.9087830   0.8368386  58.1383286   4.9501715
   0.1748013  57.8824348   5.5923996   0.3929202  58.7740326   4.3888760
  59.4501724  52.8626862  87.0272522  59.8122444  52.2069206  87.6231613
  60.1590195  53.0424271  86.4096298  72.5406342  30.3369656  51.2147408
  72.6286011  31.1704235  51.6771698  72.8048859  30.5327587  50.3158150
  68.8880081  68.7099075  20.2769814  68.0715256  68.2155838  20.3493710
  69.5241623  68.0747986  19.9480839  64.4926071  12.1358452  42.6158600
  64.7385864  11.2136602  42.5430603  64.4559555  12.3002901  43.5581169
   4.9914365  69.4156876   6.3844566   4.0863662  69.3002548   6.0950541
   5.3264508  70.1308975   5.8436494   6.1835389  63.4960670  69.4749222
   6.8590879  64.1082077  69.1831131   6.5335989  63.1202850  70.2826843
  72.7107391  37.2700233  29.5056324  73.2559738  38.0144997  29.2512569
  73.2969742  36.7045174  30.0083904  53.2370682  52.6584282  49.0100365
  53.5422020  51.8530579  48.5923004  53.7679787  53.3495636  48.6141815
  15.0998373  23.2991333  74.8969803  15.4742765  24.0509148  74.4377975
  14.1635876  23.4916573  74.9479980  85.9264221  39.4289017  29.9602852
  85.6039352  39.2256432  29.0822659  86.2186890  40.3386154  29.9034557
   1.4232584  33.6804199  88.1721344   0.7339233  33.1999168  87.7136993
   1.7733536  34.2821121  87.5151520  83.3772736  67.0385208  12.4007301
  83.0668259  66.4746933  11.6922464  82.8335876  66.8007431  13.1517925
  29.8259487   8.8786459  28.0114326  30.4990959   8.7313356  28.6758137
  29.0997829   8.3143816  28.2769928   2.8685892  65.6274261  24.5636864
   2.4734516  64.7864609  24.7936192   2.2983072  66.2793808  24.9710751
   7.8917308  60.7634621  50.9791603   7.8703513  59.8190956  51.1339035
   8.0186777  61.1456451  51.8475227  78.4047394  49.7780380   1.7273188
  77.7651520  49.1530991   2.0687983  79.1691208  49.6720390   2.2936382
  83.2494354   7.6041536  28.3616199  82.9550018   8.5144491  28.3315735
  83.6023941   7.4376149  27.4875965  70.1186676  59.5952492  35.8594551
  69.3655777  59.7499962  35.2892418  69.7839355  59.0201454  36.5475273
  62.8965034  20.7240963  63.0800285  63.3012085  20.5309315  63.9256821
  62.0596313  20.2600574  63.1034317  84.8317108  62.9436646  14.1447268
  85.2022629  63.6661034  13.6377735  85.5592041  62.6302605  14.6820965
  70.4848175  21.7636776  39.4936218  71.0342026  20.9835510  39.5698395
  70.1036224  21.7035275  38.6176605   6.7651258  28.4438686  33.2328720
   6.7999501  27.8832340  32.4578171   6.7240338  27.8330250  33.9686775
  85.0145798   4.6337996   2.9563413  84.4771576   5.4073071   2.7857671
  84.8514328   4.4269886   3.8765826  13.2758245  56.5483704  57.3171577
  13.4796057  56.2965393  58.2178726  13.9719934  57.1594429  57.0759735
  25.2577496  70.0398407   7.3031640  25.6989059  70.8302841   7.6143179
  24.7289276  69.7520142   8.0472984  33.0774536  20.1254673   3.2584689
  32.6421127  20.6404762   2.5791481  32.9577179  20.6356544   4.0594707
  83.4889069  15.5220432  70.4150391  84.0348892  14.7358265  70.4157181
  84.0393372  16.1962242  70.8134613  57.5270195  60.6624298  27.8456860
  56.5796852  60.7877960  27.7902813  57.8273163  60.7016144  26.9376545
  52.3231010  33.7835350  18.3851280  53.2591515  33.9216652  18.2403564
  52.2140083  32.8330040  18.3564720  50.9853020  49.9619598  47.0746574
  51.6367073  49.6820679  46.4315681  51.0779457  49.3395081  47.7959061
  84.6160889  67.4093628   8.4872799  84.8204651  67.4360199   9.4220257
  85.4035797  67.0483780   8.0801268  32.3159561  12.0877218   9.0923443
  31.7092495  12.0436172   8.3532972  32.9592705  11.4013748   8.9153996
  75.5321426  28.0327244  21.6734009  75.2168503  27.4075832  22.3261070
  74.9703979  27.8878365  20.9120331  13.3569021  27.9389725   1.7240266
  13.0493221  28.8300266   1.5577555  13.5380869  27.5819817   0.8545658
  44.8256187  68.3674774  72.5061493  45.1220589  68.6275101  71.6339493
  44.0506096  68.9059906  72.6661453  21.3014050  26.9334450   0.7084059
  20.8927155  27.2850838  -0.0825135  22.2022591  27.2553711   0.6759027
  55.6568909  63.5277519   9.5327482  56.3720932  63.6045456   8.9012280
  55.1273613  64.3125381   9.3915148   6.4388685  68.5896072   8.3576336
   5.9191728  68.9366531   7.6325760   7.3389897  68.5968399   8.0321169
   6.1061826  54.6287842  50.5256500   5.5950584  55.1818161  51.1165314
   7.0000420  54.6783638  50.8644562  35.9254837   5.5325480  64.9900742
  36.7385063   5.8919592  64.6350403  35.8852463   4.6418061  64.6419449
  69.7865677  10.7899008  15.4601498  68.8724670  10.6400146  15.7013922
  70.0595398  11.5291786  16.0034599  22.8485775  45.6239395  76.6587753
  22.3418293  45.2031364  75.9642563  22.9628048  44.9407883  77.3194504
  34.2283134   2.4301906  35.3600044  33.3415871   2.5357366  35.7046928
  34.3192787   3.1309369  34.7143173  37.7999535  68.8957977  11.2437954
  38.0815506  68.1884155  11.8239231  36.8954582  69.0721436  11.5026817
  75.4936447  48.0757561   7.4517927  75.0904388  48.6182404   6.7740254
  76.2001419  48.6174965   7.8033638   3.4473794  53.5485344  83.5276184
   2.7884068  53.8690681  82.9117889   4.2490516  54.0105972  83.2825623
  35.5815544  44.4994164  87.9346924  35.1808701  43.6792984  87.6464386
  34.8407860  45.0585442  88.1689453  57.7835388   3.7246354  85.1603775
  58.3766518   4.1410503  85.7857208  57.4010353   4.4532070  84.6713943
  33.7101707  38.4934502  80.5660324  33.2054214  37.9573631  79.9544144
  33.7812347  37.9549713  81.3542099  69.2265625   6.3182282  84.0490341
  68.4172821   6.6363635  84.4491501  69.9239349   6.7174902  84.5691223
  47.0515213  63.6162262  11.1201811  46.7629738  62.7942619  11.5168447
  47.0661469  64.2402191  11.8458862  61.4062462  57.6477547  54.1904106
  60.9669724  57.3602371  53.3900337  61.0408249  57.0905266  54.8775787
  46.4041634  45.1467896   1.9333123  46.6167259  45.8762436   1.3511211
  47.1152611  44.5198059   1.8011550   7.2517600  37.2697983  80.4664078
   7.4297962  38.2084236  80.5256958   7.9367390  36.9320717  79.8893661
   5.4474626   1.8302408   1.1786952   6.3798952   1.6798632   1.3342175
   5.3544483   2.7828994   1.1833706  81.0436249  32.5953598  43.5681763
  81.7363968  32.0885887  43.9918289  81.2837524  33.5083313  43.7264557
  85.7676315  25.9852009  61.6050758  85.8005676  25.0937500  61.2579994
  85.4982529  25.8772869  62.5172272  30.6569958  15.5424795  73.3765793
  31.3466206  14.8884859  73.2628098  31.0038643  16.1442223  74.0352249
  65.1716690  28.4933605  42.4041786  65.9530792  28.9545574  42.0993271
  65.4713974  27.6001472  42.5731926  50.3328819  15.1260357  17.5383205
  49.7847748  15.3906631  16.7995491  51.2269096  15.3141575  17.2527409
  57.9136467  63.2040634  68.7082825  57.0853500  63.0584755  69.1654053
  58.0571136  62.3992348  68.2103806  23.6427135  27.8080444   4.8120098
  23.0467148  28.5229912   4.5886955  23.3042355  27.0542793   4.3287902
  85.6250839  46.0948715  52.0842133  85.4681549  46.9572449  52.4688072
  84.9468460  46.0040932  51.4148979  59.6314430  68.7950745  83.9394760
  58.7028351  68.6488876  83.7590714  60.0622025  68.6707077  83.0937729
  37.9679222  19.2670612   6.9279437  37.2318230  19.8787937   6.9148359
  37.5626678  18.4070225   7.0389934  16.1650009  60.6979980  43.6542282
  16.2494965  59.9681358  43.0407219  15.9236393  61.4447899  43.1062508
  60.9111900  50.8014832  48.7356873  60.9181709  50.0350418  49.3090553
  59.9905701  50.9157944  48.4998474  69.2468567  43.6999626  44.6305122
  70.0197906  43.2562256  44.9796524  69.4465485  43.8356667  43.7042618
  49.7974701  62.0367126  17.2202072  50.3975525  61.2980919  17.3230247
  49.0630531  61.6808090  16.7200108  12.1375313  38.5260544  80.3869858
  12.3684235  37.7021255  80.8160095  12.9435015  39.0419350  80.4095917
  72.2428894  15.6805935  87.0036011  72.7547379  15.7898731  87.8050385
  71.8339767  14.8200846  87.0960312   3.0431828   0.3142326  42.9987640
   3.5903616   1.0991312  42.9711723   3.5905454  -0.3728094  42.6185036
  60.9669380   0.6336151  62.7129745  61.4427910   1.0135001  63.4515457
  60.1311417   0.3527549  63.0855179  15.9805012  59.3113708  77.4609833
  15.5927382  59.9507256  76.8634109  16.0926781  59.7890091  78.2828751
  73.2282715  20.4121170  50.7469902  74.0737305  20.0958042  50.4285889
  72.8192368  19.6434345  51.1445503  71.9322052  11.9225483   1.5228463
  72.3530579  11.5963211   2.3182609  71.9825897  12.8754025   1.5987544
   1.6752931  53.3964081  11.7789021   2.6089869  53.4989967  11.5947189
   1.5041646  54.0067825  12.4961100  47.1856232   4.1964073  70.2062912
  47.5036392   5.0990500  70.1880035  46.5295296   4.1876912  70.9032059
  70.5347595  24.1258430  71.6658020  71.4896240  24.1825428  71.6304016
  70.3523560  23.1877193  71.7195206  56.3288651  27.5167370  36.9506950
  56.1469650  26.6255131  36.6525917  56.6782875  27.9610462  36.1782150
  23.6517467   1.9863497  58.5610886  22.8080673   2.4294567  58.4711151
  23.4273453   1.0603932  58.6531792  61.2591438  16.6025810  67.3925476
  61.2958984  16.0262146  66.6292038  60.4724312  16.3270245  67.8630676
  65.5426712  57.9404068  61.7913551  65.5758209  58.8834000  61.9522934
  65.1352539  57.5773926  62.5777779   5.2338881  43.2626457   1.8347701
   5.6400476  44.0585175   1.4914757   4.3504286  43.2665367   1.4663739
  78.0449905  49.6162643  67.3690186  78.5023651  50.2321014  67.9415359
  78.6321793  48.8626251  67.3101349  39.9579735  30.1246796  87.2785950
  40.4722328  29.8622818  88.0420837  39.2176590  29.5179996  87.2684555
  69.1273117  59.6140022  69.5168839  69.5112610  60.4251060  69.8499374
  68.7831802  59.1748734  70.2946854  61.7637177   7.4814258  48.4735069
  62.6656761   7.5123281  48.1545334  61.5600739   8.3878107  48.7042198
  30.9511909  13.9465027  24.8288765  31.5699768  13.2211647  24.7439003
  30.5603542  13.8277369  25.6945400  52.2808723  21.0359364  32.4496918
  51.9211159  21.6691856  33.0708199  51.5681229  20.8756275  31.8312054
  77.9290314  62.2343674  64.7880630  78.8546829  62.2354965  65.0317764
  77.5436478  62.9397278  65.3078461  65.1249390  67.5384369  66.0205307
  65.2698975  66.6727600  65.6386795  64.1752625  67.6554947  65.9950409
  34.7912331  16.7519855  81.7734222  35.1002388  16.8119240  80.8694611
  35.4528847  17.2184696  82.2841492  71.9403000  23.5614128  33.2897224
  71.5889435  23.9241047  34.1028862  71.7971954  22.6181049  33.3666916
  78.4977341  30.8500919  33.3613930  78.7272263  30.2972450  34.1083374
  77.5514069  30.7427025  33.2657242  19.5703487  26.7242908  55.0931244
  19.7670536  27.2830296  55.8450241  19.9872684  27.1641941  54.3522491
  72.1070938  24.5682850  47.3574715  72.3265152  23.8806801  46.7287560
  72.1943893  24.1475048  48.2127800  13.7952881  14.0308552  72.0894547
  13.8344841  14.9050713  71.7015839  13.6581974  13.4445992  71.3453140
  72.2083130  35.8485794  59.7058716  73.1340179  35.9989281  59.5142822
  72.1830750  34.9741058  60.0943108  77.6246185  67.2886810  66.0462189
  78.0547256  67.7537460  65.3286209  77.7438583  66.3623123  65.8368073
  13.1637688   4.5670280   8.8568668  13.8991470   5.1707697   8.9614916
  12.5112648   5.0670447   8.3665056   5.6889491  68.7860260  -0.1061806
   6.4305763  68.4374161   0.3884838   5.0357590  68.0867081  -0.0831865
   4.8887320  49.5013962  38.9086418   4.0573587  49.1004639  38.6550598
   4.9647608  49.3227463  39.8459435   0.6729314  41.8084412  12.5940256
   0.4654039  42.0420837  11.6892748   1.2825383  42.4875069  12.8829556
   3.3419838  41.9333191  43.9946785   3.4746392  42.8767090  43.9016953
   3.2796009  41.6104698  43.0957298   3.2832799  59.6544342  33.7873802
   2.8361404  58.8997841  33.4042282   4.2070518  59.5175552  33.5772781
  74.2241287  11.0350399  17.9095135  75.1257324  10.8301325  18.1572170
  73.7121048  10.2948580  18.2353802  11.0854683  41.5431442  88.8032379
  11.0903130  40.5979614  88.9543686  10.2213860  41.7219543  88.4322662
  18.4254894  66.1672974  24.7519112  17.6126556  65.8527908  24.3561649
  19.0116959  66.3150482  24.0097771  15.6862316  21.0909176  76.4825058
  15.7455235  20.8353367  77.4030457  14.9855003  21.7425919  76.4595184
   5.2462764  62.2817078  19.4334431   5.2760715  61.4834709  18.9060268
   6.0348554  62.2408791  19.9744682   6.6524596  71.3623962   4.8208780
   7.2082696  71.0153198   5.5186210   7.0909615  72.1666031   4.5430346
  29.2970905  61.2597885  37.4224205  29.5611916  62.1330338  37.1327324
  30.1127872  60.8424034  37.6992950  16.2577953   0.7518595  77.6476364
  16.8145332   0.8250319  76.8724518  15.8308687   1.6057352  77.7173691
  66.8213654  45.7813606  20.1433735  67.6962280  45.8997231  19.7734585
  66.4222794  45.1006813  19.6014900  12.7980223  45.0456238  12.4391050
  12.5311918  44.3456726  11.8431978  12.0308619  45.1951828  12.9916706
  42.6352539  35.7048340  14.0642500  42.8375626  36.5738754  14.4107618
  42.3574066  35.8652916  13.1624260  78.7709122   6.3423347  38.9962311
  78.5243149   7.2616997  39.0971756  79.3349228   6.1616793  39.7482147
  53.0622215   7.5865865  84.6697617  52.4608727   6.8667884  84.4787140
  52.7064285   7.9925337  85.4602356  58.8032112  18.2933750  77.4447708
  59.1324234  17.9147282  76.6296158  58.8960724  17.5918789  78.0893784
  83.5301056   0.2754445  51.7741241  83.5046234   0.4502684  52.7148781
  83.1687012   1.0661867  51.3736877  56.1364975  62.6360435  53.5130615
  55.4882545  61.9614143  53.7152786  56.6781845  62.2491913  52.8251991
  84.0806427  36.5124817  43.9047318  83.2947235  36.3550262  44.4279671
  84.3879471  35.6382103  43.6650505  82.1506348  39.3067474   7.1648111
  81.4972458  38.6372871   6.9619865  82.5831604  39.4803619   6.3287420
  22.9679356  60.1788521  76.5022507  23.7819672  59.8119354  76.8471603
  22.3100204  59.9663124  77.1642227   9.5212317  56.4351234  54.3890076
   9.1990376  55.9066467  53.6588478   8.7928495  56.4554138  55.0097160
  24.7169209  26.7488232  81.2134628  24.9458485  25.9447021  81.6795273
  24.8233185  26.5279427  80.2881927  26.5132637  10.7438231   1.5246326
  26.5093708  11.5565863   2.0302343  26.5986977  10.0532598   2.1819413
  13.6891336  46.4796867  48.6232147  13.5713806  46.3173065  49.5591621
  12.8312674  46.7792778  48.3223114  35.9498634  35.6093826  83.9541245
  36.8695679  35.8214836  84.1134720  35.7803040  34.8474770  84.5081863
  13.7343826  36.2056122   8.5898838  14.0176992  35.3707314   8.9626255
  13.8509731  36.0983238   7.6458883  33.3669167  71.4300003  41.4925880
  33.9873199  70.7403793  41.7287102  33.6805916  72.2044983  41.9594803
  74.0870819  62.4656525   8.8138828  74.4817200  63.1706429   9.3271837
  74.5505219  61.6765938   9.0946608  23.8573322  15.0028362  78.4713211
  24.5137234  14.6454716  77.8732681  24.3584461  15.2830343  79.2372284
   0.4062608  26.9111176  39.9348068   0.1247984  26.4081612  40.6990356
  -0.2503894  26.7177734  39.2657318  62.1959839  41.2032928  74.5507584
  62.9917641  40.6926460  74.4017258  61.5266800  40.7618103  74.0279160
  49.0040169  47.9900322  41.7550507  49.1651497  47.1633644  41.3002014
  49.8334503  48.4636497  41.6921425  62.1911850  49.2901115  30.1874313
  62.9552345  49.7842636  30.4845486  62.0369110  48.6480484  30.8803864
  82.3732986  21.3522930  76.0597610  81.6687393  21.5873966  76.6635513
  83.0142670  22.0569782  76.1536102  51.7180672  46.5643578  26.0495014
  51.3760567  47.3065033  26.5479774  51.4383011  46.7310791  25.1494083
  32.0674782  62.6477852   1.0946672  31.7925987  61.7760468   1.3788302
  32.6617775  62.9476051   1.7825230  82.4921722  66.2997971  69.9308090
  81.5491638  66.3717957  70.0783997  82.7418976  67.1462402  69.5601425
  31.6010017  57.8955612  64.8228378  31.9844589  57.2122192  64.2730713
  32.1642952  57.9249763  65.5961838   4.3611217  12.8056364  14.6233025
   5.2605677  13.0912437  14.4631233   3.8658311  13.1444864  13.8775806
  72.3690872  53.3676453  47.7952042  71.4581070  53.3525085  48.0886612
  72.3232574  53.6669006  46.8871422  28.0995445  14.5181932  12.6041136
  28.0786800  15.3181047  12.0788164  27.3701591  13.9946394  12.2722673
  35.8482361  57.0061913  59.5934830  35.7896729  57.6435699  58.8817558
  35.1038857  57.2102966  60.1596260  43.3459282  64.9925690  16.6101227
  43.8250427  65.0141983  17.4385033  42.5440254  64.5095367  16.8097782
  34.7938957  19.7302933  79.2269135  34.0066261  19.6003742  79.7556458
  34.5576248  20.4249249  78.6121826   4.1573472  52.2907295  80.1649017
   3.9659567  52.8867683  79.4407883   4.9278183  52.6686325  80.5889206
  18.7760906  15.6765480  86.9839020  18.1666279  15.7612629  86.2506790
  18.6569023  16.4810963  87.4886093  77.5513611  52.9207802  32.6941109
  77.8328323  53.7569847  33.0652771  77.6494217  52.2950478  33.4117966
  48.4394188  34.5828629   2.1360905  47.9580154  34.2035904   1.4008102
  48.5208015  35.5108376   1.9159408  79.6914597   5.1655312  76.8114777
  78.9270020   5.2343674  76.2395477  79.4934235   5.7454138  77.5468292
  85.2802505  47.6314659  55.0760765  84.9794617  48.1002998  54.2976456
  84.7567825  46.8302078  55.0902786  58.1839104  66.4396591   0.7069914
  58.8955956  66.4898224   1.3451303  57.5483170  67.0901871   1.0054367
  30.0528336  57.2143173  25.2492695  29.9269028  56.2968292  25.0072136
  29.2362728  57.4618187  25.6830940  24.9820232   5.5604939  18.4185772
  25.0065613   5.7514586  19.3562145  25.7001686   4.9427600  18.2810860
  14.9835157  68.9815674  56.8476067  14.3556099  68.2725983  56.9866142
  15.1370869  68.9836807  55.9028091  74.6472626  47.5981560  38.0983772
  74.7422485  48.2328072  38.8086090  75.1478195  47.9729881  37.3736916
  70.0541000   5.3898940  45.0905685  69.4215851   6.0683255  44.8541527
  70.9050827   5.7683568  44.8696136  22.3949471  37.3984718  75.4417572
  23.1659031  37.3767853  76.0086670  22.7512531  37.4182091  74.5535660
  23.5646305  69.2410202   9.8264503  23.3544464  68.5389557  10.4422112
  22.8275948  69.2526550   9.2158155  14.0287170  51.7696800  17.2908802
  14.1925039  50.8433533  17.4678574  13.3661222  52.0228157  17.9336262
  72.5157013  45.6583557  58.7682724  72.1097183  45.8710785  57.9279404
  72.3868256  46.4425163  59.3018608   1.8301733  66.7266846  85.7242279
   1.3328865  67.1244278  86.4388962   1.4524670  67.1048508  84.9301529
   1.3912824  65.6536636  50.8993797   1.2499987  65.2149048  51.7382851
   0.7853119  66.3945312  50.9115219  43.5705681  29.3397827  75.5192490
  42.6762123  29.3726978  75.8587799  43.4720039  29.4507942  74.5736313
  80.0219040  70.1998672  28.1527405  79.3925323  70.1531906  27.4330559
  80.1440353  71.1371613  28.3037014  13.3726072  56.8027191  85.3362122
  13.5778255  57.1453705  86.2061005  14.0201550  57.2087402  84.7599640
  17.6799221   0.7961535   1.6890436  17.6576538   0.0283749   2.2602284
  18.5534401   0.7785296   1.2980336  39.5308495  55.0633430  62.4235878
  38.5745239  55.0406990  62.3895645  39.7861595  55.5668564  61.6505928
   4.2066102  46.0198326  58.9638786   3.5397050  46.6102486  59.3144112
   5.0061941  46.5457153  58.9453163  72.7875595  61.6905556  27.9534302
  72.0409317  62.0842094  27.5019646  73.5310974  61.8524590  27.3727646
  83.2812958  37.9380951  62.2927208  84.0094528  37.4956703  62.7289200
  83.4516525  37.8158569  61.3587685  28.3557053   5.2955537  69.1379700
  27.9431953   4.8810806  68.3801575  28.5169239   4.5748453  69.7469177
   9.8135462  38.7399063  76.7426834   9.8688135  39.4505196  77.3815918
  10.7016640  38.3852501  76.7014847   2.0633595  36.4994698  47.2574844
   2.9400890  36.2576141  46.9590187   1.5053306  36.3711281  46.4904366
  81.5934067  21.4797268  69.2413101  82.3759689  21.2608356  68.7354355
  81.3274078  20.6517735  69.6412659  54.9741631  54.2758636  47.7477989
  55.4839821  53.8752632  47.0436440  55.1850052  55.2080994  47.6956825
  12.4774494  29.1015034  12.0857744  12.6478558  28.9384842  11.1580791
  12.6465082  28.2610931  12.5116386  12.1125364  43.2442017  28.0204372
  11.9212198  42.9213943  28.9010220  12.4550667  42.4812431  27.5548210
  58.9949608  65.4997864  70.8042984  58.9583549  64.7604752  70.1974106
  58.4532890  66.1737518  70.3936996  56.6649933  41.0435677   6.6511292
  57.1836700  40.2464638   6.7599249  57.2857590  41.7559776   6.8039446
  24.4535503  30.1290913  21.3675785  23.9663353  30.6223240  22.0275593
  25.0642490  29.5920353  21.8724060  26.9067421   0.8072982   7.7127705
  27.2021523   1.5005583   7.1225538  27.2779140   1.0424333   8.5631676
  13.4567041  43.2198601  70.1208496  14.0669174  43.9448814  70.2558136
  13.2829237  42.8860703  71.0009689  65.1511307  20.0996532  85.1723557
  65.9106216  19.5337715  85.0338593  65.5041580  20.8694057  85.6185379
  58.7806091  46.5255814  43.6798134  59.5120010  46.5901337  44.2939224
  59.1932449  46.3565826  42.8328171  58.5773277  65.4782181  67.3810425
  57.9556503  65.9279480  67.9533157  58.4882164  64.5532227  67.6105423
  52.6988335  43.7791481  30.1312561  53.3108444  43.3343353  29.5448971
  52.3128052  44.4711990  29.5943413  15.9954138  64.5488892  87.3396454
  16.6201992  65.0093307  86.7794113  15.1755152  65.0306244  87.2304306
  67.6114197  12.4291210  44.8959007  68.4974747  12.3812294  44.5369453
  67.6537857  11.9222641  45.7067833  21.8363914  58.1429939  50.4078636
  22.6606159  57.8191605  50.7712059  22.0909462  58.8879967  49.8634338
  18.3339653  59.9660645  87.6358337  17.8518219  60.6889114  87.2342529
  18.3244705  59.2747841  86.9738159  56.6446495  16.2514343  14.8809748
  57.1056747  16.9402390  14.4021902  56.9691315  16.3252583  15.7784672
  32.9843025  12.2583122   1.1389894  33.8406754  12.5565119   0.8325036
  33.1755447  11.7511702   1.9279540  55.6349525  69.9751968  44.4360046
  54.8839264  70.4237823  44.8245392  55.3838387  69.8343811  43.5231285
  75.6061401  12.0845623  65.3334961  75.5753326  12.8644896  65.8875732
  75.0749664  12.3118029  64.5703201  67.7749786  56.7315483   8.5105057
  67.2552490  57.5347137   8.4783392  68.6811066  57.0347404   8.5674534
  60.6388435  36.4181557  25.6697617  59.6866150  36.3962364  25.5748367
  60.8341827  37.3220940  25.9166870  14.9944630  67.1781769  69.3443756
  14.0642424  66.9529343  69.3580475  15.4335833  66.4038696  69.6963120
  22.6229744  15.6226692  27.8959484  21.7496910  16.0123711  27.8542480
  23.2118397  16.3242054  27.6178875  39.3882713   0.9391420  82.9982529
  38.6267586   1.4789695  82.7863159  39.6850433   0.6013390  82.1532364
  25.7090416  70.5523148  40.4521637  24.8705425  70.4561310  40.9037209
  26.1203499  69.6910400  40.5247726  74.7609558  40.3785744  18.7933483
  74.6804581  39.4296188  18.6972694  75.0880280  40.5022087  19.6844006
  57.0617409   3.3744771  25.0391502  57.0306015   3.7348118  24.1529102
  56.1809998   3.0308955  25.1890869  31.3919830  59.8281631  38.4969330
  31.9381771  59.3173981  37.8994217  30.8427277  59.1777382  38.9345360
  53.0298615  17.3482418  53.4973869  53.3805656  17.3034954  52.6078720
  52.9125824  16.4338169  53.7548828  19.0999126  36.2040329  84.7136536
  19.0378056  36.1246376  85.6655273  18.3215580  36.7018661  84.4635391
  52.6596031  12.1299639  11.2360153  52.7768784  11.8859463  10.3179007
  53.4666443  11.8449078  11.6645718  64.4314194  42.0814285  63.3430710
  64.9224472  41.8001862  64.1150970  64.0751953  42.9365349  63.5841789
  39.9468803  23.1916122   5.9558797  39.9970856  24.1463280   5.9086728
  40.8500595  22.8980637   5.8361845  56.4472923  63.9808655  27.3861523
  56.6554298  63.2728119  27.9957161  56.3531342  64.7549210  27.9413185
  20.1599121  11.1571493   3.3307452  20.9112911  11.5957079   3.7299044
  19.8701515  10.5288296   3.9921715  53.0642319  11.8265982   5.4335938
  52.3461609  11.6391506   6.0381336  52.6840820  12.4216146   4.7873168
  36.2772598  38.7187233  88.0290604  35.5687180  38.3828125  88.5780334
  36.6966820  37.9352608  87.6733856   4.8948889  34.0642776  31.8338203
   4.7327704  33.2857246  31.3010826   5.1925826  33.7204361  32.6760674
  57.1963654  50.6572113  78.5027313  57.1147842  50.0477219  79.2362823
  56.6021385  50.3113670  77.8367538  86.4066238  70.2569504   2.5711911
  85.7567062  69.6251068   2.2636027  87.0826645  70.2543030   1.8935463
  54.1681900  50.1218910   8.2858582  53.4946671  50.2716560   8.9493103
  54.9481583  49.8821068   8.7862387  16.9630775  51.3092842  86.0998306
  16.9326839  52.1197166  86.6082611  17.7367496  51.4039764  85.5442200
  67.9127731  50.8480186  57.2265205  67.4760818  51.6767120  57.0295296
  68.0414658  50.4360847  56.3721313  82.8451004  22.6737881  57.3277168
  83.7416458  22.3563480  57.2196732  82.5566788  22.8837318  56.4394798
  49.6450310  21.1254597  21.0560722  49.9692612  20.5206852  21.7234230
  49.1429787  20.5736237  20.4563637  32.3900452  58.7728348  22.2119751
  31.6848488  58.7612495  22.8591156  33.1524849  59.0926895  22.6942730
  19.7440357  59.8829041  67.8035660  19.7079411  60.2823677  68.6726761
  19.0273476  59.2484055  67.8016434  79.6358566  62.8585548  34.1655121
  79.6579285  63.2544060  33.2942810  80.1702423  63.4400291  34.7063942
  75.4127045  58.8023071  56.1740341  75.4481659  59.4867859  55.5058556
  76.0275803  59.0930099  56.8475723  28.6356697  52.1068611  13.4768257
  29.4510937  51.6951523  13.1908026  28.7034988  52.1350288  14.4312038
  64.1005707  14.5258217   9.7322378  63.7207565  14.6947184  10.5944719
  64.7465134  15.2223253   9.6144495  28.6892128  25.3413620  11.4774733
  28.7392426  24.5825024  12.0587330  29.0026608  26.0722160  12.0102348
   2.3837502  49.2200356  25.7599487   2.7916329  49.4219704  26.6020222
   2.0188382  48.3426132  25.8748589  39.8756371   5.1251545  12.9886513
  40.2107468   5.7946014  12.3921814  40.5893021   4.4915876  13.0628796
  54.4686394  32.6391602  60.9735260  54.6418228  33.4330254  61.4795113
  55.3361359  32.2807541  60.7858429  45.9200935  48.4486618   1.9693066
  45.5303535  48.0211868   1.2066802  46.5380478  49.0797424   1.6003826
  39.4524460  13.7117043  70.0744934  39.3981552  14.3157625  70.8150330
  38.7941513  14.0301733  69.4568710  63.4955750   5.2311563  66.9230576
  64.3533401   5.5274262  66.6185913  63.6015358   4.2894950  67.0582581
  10.9749498   4.7154655  50.8155785  10.7150059   5.5403852  51.2256584
  11.8079576   4.9129028  50.3873825  69.1226120   8.4233017  59.2930145
  69.5988007   7.5972967  59.3777962  69.7611618   9.0306253  58.9193306
  69.7487030  38.1931305  76.2612381  70.1442108  37.3221779  76.2258835
  68.8058853  38.0279541  76.2677383   3.8178976  53.3415833  61.6478729
   4.3036938  52.6472893  61.2026901   3.4300587  52.9116783  62.4101028
  18.4292583  58.9700394  72.9978104  17.8340759  58.3524284  72.5729065
  18.5394402  58.6253853  73.8839874  71.0329666  27.4591236  57.4004135
  70.5824127  26.6303883  57.2378311  70.3978195  27.9859028  57.8855133
  58.5200768  32.4458923  80.6984253  57.9219933  31.7033634  80.6137009
  59.3276367  32.1523132  80.2766495  64.6461563  19.3097038  72.5699005
  63.6973915  19.3675156  72.4570694  64.8475494  18.3838596  72.4339447
  23.8975410  56.3075104   7.0518184  24.1436729  57.1124191   7.5076365
  24.1349068  56.4673653   6.1383986  65.3529510  22.2546768  37.0438995
  64.9639435  22.7669430  37.7527618  64.7387695  22.3483582  36.3157272
  60.1135025   3.7061884  44.5921402  60.5827026   3.0060239  45.0458527
  60.7890739   4.3516626  44.3843002  46.2828789  13.8579741  86.3575058
  46.5662193  13.2458639  85.6783295  46.5479355  14.7177496  86.0307541
  23.1002560  54.0771446  56.0968475  22.7904758  54.9544754  55.8719940
  22.3764420  53.6855431  56.5856934   0.6881695  19.0722790  14.2002401
   1.3090149  19.7951164  14.1091976  -0.1626782  19.4601364  13.9956512
   4.4149523  22.5161533  80.1529694   4.6024213  22.3512669  79.2289047
   4.6306624  23.4400425  80.2799759  78.0243378   1.1756546  58.9972076
  77.0842819   1.2957902  58.8626900  78.1139069   0.2586298  59.2565804
  28.0012875  26.8122349  16.2243614  27.9374809  27.5459270  16.8357983
  28.0119839  26.0350819  16.7830639  37.0122490  62.4028931  60.3951797
  36.3362312  61.7261925  60.3589973  36.9523811  62.7539864  61.2836533
  68.8594437  45.2313499  89.4087067  69.5261154  45.0119400  88.7578201
  68.0879135  45.4641762  88.8922119  21.6944027   4.8025932  74.9441681
  21.0714207   4.4822283  75.5964661  22.0907288   5.5736527  75.3499069
  13.1445045  22.9164734  67.3311081  12.5366201  22.3232479  67.7724609
  13.9584255  22.4174862  67.2620010  39.8976517  43.4704628  11.5008316
  39.6662598  43.8107147  10.6365881  39.3400536  43.9578400  12.1072779
  10.0917196  62.0742188  13.9640799  10.8256149  62.6851845  14.0300131
   9.9018383  61.8293266  14.8697319  85.2266541  20.0885658  13.1056948
  85.5549393  20.9745922  12.9526691  84.3909073  20.0590382  12.6399794
  27.6650372  49.8716583  70.5695419  26.7377872  49.7974358  70.3438644
  28.0757675  50.2265396  69.7811356  80.6224670  22.4876633  21.5393925
  80.2444382  23.3657246  21.4910927  81.4264832  22.6006012  22.0463848
  54.2151871  40.8166504  26.8623333  54.1502113  41.6080246  26.3277931
  54.8286362  40.2562828  26.3870468   9.4951906  65.3600464   2.0626326
   9.3353682  65.9350967   2.8109658  10.0666714  64.6732559   2.4060841
  36.3676949  60.3492737  63.9322548  35.9561081  60.6111221  63.1086884
  35.6367035  60.0921783  64.4942093   1.0980164  54.6548958   0.6406236
   0.8749482  54.3384972  -0.2347980   2.0001709  54.9646645   0.5606710
  56.9176521  45.4456558  49.4931374  57.3571434  44.9881096  50.2098885
  56.8034554  44.7778206  48.8169785  83.0510483  40.0864563  79.4468765
  82.2751465  40.1134033  80.0067825  83.0932617  39.1809349  79.1394958
  30.6018581  68.7698441  38.5321655  29.9658489  69.1317673  39.1492043
  30.0685349  68.3525391  37.8556671  78.0216827   5.1104784   0.2608839
  78.1304398   4.8560033   1.1772062  78.8209915   4.8059340  -0.1687569
  47.1734810  58.3523674  23.3627071  47.9643440  57.9650269  23.7378483
  46.7179642  57.6170883  22.9526997   9.1222887  65.0316086  11.3728218
   9.9466667  64.6789398  11.7078743   9.0348930  64.6482620  10.5001020
  32.7125854  11.6558208  66.2222366  32.4496422  10.7363348  66.1817703
  32.4874725  11.9304094  67.1111450  70.6115494  13.8715611  34.5595779
  71.5286942  13.6013384  34.6050415  70.3674850  13.7375269  33.6437721
  20.3328590  71.1355667  52.8074417  21.2470703  70.8831711  52.9368515
  20.0551758  70.6423187  52.0355415  83.2557220  61.5810928  24.2348518
  83.3785477  62.5297623  24.2006683  82.5234375  61.4559937  24.8384628
  83.9837723  61.1539726  16.5128689  84.8599930  61.1534004  16.1275520
  83.5897598  60.3347588  16.2130833  44.9708786  57.1767769  54.3531075
  45.4094086  57.3996849  55.1742249  44.8941231  58.0102119  53.8886414
   0.0177586  34.2660522  35.3731003  -0.0343324  34.5816765  34.4709358
   0.4444466  33.4120216  35.3038025  26.3703880  16.9771729  27.2134590
  26.3596802  16.0668793  26.9176807  27.0410671  16.9993439  27.8960495
  20.0042038  45.8720398  23.1284542  20.1704006  46.0487175  22.2024975
  20.7685757  45.3740387  23.4182205  66.2334671  22.2765007  59.8825378
  65.5952148  22.3392467  60.5931206  65.8692932  22.8211441  59.1847038
  16.6662483  18.4297714  56.6658554  16.1081123  19.1982841  56.7846107
  16.4067249  17.8343258  57.3689346  83.5308456   0.9792144   8.6394472
  82.8243942   0.9345919   9.2837820  83.6006088   0.0875676   8.2983732
  12.3979111  48.1156006  10.0918570  11.9597158  47.8702545   9.2769814
  12.2211752  49.0515785  10.1864319  49.6678581  48.2836533  44.3545113
  49.4863548  49.2118073  44.5022278  49.8597641  48.2231102  43.4187012
   4.5935788  37.7517204  61.3090515   3.7615333  38.2248154  61.2983398
   4.6839046  37.4464188  62.2117500  65.8355865  44.0306969  68.2358322
  65.1227112  43.5462914  68.6522369  66.5490265  44.0020676  68.8733368
  81.6956406  36.1219521   9.8681688  82.1313629  35.4291267  10.3645258
  82.2821426  36.2939568   9.1315136   8.5889006  50.3033829  64.5196228
   7.7126236  49.9611588  64.3428421   9.0561419  49.5701180  64.9199219
  50.4949493  53.2534599  71.2293167  50.7859268  54.1599579  71.1301956
  51.0232887  52.7621765  70.6002502  82.9089050  17.3594646  64.7234879
  82.0858536  17.1124649  65.1451569  83.3556747  17.9045925  65.3711472
  52.0053749  15.7071228  27.6947517  52.4751854  15.9909172  26.9105511
  51.3400002  16.3813229  27.8324642  30.0660686  31.6041431   9.3217506
  31.0029335  31.4434834   9.2090378  29.8072472  31.0211544  10.0354481
  35.2349777  68.3437271  40.4493256  35.6365089  69.0816269  39.9905205
  35.9712219  67.8815613  40.8500481  46.2700996   5.1530170  62.5373611
  47.0634079   5.5577521  62.1865234  46.4690781   4.2170243  62.5609703
  14.2185154  32.7023773  76.7618103  15.1401300  32.8881836  76.5819931
  14.0915899  31.8037128  76.4576263  45.2410164  34.7423668  77.3030243
  44.6640244  34.7572060  76.5394211  45.2114143  33.8355331  77.6080017
  35.1498642  35.7301598  89.1924896  34.2878799  35.6391106  88.7863770
  35.7038689  36.0908775  88.5002518  39.3842697  16.1014137  26.5032158
  39.7716331  15.9080305  25.6495266  40.1328697  16.2937317  27.0678806
  64.7153702  67.7725677  23.3844814  64.1451187  68.4166870  23.8041954
  65.1713791  68.2650528  22.7020206  66.5915833  59.1389122  78.6498032
  66.9983673  58.6316376  79.3522491  67.1691742  59.0118103  77.8971634
  10.4552612  35.0134850  76.0659180  10.4058714  35.7228355  76.7067108
   9.5691252  34.9505577  75.7094955  58.7350273  59.9189873  60.2436028
  59.5581322  60.0836258  59.7835770  58.3503571  59.1713486  59.7861176
  45.2084236  46.6297035  81.8873749  44.9983559  47.4245911  81.3972092
  45.9990845  46.8530769  82.3784790  39.2533264  56.3293228  34.4064522
  39.9875641  56.4650345  35.0053787  39.0612450  55.3938255  34.4711189
  82.1046143   7.5322351   7.0556288  81.7848511   6.9657655   7.7578349
  81.3798599   7.5725870   6.4316607   5.7622790  33.6230736  86.6708679
   5.0566239  34.2544594  86.8109970   5.8036852  33.1250534  87.4872513
  22.9079323  45.5062256  57.8229752  22.8777008  45.9790001  56.9912300
  22.7598801  46.1797371  58.4868240  44.2578888  25.6685791  88.2854767
  44.5609589  25.5239239  89.1818314  44.5007782  24.8690643  87.8185577
  30.3663750   0.7546190  74.1771011  30.3206005   0.1195806  74.8918533
  31.3027611   0.8560831  74.0064621  82.7025452  51.2073669  87.6218262
  83.2588348  51.9811096  87.5318298  82.6454926  51.0619278  88.5661926
  67.7147446  62.4471703  86.8453217  68.5540848  62.8617058  86.6455460
  67.9496155  61.5909843  87.2031097  19.8390789  67.5512161  16.1150475
  20.3720627  67.9880295  16.7793922  20.3517303  66.7828979  15.8638449
  71.4305496  35.5178986  79.8651276  71.7845306  36.1823845  79.2740402
  70.8265533  35.9983177  80.4313583  58.8122673  49.8268280   0.6516078
  58.7836647  49.6618004  -0.2908244  58.3498459  49.0836678   1.0390437
  40.9472771  44.7756157  21.4269314  41.7541504  45.1120872  21.8167667
  41.0685616  43.8263359  21.4071407  15.0234146  17.0279522  28.0051956
  14.5693731  16.4356976  27.4057693  15.1335249  16.5182343  28.8078766
  55.5423660  52.6038742  88.9803467  54.5874863  52.6344147  89.0395584
  55.7539825  51.6706200  89.0024872   0.4055226   6.9944253  30.4406586
   1.0609059   7.6896024  30.4992523   0.4702550   6.6796031  29.5390339
  10.6415663  31.1215553  10.9076767  11.2974129  30.4354591  11.0316467
  10.4844351  31.1349125   9.9635572  42.1271362  31.7350922  73.4739227
  42.3399925  30.8454399  73.1920624  42.4740372  32.2956657  72.7799072
   2.2612400  13.3124065  47.4246368   1.7336415  12.6951180  47.9314194
   1.6311957  13.7562246  46.8569221   0.1068070  29.0001907  32.3631363
   0.4908975  28.5879440  33.1369324  -0.0995650  29.8916168  32.6442108
  20.0239353  46.8077850  65.8285141  19.1262360  46.4883728  65.7371750
  20.5200329  46.3190727  65.1717987   7.4416561   4.4440880  29.4431381
   7.0545149   3.7162406  29.9295464   7.8033690   4.0396862  28.6545601
   6.0529838   2.0814381  30.0559559   5.9532661   1.2356458  30.4929047
   5.6484966   1.9566641  29.1974373  50.2525787  58.9115562  86.9635010
  50.6833229  59.5307388  86.3741760  49.8992233  59.4564133  87.6667099
  67.7087708  50.2655602  21.1820984  67.8702774  51.1513634  21.5069065
  66.8012695  50.2836342  20.8782101  13.9046173  67.2074051   2.3709624
  13.9263315  67.0211563   1.4323075  14.1248112  68.1366653   2.4359190
  77.4881439  44.1165237  74.8649826  77.5977097  43.7735367  73.9780884
  76.9994354  44.9312172  74.7480469  43.4107819  19.6987247  10.5361710
  42.6527481  19.8519230   9.9721260  43.2968254  18.8024673  10.8523493
   7.1675062  26.0771313   3.4746435   6.7976336  25.2406158   3.7568944
   6.7254624  26.2674751   2.6472385  75.3350372  36.2944260  63.5497742
  74.7332535  35.5898361  63.3096771  75.7179718  36.0099640  64.3796310
  69.2259521  17.0004501  17.9468288  69.3380966  17.1829681  17.0139065
  69.3904266  17.8398037  18.3765564  84.1936111  55.3221436  16.4282608
  83.6031189  54.9036140  17.0546684  84.3040466  56.2126846  16.7613792
   6.3331928  29.1204510  87.9808502   5.5893197  28.5184612  88.0030518
   7.1024122  28.5507717  87.9808960  70.8271255   9.0361900   4.1766658
  71.5343704   8.5818481   4.6344976  70.9052505   9.9473314   4.4594193
  48.3393784   6.9514766  62.1581078  47.9410934   7.3272018  62.9432373
  49.1921921   7.3812504  62.0930557  48.8333702  35.0734138  56.1774712
  49.0729027  34.2891426  55.6837349  47.8899269  35.1625366  56.0425415
  54.5398903  18.6927814  49.8068504  55.0999260  19.4457626  49.9955597
  53.7190933  18.8851700  50.2601814   5.6615853   1.1005946  71.5813751
   6.0273108   0.4150710  72.1404190   5.3639927   1.7745885  72.1924362
  60.0949402  58.1637459  75.6156235  60.1002693  58.5115089  76.5074005
  59.3182068  58.5511589  75.2121048  81.4421921  31.8002853  73.0157318
  80.7992325  31.1275501  72.7915421  82.2289810  31.5506020  72.5311127
  83.0360489  35.4214668  52.8099480  82.0944901  35.2926750  52.6954498
  83.1059265  36.0588684  53.5206299  80.8059845  54.5050850  16.7257881
  80.5988159  55.4178314  16.9263096  80.2696075  54.3004265  15.9598637
   9.2452917  50.2980537  15.6918344   9.0961142  50.0727692  16.6101074
  10.1020117  49.9223022  15.4891644  37.8230515  70.0368118  53.0028038
  38.0690346  69.8716660  53.9129944  38.3859406  70.7614594  52.7302742
  43.7898445  53.6315765  50.0420647  44.3366318  54.0394669  50.7135429
  44.3727722  53.0131798  49.6016006   1.0423235  47.1199799   4.0224662
   0.6468688  46.3238373   3.6674907   0.3061795  47.7197723   4.1431899
  45.0523987  24.9794273   1.6011045  45.9140930  25.3953781   1.5746366
  44.4425735  25.7012920   1.7536070  78.3829880  55.7548599  38.0187912
  78.9253845  55.3679161  38.7060394  78.8881149  55.6287956  37.2155571
  26.6263676  52.3906898  11.6443901  25.9296360  52.3579140  12.2999229
  27.3998852  52.0588150  12.1001987  13.4859915  37.3850441  73.8656845
  13.8041430  37.0600891  73.0234146  14.1754999  37.1531372  74.4878006
   5.0530710   2.0490954  33.2443810   4.6874161   2.9318151  33.1866341
   4.5589118   1.5425119  32.5998573  57.5963554   1.7195660  66.0031281
  57.1194229   0.9004766  66.1367645  58.0118942   1.6178083  65.1468582
  48.3345833  66.6258774  39.6753922  48.0337181  66.5350800  38.7712517
  47.7031059  67.2211151  40.0793152  72.7513733   5.4349070  88.9976883
  73.3964920   5.3672519  88.2937851  72.3151932   4.5828981  89.0055237
  62.4835625  42.9154243  85.3939209  61.8669510  43.5799866  85.0867081
  62.6256714  43.1286507  86.3161850  73.5952454  59.3597908  75.8238907
  73.9353561  59.9386597  75.1416397  72.9096832  59.8719788  76.2527390
  80.1886978  31.7070274  18.1515713  79.3849411  31.6845551  17.6322517
  80.8925095  31.6347427  17.5068588  48.3992043  31.7032204  27.6496677
  48.3633308  30.8558083  28.0933304  48.1393089  31.5128574  26.7483082
   0.6851919  37.1900063   7.9975400   1.0490779  38.0748444   7.9678326
   0.3352072  37.1046104   8.8843603  61.1031189  11.0141087  26.7218304
  60.5594330  10.2368498  26.8503075  60.5014801  11.7492981  26.8391361
  45.4642296  46.3308563  26.0924263  45.5519562  47.1062393  25.5380611
  45.6460571  46.6472740  26.9773273  13.7292242  46.0665054  78.0362549
  13.9193668  46.3534546  77.1430893  13.6719894  46.8775864  78.5413284
  66.3262863  14.8754721  20.9732628  65.6224518  15.1768885  21.5477123
  66.8853760  14.3426647  21.5387459   6.2378492  52.1653023  29.5172272
   6.4019284  51.5904732  28.7696438   5.4040117  52.5894928  29.3147202
  56.4500237  58.7186356  38.0702591  55.5662804  58.3612442  37.9836426
  57.0228310  58.0207634  37.7522964  60.4749146  62.6016312  75.2093887
  61.1744232  62.1960831  74.6970901  60.9302483  63.1830635  75.8183517
  63.5208397  12.1020403   8.0796366  62.7515030  12.5974207   8.3606148
  64.2646866  12.6325512   8.3650846  76.9803314  24.7895298  63.5789680
  77.2465668  23.9833164  63.1369629  76.2132721  25.0883598  63.0905571
   7.2738738  33.3582649  47.3007545   7.3271179  33.4264641  46.3474731
   6.4519715  33.7938614  47.5265083  71.4649963  62.1159515  79.5095520
  70.9071732  62.3544540  80.2499466  72.3384094  62.4159508  79.7613068
  61.5417900  33.3500481   3.7729485  61.9585190  33.1371727   4.6079655
  61.0513382  34.1532135   3.9479153  82.4953461  34.8568382  65.4887314
  82.9726181  34.1633606  65.9442902  82.0772171  34.4144096  64.7500458
  77.8619690  40.9202232   1.4896172  78.4103699  40.2037811   1.1699381
  77.4951553  41.3128967   0.6974773  62.7293053  66.7735443  64.7880859
  63.1059761  67.4137878  64.1844025  62.9618492  65.9244156  64.4123993
  72.0596542   6.4825516  41.0455055  73.0140533   6.4408021  40.9854507
  71.8582993   6.1261954  41.9107819  40.5842667  34.6945648  11.8263264
  39.8271980  34.5222664  11.2665110  41.2675095  34.9854546  11.2223425
  27.1077747  38.1092491  83.1892166  27.3110752  37.4974136  83.8967133
  26.8920593  38.9281845  83.6353531  57.5249596  28.5780487  23.0640335
  57.8598824  28.8979130  23.9017353  58.1563530  27.9119282  22.7922630
  23.2561092  26.6418724  25.0100403  23.2712326  26.1602383  25.8371029
  23.5088024  25.9948616  24.3514404  82.8171463  69.6480026  50.3819885
  82.8701401  70.4737473  50.8632164  83.6730347  69.5598602  49.9625664
  43.3051529  39.7433472  79.6731720  42.6520615  39.1461639  79.3083801
  42.8108902  40.3005180  80.2744141  45.7267342  48.6872902  15.0347872
  45.0896759  49.1518326  14.4920254  46.4891243  48.5757294  14.4668541
  76.6685181  69.2995834  20.8788624  77.5196304  69.0421448  20.5245171
  76.5960159  70.2318726  20.6743755  34.0272675  61.9132919  43.2328224
  34.2764435  61.8685112  42.3097115  33.6296883  61.0618744  43.4151688
  25.9699764  27.2517433  24.2090073  26.3882694  27.1610470  23.3528328
  25.0988541  26.8728962  24.0913162  82.1909332  43.2480888  54.4849358
  82.5820541  42.3753204  54.5241470  82.1632690  43.5393219  55.3963356
  43.9893723   1.7954198  68.8850250  43.9194679   2.4713640  68.2108994
  43.3467484   2.0501177  69.5471344  74.7173996  30.5221806  56.8171349
  74.2753983  29.7580090  57.1871414  74.6761551  30.3876171  55.8703384
  27.3821526  13.6996126  26.4254856  27.0986900  12.8932619  25.9945793
  27.8135281  13.4038792  27.2271633  51.0844078   3.7329674  19.1268730
  51.3892250   4.5733595  19.4690132  51.7312279   3.0992482  19.4371300
  44.1975060  56.5793495  59.4028778  44.0242310  57.4828758  59.6671600
  43.3462601  56.2449951  59.1203537  78.2308426  48.9426994  46.1702347
  77.7425232  49.1671600  46.9623146  77.7721481  48.1820297  45.8135643
  30.1488628  70.6904602   5.2075539  30.9257298  70.9254227   4.7001090
  29.5465088  70.3169250   4.5642219  39.2877159  10.6976786   2.8037632
  39.6246948  11.2621412   2.1080189  40.0162849  10.6149693   3.4190531
  80.5200577   3.4747775  85.5462341  81.2122421   3.2880049  84.9120178
  79.7068787   3.3140812  85.0675507  47.2322769  60.1989708  38.4990997
  47.0132675  60.7177963  39.2731056  46.6220436  60.5022964  37.8269081
   9.1750002  58.7764626  80.5351410   8.5019817  58.3871155  79.9768524
   9.2312279  58.1882744  81.2882080  50.3559532  49.4480209  84.2165985
  50.7629509  49.0580177  83.4429779  50.0742188  50.3158455  83.9272308
   7.2055488  30.8257065  41.4198990   7.4875250  30.8225346  40.5051804
   6.5543256  30.1261330  41.4722099  55.4332237  14.7903528  58.6001625
  54.8825378  15.4998236  58.9312630  55.0196037  13.9924431  58.9295387
  10.7864122  43.6039276  46.8956604  10.7225380  42.8367691  46.3267822
  11.3530617  44.2097588  46.4180565  31.6493340  58.7316132  71.5699158
  31.7490788  59.2060280  72.3952713  32.5426712  58.4959183  71.3196640
  49.4906273  22.6372223  87.3004379  50.3835793  22.5900002  86.9589157
  49.5578651  22.3007965  88.1940460  63.0469475  50.2194710  27.4675522
  63.8313560  49.8587532  27.0542526  62.7743683  49.5470047  28.0918312
  65.0653229  66.6919785  29.9774895  64.4079056  66.0656509  29.6746063
  65.9032974  66.2680817  29.7921486  73.7832413  34.9906616  53.5791130
  74.1003799  35.8900719  53.6610985  73.5387344  34.9059792  52.6575508
  52.0761070  56.2617035  31.3927040  52.3840675  55.3554306  31.3846874
  52.8627243  56.7833824  31.2335930  80.8143311  69.5515747  79.5263672
  79.9441605  69.3807831  79.1659851  81.4047852  69.0273743  78.9852448
  32.8957367  47.0689697  35.9360809  33.8286362  47.2788696  35.9794044
  32.4784012  47.7136345  36.5074539  45.6878433   5.3134232  28.3380413
  46.4171524   4.7054868  28.2165890  44.9919472   4.9673233  27.7793159
  48.8376274  17.7667122   7.3651738  49.2991295  18.2346134   6.6692472
  49.5245094  17.5209255   7.9848599  65.7491074  25.2884064  24.4323177
  65.2275772  25.2772827  25.2348804  65.1128464  25.1474152  23.7312336
  35.3033600  50.4978294  59.3934555  34.4221954  50.3622360  59.7418709
  35.1619225  50.8263474  58.5055923  42.8195724  11.6267862  27.8349457
  42.0798340  11.0340776  27.9680367  42.5649452  12.1627207  27.0838318
  65.2501678  32.1570168  25.2979546  64.9293289  31.8754559  24.4412041
  65.8682632  32.8613091  25.1026230  22.9775524  53.1360931  46.2172890
  23.1811562  52.3127937  45.7734909  23.6743908  53.7333984  45.9454956
   9.5572081  41.1577148  72.0426483   9.5405865  41.5888100  72.8971176
  10.2785692  40.5315590  72.1042786  39.0835266  61.0817223  34.3619308
  39.7028275  61.8046646  34.2616806  38.2590981  61.4227524  34.0151596
  61.7000008  11.1928663  75.8463516  62.6395416  11.0209122  75.7836761
  61.3516846  10.9339132  74.9932098  73.9857712  30.8294907  29.9566288
  74.7166595  31.0905495  29.3963814  74.1803436  31.2274857  30.8051395
  44.8848076  13.7559395   4.3057652  45.8015175  14.0226736   4.2369909
  44.9200134  12.8656254   4.6555276  83.6774445  42.0910110  29.6415291
  84.0893402  42.4222603  30.4395580  84.1538010  42.5196228  28.9304695
  10.1990976  32.7755890  83.7890472   9.3147326  32.4991112  83.5488586
  10.7489452  32.4743958  83.0657349  75.1586990  60.8982735  45.7100334
  76.0051117  61.3292313  45.8287468  74.5591965  61.3888359  46.2723312
  84.1044388   6.5619006  47.5261765  83.5867386   5.8881788  47.9669838
  84.0171127   7.3345447  48.0844116  19.7491341   1.6414884   6.6250958
  19.2193356   0.8621572   6.7929916  20.2880898   1.4065459   5.8697419
  27.4515476  46.1604881  31.8856220  27.3170891  47.1080246  31.8675594
  27.8684063  45.9938049  32.7310066  -0.0925001  40.2126122  10.3257837
   0.0824438  39.2806244  10.4562559   0.7421376  40.6416626  10.5142756
  82.5619812  67.5754242  42.5847359  82.1694870  68.1745071  41.9496880
  83.4507980  67.9078903  42.7100487  26.1023388  40.0052032  23.9679546
  25.1565647  40.0839844  23.8433037  26.4018288  40.9042473  24.1030598
  61.5422249  28.2498112  66.9310455  60.6282158  28.3890953  66.6832199
  61.8372116  27.5352497  66.3665924  59.8387833  55.1875229  65.2507401
  59.9196777  54.9986115  64.3158646  59.7305183  56.1375694  65.2946320
  81.4831314  61.7414589   4.4158039  80.6980438  61.2069702   4.2966571
  82.0060196  61.2595177   5.0565472  44.5294075  50.0167885  69.9451752
  43.9289780  49.3188782  69.6831818  44.0221977  50.5527878  70.5548248
  78.1187668  66.1268616  24.6784134  77.2126312  66.3103561  24.4304810
  78.6439972  66.5791168  24.0182400  83.5344162  69.9942856   7.8674994
  83.7440567  69.1755981   8.3169823  83.6286392  69.7878876   6.9375768
  63.7298431  71.2005692  53.9372253  63.9910889  71.5985260  53.1067963
  63.1175919  71.8280869  54.3214111   8.5739889  56.6724091  48.7958755
   8.1410990  57.0314178  49.5704422   8.2729397  57.2257462  48.0751686
  76.5505829  38.9507294  73.9403000  77.4401550  39.1941833  73.6841431
  76.3154297  38.2402878  73.3434753  30.8011742  42.2395134  13.2538433
  30.3651886  41.8342819  14.0034676  31.0813732  41.5017471  12.7121563
  43.9998245  49.2490616  27.4009171  43.7910728  49.2839546  26.4674091
  43.8799438  50.1480751  27.7069168  26.8989220  65.2138748  84.4046707
  27.3242168  66.0394135  84.6367035  27.6091881  64.6625214  84.0763931
   8.9225187  34.9342384  16.3995419   9.6903267  34.4053497  16.6162891
   8.2118454  34.5447617  16.9089355  68.3216019   1.7540163  85.1181488
  68.1102600   2.6072156  84.7391739  67.6141129   1.1798176  84.8249207
  67.2574692   3.7923379  68.6739197  67.0161591   4.6742687  68.9571152
  67.6404495   3.3873034  69.4520569  27.2997799  51.8090858  88.5348511
  27.0949993  51.6836815  87.6082611  27.6655083  50.9700470  88.8150101
  75.6917496  11.6706696  72.9441605  76.6268005  11.8668137  73.0028229
  75.6229019  11.0460005  72.2221603   0.5353846  10.4186316  88.4139633
  -0.0912269  10.6104002  89.1116867   0.4545250  11.1567326  87.8098907
  40.3181648  67.9947510  74.9318237  40.2143707  67.2202225  75.4845963
  39.7949905  68.6695862  75.3643951  81.4538574  26.3290863  54.4944992
  80.5490265  26.0181026  54.4662743  81.9750595  25.5747738  54.2195625
  31.6775188  58.8520737  35.1896591  30.9964504  58.2357903  35.4590454
  32.2938118  58.3220558  34.6841965   6.6559196  14.8417768  81.8424225
   5.9516926  15.0330448  81.2229767   7.4597864  15.0029650  81.3484116
  59.9985695  18.2355003  87.6696243  59.8798561  17.7901268  86.8307037
  59.9057426  19.1653748  87.4623795  77.3047256  63.9768143   4.8586440
  77.6444702  64.0674744   5.7489157  77.9672394  64.3914871   4.3060651
  21.0774231  66.0244217  20.7702560  21.1069698  66.1873016  21.7130337
  20.1746807  66.2224960  20.5211506  54.0636292  52.2300415  53.0061340
  54.4128799  51.3404770  53.0602646  54.2465935  52.6118355  53.8646164
  69.1393814  53.8054237  13.7964516  69.1969528  54.3315811  12.9989061
  68.9607391  54.4405060  14.4899874  56.1409225  41.6144676  48.7349854
  56.3275757  40.6838875  48.8591385  56.9387970  41.9684525  48.3421440
  25.8070049  14.5932789   4.5741386  25.5560360  15.5014124   4.4051995
  26.2408905  14.6193819   5.4269543  42.1844940  43.9566078  78.5618591
  43.0516663  44.2352028  78.2675247  41.6546288  43.9409523  77.7648468
  24.1037693  19.5279865  79.5051804  23.4354286  19.5290184  78.8199463
  23.6370029  19.7998028  80.2954178  12.0896902  42.3185387   7.7636919
  11.6971512  42.7292137   6.9933090  12.9158163  41.9540558   7.4460440
  38.2658424  66.3279572  65.0902481  38.2607841  66.5963440  64.1714554
  38.9896202  65.7047882  65.1537552  16.2856541   7.4695444  39.4038277
  15.6053019   7.4444923  40.0766754  16.9964180   6.9377837  39.7619858
  39.6069145  41.2159843  69.8338776  39.8115845  41.3272171  70.7623062
  40.1337891  40.4649544  69.5607758  53.7122040  37.4717331  11.9724140
  53.0129166  37.3875847  12.6206007  53.5607033  36.7504616  11.3616371
  82.0215836   6.9614348  63.8308372  82.1488037   6.8464284  64.7725525
  81.5394516   6.1811080  63.5572243   3.1295512  48.7244110   3.0275939
   2.4253597  48.4939728   3.6336002   3.6279984  47.9142914   2.9204283
   6.9434676  55.6152229   9.0176992   7.8452477  55.9075890   9.1501617
   6.5981069  56.2013741   8.3443613  65.8971863  47.9596176  78.7328110
  66.0605545  48.1554565  79.6554108  65.5780029  48.7840462  78.3658371
   9.8765755  59.2028618  54.1597519  10.0917244  58.3170280  54.4517021
   9.3832340  59.5816422  54.8873291   7.2324781  45.6168518  50.8746262
   7.4549656  46.3764458  50.3363457   8.0780630  45.2425957  51.1219177
  44.3469162   0.2932472  45.7807961  43.5119057   0.0455289  46.1778221
  44.7287064   0.9187540  46.3965950  72.7541046  37.5379524  57.4639626
  73.3317337  38.0417175  58.0373688  71.8758850  37.8615913  57.6645012
  64.4897537  29.5867176  58.4338799  64.5569763  28.6735001  58.1550522
  63.5970840  29.8428574  58.2019920  25.6458321  53.7569695  58.6469307
  25.5359287  54.4538803  58.0000420  25.0144444  53.9671059  59.3349915
  26.2243919  29.0921898  78.7977371  25.8344288  29.3402348  79.6359711
  26.1203823  29.8676929  78.2463608  50.2302628  41.3858147  16.1802559
  49.9622383  41.5600548  17.0824947  50.7881660  42.1282845  15.9485006
  36.5617714   8.4043789  26.1100311  36.2292442   8.1312580  26.9650536
  36.3175697   9.3273830  26.0417614  20.3908043   1.0529498  71.1453400
  19.7254715   1.7151924  70.9582596  21.2214928   1.5250349  71.0876770
  35.8117294  22.6170025  24.7235527  35.4131660  23.4560127  24.4923820
  36.0645065  22.2325630  23.8841820  38.2602768  69.3503799  55.4687805
  37.8842659  69.2837219  56.3465080  39.2007484  69.4479141  55.6178818
  84.9268494  14.1208506  62.6287918  85.6886063  14.6067915  62.3128548
  84.8905640  13.3435411  62.0713844  23.3910217  37.1592026  24.8886547
  23.8129063  37.7687302  25.4942322  23.1253853  36.4214706  25.4376755
  31.8885498   3.8635542  71.6115265  32.4615479   3.1200969  71.7990799
  32.3727951   4.6254287  71.9297867  11.3371134  15.4439526  46.4035301
  11.2856884  16.1706524  47.0244141  12.1649752  15.0102835  46.6104279
  45.2566452  21.7108650  18.1903782  45.0295944  22.6395302  18.2379475
  46.1193428  21.6538754  18.6011524  17.5794296  33.6696854  70.7878571
  17.1296463  34.3868332  70.3410568  17.4269409  33.8341255  71.7184143
  74.6508942  44.9998550  62.7143059  74.7122192  45.2506599  63.6360283
  73.7441330  44.7138710  62.6037178  52.2364883  17.3986797  76.3909454
  52.8500328  17.8464813  76.9734116  52.7932701  16.8855572  75.8053436
  81.7109451   3.1316743  29.0228939  82.3113327   3.0676584  29.7656384
  81.1254349   3.8541186  29.2497845  33.9379997  51.5046082   1.1328675
  34.2531166  50.7034912   1.5513746  33.7817383  51.2537117   0.2224472
  52.9960899  46.6464500  81.1792679  53.3184395  47.4258614  80.7266693
  52.1329308  46.8994141  81.5066757  54.1578789  48.6739311  79.6693344
  53.8971481  49.5862503  79.5431366  55.0875854  48.7192116  79.8925476
  79.7711639   7.8463058   5.6222920  79.0712280   8.3554792   6.0310197
  79.4162827   7.5919838   4.7704654  65.8731232  33.3247261   5.9484439
  66.8111725  33.4501381   5.8050222  65.6659927  33.8937302   6.6897697
   7.6660881  65.8348541  86.9344177   7.6351485  66.5042572  86.2509155
   8.4589252  66.0364685  87.4314041   2.9511364  26.9455051  75.3987122
   3.2683971  27.5623093  74.7390671   2.8485267  27.4734268  76.1905441
  82.6193771  62.3593864  11.9985342  83.4475861  62.2065773  12.4534492
  82.1112976  61.5628014  12.1519833  37.6305199   0.1761607  36.2874794
  37.8527222  -0.1995447  35.4355965  37.7452469   1.1192453  36.1705971
   7.6060915  51.5942612  41.9496994   8.2051458  50.8986588  41.6785927
   7.2818179  51.3113518  42.8047066  11.1516027  11.9562559  37.1901283
  10.9348087  11.5326977  38.0206909  11.8530254  11.4183397  36.8228645
   2.0849576  29.5065594  49.9926643   1.3136885  28.9579964  50.1356850
   1.7315563  30.3409500  49.6842270  59.3189621  50.1003189   9.0810995
  59.3344498  49.1534576   9.2205544  59.4730110  50.2067108   8.1423874
  72.9726181   3.8550839  79.1892853  72.5685730   4.7130575  79.0594482
  73.2919922   3.8747993  80.0914230  60.7235680  61.3346291  33.4874496
  60.4154434  61.4602852  34.3849487  61.1479492  62.1624107  33.2618103
  41.4478035  52.7339821   1.4544497  42.2919197  52.3997726   1.1511375
  40.8134575  52.3870811   0.8271552  36.9424515  66.3915482   6.9621477
  37.5962486  66.5434723   7.6445704  37.2401466  65.5977783   6.5176978
  31.3614521  63.7972374  49.8702774  32.1174393  64.3069916  50.1615982
  31.2421436  64.0479431  48.9542313   6.3297167  21.0856113  53.0873070
   6.5975919  20.3984261  53.6974297   5.3992224  20.9209709  52.9346428
  42.5587997  47.2593994  76.5418320  43.0540657  47.6657562  75.8306198
  43.1524734  47.2850380  77.2922440   0.0675061  63.8955460  61.3555031
   0.5602004  64.4932861  61.9178085  -0.1482781  64.4171066  60.5824280
  71.1792221  46.6203194  56.4805183  70.9469452  47.5391083  56.6150818
  71.7493973  46.6275406  55.7117004  43.1983452  36.7289848  77.9572372
  44.0059128  36.2310905  78.0843735  42.6122818  36.4146729  78.6456909
  52.0609589  67.8024445   2.9040132  51.1243935  67.9562225   2.7797978
  52.1042137  67.0268784   3.4633527  30.2947083  47.6717110  22.9323921
  30.2112312  48.6219864  22.8533840  30.7177315  47.5381355  23.7805901
   1.5771493  46.9593887  41.9986916   1.5786897  46.3470192  41.2630043
   2.4335380  47.3850174  41.9578285  21.1648750  56.9891014  59.9299622
  21.0475273  57.9331245  60.0361481  21.4272022  56.8816948  59.0156975
  83.3465195  29.1745739  39.9356956  82.4905472  29.6011715  39.8963203
  83.5080719  29.0475941  40.8705788  62.7126427  40.0430145  13.4012680
  63.4395142  40.3146439  13.9617186  62.3178253  39.3032036  13.8628168
  38.5245857  58.3614120  74.8219452  38.2202454  57.7120857  75.4559631
  38.0250168  59.1511307  75.0293274  58.5819397  43.6555138  78.6685181
  58.3275185  44.5188446  78.3426819  59.5373993  43.6498604  78.6110992
  37.6010132  63.5501747  42.7859421  36.9755783  64.1455994  42.3729935
  37.7986908  63.9576302  43.6292305  41.5240898  59.4922791  47.9996033
  40.8043442  60.0097198  47.6384201  41.8790932  59.0181503  47.2476692
  50.3106308  46.4308929  87.3846512  50.6004868  46.6944122  86.5112839
  49.9019012  47.2162666  87.7484741  35.6443138  49.3706207  68.8452454
  36.0917473  49.1531067  68.0274887  35.9442978  48.7068825  69.4662857
  28.8041878  70.6562881   2.6232765  29.2980766  70.5016937   1.8180405
  27.8887424  70.5405655   2.3687203  71.0883408   2.4003730   1.7071091
  70.7088776   3.1734624   1.2892871  72.0322418   2.5585718   1.6912881
  54.2165451  65.1464233  18.2123795  53.6772118  64.9193192  18.9698563
  54.0800781  64.4263611  17.5966568  74.9979248  20.8240032  83.7809067
  75.3564682  20.0231571  84.1634369  74.6344910  21.3032417  84.5255356
  56.9852982  67.2727509  69.5895691  56.5050049  67.8780746  69.0246506
  56.7163391  67.5090714  70.4772873  81.6088715   4.0499663  26.4384747
  81.8188171   3.7531986  27.3239594  82.4105301   3.8971121  25.9382687
  13.4200649  30.0541439  69.0779877  13.4553356  29.5389442  68.2720337
  12.9164667  30.8333035  68.8423386  65.9897995  26.6698914  76.7999420
  65.6114655  27.5363922  76.9491806  66.6266251  26.5617046  77.5063324
  71.2504272  70.0345078  77.0605774  72.0709076  70.1051178  77.5485001
  71.5198975  69.9983444  76.1428070  48.8649864  16.5888329  81.7820053
  48.6764755  16.5387554  80.8448868  48.9681892  15.6770935  82.0546112
  85.6188354  66.1235504  52.6199913  85.3815994  66.9432144  53.0536880
  84.8698044  65.5470657  52.7711601  51.8945885  65.7423782  50.2363930
  52.5079460  66.2280807  49.6849251  51.7770119  66.2956238  51.0086174
  63.5426598  30.9155312  83.0504456  63.1119537  30.9253693  83.9052124
  63.1973610  31.6859436  82.5993729  79.7696609  45.4340363  15.7134571
  80.2142258  45.2352715  16.5375233  79.7609253  46.3902359  15.6705961
  37.5458107  53.1210442   7.7295589  38.2168465  53.4607735   7.1375065
  37.2752495  52.2921982   7.3345304   1.4503925   3.3185449  78.6486740
   1.1798425   2.6071723  79.2291794   1.0791255   4.1062698  79.0460205
  18.4998074  35.0339012  55.0717697  17.7398071  35.5343628  55.3687057
  19.2088737  35.3072777  55.6537704  52.7657623  43.5774002   2.6393223
  52.7605667  44.1207962   1.8513319  53.1467857  42.7466545   2.3548763
  72.5203476  21.7419224  13.4331388  72.2807007  22.6686401  13.4329100
  73.0696793  21.6363945  12.6563959  86.6394196  52.5702858  35.2583275
  86.8111954  53.2868042  35.8693314  85.6930389  52.4354095  35.3073387
  83.9956436   0.1033481   5.5250659  84.3756866   0.6680382   4.8520694
  84.5490494   0.2411125   6.2938271  61.6917953  23.8798618  38.3654022
  62.0462914  23.7165318  37.4913979  60.9522896  24.4693661  38.2176056
   9.7372284   7.7404509   1.4797174   9.7728252   7.6665936   0.5260351
  10.5856314   8.1108751   1.7230916  43.0163460  71.4439087  21.3366909
  42.6308708  71.2921371  20.4737835  43.9602890  71.4566422  21.1784611
  33.1034470  14.7578678  35.0278320  32.8802872  15.6332054  35.3444023
  32.2925301  14.2571039  35.1166420  39.6739311  61.7477531  41.7709656
  39.8547325  61.9625931  40.8558769  39.0510674  62.4165840  42.0554619
   5.3073153  57.2169228  22.8587646   5.2680836  56.2609138  22.8859119
   5.2009950  57.4348030  21.9327736  68.9177170  37.8347588  32.7615013
  68.1143112  38.1484070  32.3462982  68.6189651  37.3844681  33.5515785
  61.5626984  51.2495117  20.2164688  62.4824905  51.2739334  20.4803257
  61.1931114  50.5133934  20.7040806  14.4299688   8.9254208  83.8219070
  15.0360880   8.9671736  84.5615768  13.7368593   9.5468149  84.0448456
   1.4833349  51.3196182  37.6885071   1.8981928  51.7681732  36.9516716
   1.0469508  50.5644150  37.2942162  63.6866379  23.9407101  18.8091373
  63.6464729  23.3834534  18.0319080  64.5845795  24.2720947  18.8201103
  21.3926010  64.7980423  28.3460560  21.0758343  65.4764862  27.7497330
  21.6166458  64.0630341  27.7752705   1.9751610  16.4242439  29.6945038
   1.1678609  15.9583321  29.4767342   1.6915481  17.1446552  30.2573566
  42.2831841   4.5417786  82.7365799  41.9576149   4.9737802  83.5262680
  42.6921921   3.7371049  83.0550766  31.2764492  53.8731346  36.9270782
  32.0922318  54.2153397  37.2926254  31.1866379  54.3176994  36.0841522
  85.1630020  59.0078430  84.2220764  84.5299988  59.5885315  84.6443787
  85.5874405  59.5558090  83.5619125  52.4314079  24.5869541  74.4289551
  52.1517639  25.1860390  73.7367630  51.6205406  24.1831608  74.7382736
  39.6153526  37.9071579  73.9427567  39.3745079  38.6103973  74.5458145
  40.4300766  38.2063408  73.5390854  39.5079117  70.4644241  76.6449432
  38.7585831  70.1231766  77.1330872  39.7674141  71.2515182  77.1238708
   9.5315800  57.5795631  39.7795982  10.3432970  57.6662140  40.2794380
   9.0707016  58.4056015  39.9261780  14.8424568  63.6264610   5.8344727
  15.3229284  64.1246719   5.1732903  14.0106544  64.0910110   5.9268088
  86.9399185  51.0536423  18.0504360  86.4869156  50.2278862  17.8797016
  86.3520584  51.7252655  17.7046452  32.2318077  41.1212387  68.0929565
  33.0719376  40.6896362  67.9375992  31.7395802  40.5007782  68.6305237
  31.4009304  37.2785835  20.3219795  30.9207878  37.5561104  19.5418034
  32.2789268  37.0715446  20.0018444  61.5394516  58.1388321  18.1425209
  61.9607315  57.5911255  18.8049202  62.1939125  58.2220421  17.4489861
   9.3517399  15.6100693  11.5832996   8.5331697  15.7849560  12.0476160
   9.3158808  14.6757841  11.3782244  81.4340820  20.1307373  33.9763947
  81.4865189  21.0416527  33.6870613  81.7676392  19.6245613  33.2356110
  30.7528419   5.2009630   7.0610213  30.1736355   5.3047457   7.8159914
  31.0683765   4.2994180   7.1233606  42.8912468  65.4602737  40.8516006
  43.7815475  65.3316650  41.1787949  42.9394798  65.2216339  39.9258804
  73.5796661  40.7757301  71.9043350  73.6565628  40.0468140  71.2887039
  73.3315735  40.3646965  72.7324219  16.9237957  31.2812271  83.0381012
  17.6223602  31.9265747  82.9296265  16.7612457  31.2604504  83.9811707
   8.0930357   2.2558339  57.9665833   8.1863270   3.1536636  58.2850647
   8.9883385   1.9740855  57.7787476  33.9871941  61.7105484  53.7048302
  33.1645622  61.5618210  53.2385788  34.6472702  61.2644691  53.1742249
  67.8657074   2.5480592  71.0347366  67.0878754   3.0261073  71.3222809
  67.8970490   1.7780080  71.6024246   5.2620144  12.1928024  53.3249741
   6.0369520  12.1370716  53.8840790   4.5274215  12.2344227  53.9372444
  75.1122360   6.9819503  44.6893692  75.4245682   7.4904714  43.9409790
  75.6263885   6.1750240  44.6619873  56.9303322  13.3542299  42.6875992
  56.6194534  13.4158926  41.7843895  56.8184662  14.2370596  43.0402031
  71.6417465  53.6284218  37.2743073  71.1462250  53.7949104  38.0761604
  72.1418533  54.4318390  37.1306381  18.8901348  54.8074188  56.7004585
  19.7290630  54.3850174  56.8848724  18.6161842  55.1732674  57.5414963
  76.2293243  53.9597435  10.2812634  75.9171219  54.8425903  10.4796076
  75.9517441  53.4334450  11.0310555  18.8980846  70.6630402  20.9077282
  18.4064369  71.3547363  21.3505173  19.3481770  70.1994324  21.6139317
  57.3731232  22.0859318  39.3134155  58.2833862  21.7963829  39.3751488
  56.9056206  21.3315659  38.9548035  66.6812744  47.8041306  12.6453190
  67.5174179  48.0504074  12.2497931  66.4234161  48.5707626  13.1571941
  76.1520691  36.4563332   5.4711151  75.4333496  36.6642532   4.8740921
  76.8907166  36.2561150   4.8961797  37.5903740  32.2915421   6.7901073
  37.3627014  31.3754196   6.6316195  36.7605858  32.7619019   6.7098117
  82.3776093  67.8680115  77.8833466  81.7610168  67.3177109  77.4004211
  82.9096527  67.2493439  78.3837509  61.6606293  23.7328300  15.0818710
  62.4294815  24.3014011  15.1245613  61.6078644  23.4699497  14.1629906
  64.6101074  20.2616596  39.9789467  63.7617455  19.8781834  39.7565727
  64.4951248  21.2001991  39.8301010  86.6254807  59.3632545  39.4081345
  86.5405960  58.8756332  40.2274361  86.4314957  60.2694931  39.6475754
  17.9426384   1.6679780  23.5568924  18.3424969   1.9174392  22.7237568
  17.1397572   2.1871722  23.6021919  68.1076431  54.7305222  81.7158737
  68.0450821  53.9269562  81.1995392  68.9634094  55.0946999  81.4894257
  53.3312836  68.6828537  65.2244873  53.6316795  69.4575195  64.7492065
  52.6436501  69.0095444  65.8047180  84.1024246   3.2406673  22.3436775
  83.3942719   3.7846813  21.9990082  84.8268509   3.8505824  22.4831009
  19.0176392  48.0042915  75.6866913  19.8065090  48.5261345  75.8336411
  18.4137135  48.2842255  76.3745499  14.2627010  68.7834549   8.4611855
  14.4115000  67.8381577   8.4386663  13.4674339  68.8883591   8.9834661
   9.1171036  49.6090355  75.4877930   8.2980251  49.4704819  75.9633408
   9.1685543  50.5576553  75.3706970  81.4710083   9.2844086   3.5589368
  80.9459686   9.6510582   4.2703700  80.9092941   9.3527832   2.7869039
  13.9169312  11.5195799  36.8167915  13.8312645  10.6155539  37.1194992
  14.1190996  11.4418240  35.8844223  70.9009857   3.9674006  26.9876823
  71.8579941   3.9513214  26.9777336  70.6486282   3.7628701  26.0872841
  46.7974129  25.3879528   7.2720776  46.2158775  24.7423840   7.6736894
  46.3180885  26.2140884   7.3351278  29.2588177  28.0404644  85.8234406
  29.6332512  28.8974819  85.6195984  29.2865868  27.5635338  84.9939880
  31.5055408  48.6488838  86.4746399  31.0533066  47.9713173  85.9720306
  32.4006386  48.6413422  86.1355667  41.8878593  58.4748306  57.1296654
  41.4568176  59.2830467  57.4075623  42.7476425  58.7570076  56.8176193
  79.5669479  54.2471161  68.6043243  80.3047867  54.5972672  69.1035461
  79.1007538  55.0220184  68.2906036  61.6975822   1.1271428  55.1840057
  61.3570251   0.7412835  55.9910774  61.6157570   2.0715311  55.3169250
  55.9219780  68.1183014  63.3392830  55.0144005  68.3315659  63.1223640
  55.8590279  67.3434906  63.8978004  -0.0415593  45.6185722  62.1164436
  -0.0621538  46.0507011  61.2625885   0.6231033  46.0976410  62.6113701
  80.0501938  52.4922905  40.0263138  80.6861267  51.7846222  39.9212990
  79.2855911  52.2030563  39.5283585  69.3528671  45.7439308  14.8805799
  68.7711563  44.9993744  14.7273569  69.4469070  46.1551933  14.0213642
  71.4491196  46.6054497  72.6038284  71.5242996  47.3302231  73.2245407
  72.1463776  46.7621613  71.9670410  72.3846207  66.9925842  84.4993591
  71.9645386  66.7352829  85.3200684  73.0089188  67.6725006  84.7527237
  30.1873283  61.4472237  47.1486664  30.5106297  62.3389587  47.0201492
  29.8012848  61.4563179  48.0245209   4.2501211  71.2890244  47.5859642
   4.5376978  71.8106232  46.8366585   3.3088794  71.4528580  47.6447372
  59.5999756  69.2971039  35.0857544  59.2327461  68.5959778  34.5474243
  60.1175957  68.8426437  35.7504120  24.4992275  58.5349350   9.0536041
  23.6662998  58.9573135   9.2635002  24.9142876  59.1238213   8.4233885
  35.4043884  56.2227859  81.9906616  35.4438591  56.0206604  81.0558777
  34.4738998  56.3625450  82.1664124  25.4065647  46.5096245  64.4616623
  25.4166660  47.4389687  64.2326431  26.1169109  46.1280975  63.9458351
   0.0739018  64.8756485  15.6259604  -0.1572635  64.7257080  16.5426464
   1.0049692  64.6593704  15.5752792  78.2861557  60.2084923  13.4663792
  77.8059387  59.4319115  13.1790562  77.6524506  60.9222527  13.3942719
  11.5008602  36.8390198   4.1927814  10.7733765  37.2308922   4.6759310
  11.7904987  36.1120491   4.7440147  68.6501923  37.7595901  46.3596649
  68.3237076  38.6588173  46.3916473  68.6732101  37.5461693  45.4268456
  66.9704514  63.5190887   7.1934662  66.3797379  63.7224884   6.4682693
  67.7349472  64.0750351   7.0428019  71.3730621  19.2928619  78.8299026
  71.4852142  20.1004658  79.3313293  70.9302063  18.6959763  79.4330902
  28.7916431  62.7004623  14.9966402  28.5528259  62.1232986  15.7219563
  28.3884392  62.2979126  14.2274761   2.2372131  51.3866577  59.8074074
   2.6121562  51.3109512  58.9299583   1.5298973  50.7418938  59.8220749
  79.7560349  46.6760712  19.0366173  80.3904419  47.3386993  19.3099098
  78.9076691  47.0350418  19.2967205  84.8932037   3.2093129  15.9802580
  84.7182770   3.9858096  15.4485769  85.7412262   3.3844333  16.3882065
  55.0327911  31.1185627   6.6023078  55.0166588  30.3474674   6.0354009
  54.6890793  30.8074017   7.4397287  47.0991745  51.2071228  15.7555876
  46.7337952  50.3671875  16.0334988  47.4951363  51.0257950  14.9031973
  70.7001953  40.7414474  38.0187683  71.0524368  40.9301949  37.1489792
  70.9733734  39.8416824  38.1977272  40.1531372   4.5476460   5.9719429
  40.4283638   5.3714442   5.5696511  39.5580063   4.8109612   6.6738796
  50.8158836  45.6757011  14.1191006  50.2518768  46.1847610  14.7013273
  51.7057838  45.9039688  14.3878069  14.6371012  57.2976532  21.8826065
  15.2793407  56.7857857  22.3742886  13.8193607  56.8089066  21.9756546
  60.5023727  52.1964149  71.7105026  60.3704681  52.9025345  72.3431396
  61.4076080  52.3027687  71.4181442  24.0992069  22.9121132  85.6636353
  24.7258091  22.3298340  86.0932312  23.2781925  22.7699108  86.1347427
  71.2676392  43.3987961  72.5270233  71.6755981  42.7554283  71.9474792
  71.9304962  44.0813980  72.6314468   6.7986131  57.1001854  35.4163971
   6.5182366  57.7525635  34.7745056   7.4961987  57.5329323  35.9086723
   0.0307625  37.7598228  54.3909378  -0.3534025  38.6347923  54.3354607
   0.9728122  37.9156647  54.4579239  60.9261360  61.2258301  46.1884575
  61.0363350  61.4693260  45.2693291  61.0696182  62.0400696  46.6707993
  71.9093475  13.6107531  41.4185715  71.7968979  12.8507261  41.9894867
  72.7685623  13.4831896  41.0164299  38.5541115  64.3767166  88.8624954
  39.2064209  64.1660538  89.5305862  38.9012146  63.9901695  88.0585480
  45.7292786   0.3566496  48.8692932  46.0916214   0.9248065  48.1894836
  46.4865265   0.0996981  49.3953972  64.9372711  42.6782837   9.5139875
  65.0305786  43.1663284  10.3321180  65.1071777  43.3246956   8.8287764
  56.3778839   2.4883769  46.6781502  56.0947189   2.6925468  47.5694237
  55.5674667   2.2905602  46.2087631   7.9201488   6.3006387  48.6190987
   7.7873726   5.4153166  48.2802658   7.2225881   6.4173603  49.2640915
  37.5029716  16.3913860  21.8331833  36.7469444  16.3195381  22.4158440
  37.1877632  16.9129162  21.0950241  16.3948612  20.6900826   5.0138907
  16.8938065  19.9497356   5.3591032  15.9193707  21.0322762   5.7708874
   7.8255730  36.2824745   3.3171957   8.5078077  36.3650818   2.6508901
   8.2686796  36.4878273   4.1404324  68.6068878  39.5528183  82.0804825
  68.9533920  40.3536644  82.4739456  67.7835159  39.3957176  82.5426559
  69.1295242  28.0367489  74.2781143  68.7058640  27.2737923  73.8848724
  70.0560837  27.9348698  74.0605469  65.9657288   3.0577800   0.7320740
  65.3910828   2.8747063   1.4753789  66.0859528   2.2084155   0.3073885
  58.6688461  17.7055454  21.4298744  59.1997108  18.1806965  20.7906227
  58.8503532  18.1408577  22.2628136   9.9592495   6.9931135  55.8268242
  10.7600574   7.4738989  55.6175728  10.1421976   6.5784883  56.6699409
  25.1971817   7.3768520  68.1912842  24.6551704   8.1642418  68.1415482
  24.6197033   6.7118487  68.5661469   0.4084375  37.6099739  68.5881882
   1.1484542  37.8189125  68.0181427  -0.2569658  38.2609138  68.3651428
   0.7102975   9.9673681  28.5051384   1.4812149   9.9687834  27.9377613
   1.0233926   9.6045227  29.3337193  72.4157867  28.5515156  10.9320326
  73.3421860  28.7923565  10.9360428  72.0961533  28.8432732  10.0782490
   3.8721807  58.1255760  13.0372124   4.3556409  58.4625397  13.7915020
   4.3986344  57.3898468  12.7245131  49.8059578   8.5673933  68.2702408
  50.4898224   9.1744881  68.5530853  50.1382370   7.7028637  68.5119247
  26.5850067  28.0643692  84.0088882  26.0772343  28.4583454  84.7182388
  26.8537655  27.2119541  84.3515091  14.3851156   6.8459663  81.2165070
  14.0732098   6.0247693  81.5967484  15.2397585   6.9888482  81.6231995
  15.7497597  69.7354202  23.7708893  15.2177677  70.0649109  24.4952164
  15.7402325  70.4424667  23.1257401  17.7812271  44.2135239  48.8237534
  17.0401344  44.4730148  48.2763252  17.9694519  43.3126335  48.5606918
  50.0458488  15.6946688  54.7208748  50.6327400  15.5910845  55.4699135
  49.2021446  15.3650169  55.0302773  21.1035233  15.1803989  46.7867928
  21.4447060  15.0437040  47.6706161  20.1756706  15.3769503  46.9159737
  35.9310341   5.1297321  10.1520824  35.3909111   5.9106674  10.0310898
  36.6488533   5.4198341  10.7149410  17.9273624  65.5791321  70.9215088
  17.6335983  65.2268295  71.7616348  18.3478298  66.4097672  71.1439667
  74.2609406   9.0523443  61.0619087  73.8725052   9.9240561  61.1358299
  73.8318863   8.5400381  61.7472458  79.5288696   4.8569045  43.6316071
  79.0142517   4.3634248  44.2702599  80.1337280   5.3762832  44.1613388
  63.5953827   2.7848878  58.4969063  63.2454567   3.3481429  59.1872177
  63.1738815   3.0972345  57.6962776  77.5073166  53.0279999  16.3512268
  77.8707275  52.1552391  16.5010700  76.8899384  53.1572266  17.0712128
  74.5559082   2.3987188  18.7637596  74.5026474   1.7145845  18.0964088
  74.3057785   3.2007518  18.3050537  40.6368904  34.4310684  31.7042751
  41.2367439  34.6322937  30.9860039  41.0919189  34.7365417  32.4890480
  71.5019379  45.0923691  77.9250793  70.9293823  45.8290176  78.1389847
  70.9584274  44.5141144  77.3898697  49.2482643  15.8738317  85.3692093
  49.0692558  15.1888657  86.0134277  48.4239883  16.3548737  85.2957611
  45.6027870  54.3405342  41.0694618  46.3639870  54.4129219  40.4936447
  45.9739075  54.2606316  41.9481659  77.2867966  23.9682121  43.1372795
  77.4911804  23.6116066  44.0017433  76.8427734  24.7965469  43.3187599
  39.4746361  47.5512352  16.8698006  40.0518379  47.1521225  17.5207825
  38.7034798  47.8225670  17.3677292  21.7683983  22.2907753  13.8280344
  20.9125366  22.0796509  14.2010746  21.5816727  22.9464703  13.1561499
  26.7585201  63.9761505  64.3994217  25.8893566  63.6698151  64.1406784
  26.7803822  63.8602028  65.3493195  32.2650948  52.7007828  83.3325958
  33.0768471  52.2223206  83.5010071  32.0779572  52.5370941  82.4082489
  45.3135376  43.1906052  34.3400650  44.9654083  43.6838226  33.5972519
  44.5519066  43.0250168  34.8957024  66.6494293   0.6184593  41.5150642
  66.3646011  -0.2429097  41.2098579  66.1148529   0.7864103  42.2911110
   6.5179009  68.7744064  79.0235596   6.6004658  68.3778839  78.1562805
   6.7608280  69.6908798  78.8920212  50.3970451  41.0370560  27.6649780
  50.0294952  40.3800125  27.0738487  51.1990280  40.6359901  27.9999447
  57.6761093  61.6809654  20.6547279  58.0467796  61.2198257  19.9022751
  57.8288803  61.0933876  21.3947620  60.3333740   4.8467131  72.3764038
  60.5790405   4.3795948  71.5778580  59.9230728   4.1800413  72.9272537
   9.2847538  27.2296009  64.7626801   9.7005501  27.6698685  65.5039673
   9.0729542  26.3558311  65.0911560  72.8943100  21.0004997  71.8718948
  73.1065063  20.1443138  72.2435837  72.0757675  21.2512779  72.3000717
  12.1356611  60.7850113  32.9553223  12.7935085  61.4795341  32.9886017
  11.7489882  60.8629608  32.0831757  79.1463318  24.6500282  84.4444504
  79.9871597  24.3238640  84.1237411  79.2208710  25.6025314  84.3860245
  15.8452501  51.6254768  65.4421005  15.4193230  51.0924416  64.7707672
  15.8055754  51.0896072  66.2342529  72.8462296  15.4004679  23.5222759
  73.3622513  16.1773777  23.3069458  72.6952438  14.9721251  22.6796856
  71.0004349  10.1879435  39.4399567  70.1332169  10.5382643  39.6435280
  71.3535461  10.7888889  38.7839050   8.3076534  45.2532501  57.9108009
   7.5617409  45.0869255  58.4871559   8.0196772  45.9716988  57.3476601
  81.3098373  54.6838150  21.1302872  81.6101456  55.5402451  20.8260269
  80.4835815  54.5417557  20.6683807   1.6712190  32.8509598  49.4350967
   1.0852571  33.1655807  50.1234970   1.1779089  32.9770126  48.6245499
   4.6649680  59.1360283   9.1183186   4.5547624  58.2913742   8.6816912
   5.5874906  59.1554947   9.3728867  13.4850912  22.4930496  57.7587852
  14.1119852  23.2146416  57.8091850  13.9795094  21.7731724  57.3669205
  76.4168091  28.6862297  63.4188652  76.0548325  28.3304482  62.6073112
  77.3569794  28.5178738  63.3558235  42.8043594  14.9240866   0.8181008
  42.9857559  15.5357990   1.5316381  43.6520996  14.5241375   0.6241621
  84.8418045  61.8871117   3.1835172  84.5171051  61.8819962   4.0839486
  85.7733231  62.0913429   3.2659731  71.8320847  60.8229218  83.4685745
  72.0110474  59.9086838  83.6885300  70.8955994  60.9303932  83.6349258
  56.8353653  66.5303268  20.9179783  56.6869812  65.5941086  20.7848625
  57.7870712  66.6285019  20.8888836  64.5392761  51.1390915  56.1123810
  64.3162155  51.1553154  57.0430832  65.0810547  51.9174194  55.9823303
  15.9927797  45.5215073  47.1718063  15.2055645  45.6918526  47.6890144
  15.6651373  45.3289261  46.2932854  44.0908661  18.1755638   1.2619156
  43.9893417  17.5036373   1.9360361  44.9862938  18.4945335   1.3746146
  22.5326996  67.3900833  12.1383247  22.6283894  68.2898560  12.4505625
  21.6349983  67.3449707  11.8091879  40.8677444  54.6244926  82.0875320
  40.0874176  55.1463013  81.9003525  40.6057281  54.0519218  82.8084641
  20.1194382  39.1854782   4.3651214  19.3028851  39.2506485   3.8699188
  19.9116001  39.5618477   5.2203283  27.1681805   5.4684887  57.4938774
  26.7740822   6.0161924  56.8149529  27.7682972   4.8933406  57.0192223
  61.1261177  46.8664856  57.3843575  60.4814758  46.6713753  56.7042084
  61.7907181  47.3932304  56.9404221  74.0222244  26.9669380  87.7348099
  73.3477325  26.5935631  88.3021622  73.5467224  27.2570801  86.9563828
  39.9677582  49.0063744  76.6525726  40.7489204  48.4545479  76.6914062
  40.2524300  49.7919502  76.1856003  61.4139748  22.0752563  17.2940731
  61.4711113  22.4766006  16.4269562  61.9595299  21.2912350  17.2315331
  30.9922733  36.0028114  72.7476349  31.2005386  35.3184395  73.3836288
  30.5281277  35.5451469  72.0466690  65.2574844  59.1361313  27.8792324
  64.8622437  59.0934372  27.0084896  64.5172195  59.0658875  28.4819832
  43.1263657  45.2987595  13.1799030  42.6573257  44.7944031  12.5151796
  42.5331879  46.0176926  13.3978662  70.1528244  62.3192291  22.8314457
  69.7567444  61.5142441  23.1651382  70.7170486  62.0292740  22.1146431
  58.0981216  24.6528473   8.7343302  57.9970932  24.1914482   7.9017816
  58.9692383  25.0465927   8.6857805  12.5929089  69.0272293  24.2364998
  12.1345911  69.2058792  23.4153652  12.2567434  69.6840744  24.8462372
  26.0640659  10.8773890  43.3828545  26.8914013  11.1221399  43.7973976
  25.7362938  10.1508694  43.9129181  60.8811798  10.0414782  49.0477600
  60.3596039  10.7838535  49.3528366  61.6857872  10.4361420  48.7114944
  53.8514023  54.4625206  71.0153122  54.6868935  53.9973335  71.0575562
  53.6997871  54.7643814  71.9109192  79.8523178  22.9546661  18.4077168
  79.5213165  23.4915867  19.1277103  80.6431580  22.5449791  18.7583771
  37.4606895  39.2937622  80.3416824  37.7401352  38.5332756  79.8319778
  36.8127594  39.7286682  79.7873611  73.4482040  59.5456390  32.5295677
  72.7663345  59.0330200  32.9637451  73.1450653  59.6304703  31.6256123
  58.7034874  25.7467728  85.3233795  59.3802185  25.7424412  86.0003204
  58.0854683  26.4205151  85.6068420  36.9670296   7.0309043  33.2674370
  36.1743279   7.0484490  33.8036690  36.7053986   7.4346228  32.4399185
  13.1375608  55.8976288  70.2802582  13.1794167  55.1785965  70.9107132
  12.2135916  55.9479523  70.0353470   5.5085258  21.1796093  88.9826279
   6.1869555  20.5460320  88.7490845   5.9450655  21.7897873  89.5770569
  58.8394699  23.8050690  61.6244469  58.7114067  24.7509232  61.5524178
  59.5887146  23.7088966  62.2123375  50.1953354  19.3605652   1.4225839
  49.6211128  19.2950306   0.6595629  50.2408829  20.2984886   1.6082150
  45.3717117  63.5377502  53.3995972  45.0911713  64.4274216  53.6141129
  44.6804314  62.9771423  53.7518463  48.3199234   6.4960022  70.3665695
  48.7699394   6.2486162  69.5587845  48.4705124   7.4379563  70.4458008
  83.0008850  52.6521072  19.1310883  82.4323349  52.4312134  18.3933926
  83.3283005  51.8081779  19.4422302  16.6200657  27.8409557  23.4442921
  15.6789980  27.8878746  23.6128807  16.7351646  27.0273628  22.9533195
  29.2423019  58.7253418  40.5709915  29.7176208  57.8993950  40.6610909
  29.7982960  59.3705330  41.0078316  70.2586517  53.6990128  58.7854424
  69.7582245  53.7150116  57.9696350  69.9441910  52.9199142  59.2440834
  66.3202820  44.9208984  56.9350548  66.5988617  44.8638535  57.8490410
  67.1038513  45.2026749  56.4629784   9.0897636   3.6948595  72.0874252
   8.9271593   3.0344248  72.7609406   9.7558737   3.3024335  71.5230408
  58.4958420  64.0696640   2.9136913  58.0443611  63.8628464   2.0953865
  57.9110603  64.6805649   3.3620973   9.3164635  23.0396576  31.0669937
   9.1179647  22.2817039  30.5171413  10.2025394  22.8758335  31.3898907
  69.1169434   5.9793229  72.7216644  69.8625183   5.3848920  72.6380386
  68.7389297   5.7706809  73.5759506  45.7165108  39.3403130  31.3167458
  45.0831451  39.9575920  31.6828728  45.8728409  39.6570015  30.4270821
   9.7892742  41.8175354  13.5701199  10.6950560  41.8722038  13.2654839
   9.6974487  40.9195213  13.8885098  71.0828247  40.5304031  42.5546341
  71.4947586  39.6713371  42.6470871  70.2686996  40.3560677  42.0823708
  22.2281895  65.6018524  14.5237465  22.9719334  65.8987350  15.0480947
  22.5226669  65.6925201  13.6174936  45.2257843   0.9633589  37.6030617
  44.2923813   1.1296650  37.4714050  45.3069153   0.0103478  37.5653877
  25.6522350  66.7091141  50.2422943  25.3097820  65.8219833  50.1329460
  26.2034111  66.8496704  49.4724388  29.5676441  35.6859703  21.2976952
  30.1778641  36.3860512  21.0658512  28.7886257  35.8628883  20.7703781
  42.5234947  10.8161144  14.8202448  42.1568451  11.0263062  13.9613972
  42.1904945   9.9400835  15.0149498  77.3251801  51.0839005  88.8026047
  77.9669418  50.8922424  88.1187668  77.6210175  50.5757523  89.5579147
  25.5973816  65.4422531  56.2744637  25.1864262  66.0480652  55.6577454
  26.0092545  64.7791977  55.7204247  24.6464577  12.3552427   4.3818860
  25.4223270  11.8753757   4.0920811  24.9488430  13.2570534   4.4892759
  46.6458397  63.0651741  15.1029015  45.8879471  62.7477112  14.6119375
  47.0352631  63.7321358  14.5374460  53.7630424  44.2490654  52.0332413
  53.0272446  43.8260918  52.4758759  54.1426010  44.8251762  52.6967621
  27.7090130  24.8428421   5.2174282  28.5702496  25.2258377   5.3842168
  27.1072083  25.5867901   5.2420545   0.9594676  49.5001106  62.2795181
   1.7663654  49.9554825  62.5199051   0.5977459  49.1978302  63.1125908
  13.5338507  63.2289581  62.2041397  13.4937000  63.6886673  63.0427589
  13.8320971  62.3474541  62.4282570  11.8884611   7.8617725  59.4412842
  11.8753653   7.0688515  59.9773216  12.7985888   7.9431405  59.1561852
  27.7890682  19.6090889  24.5425320  27.3154640  20.3756733  24.8654575
  28.0684681  19.8542175  23.6604443  30.9500771   5.8246765  79.7738800
  30.1186562   6.0125360  80.2094040  31.3132362   6.6863089  79.5690918
  65.1149292  61.0248451  13.5091696  65.0245819  61.9740105  13.4245720
  64.6159363  60.8059540  14.2961435  69.4760818   4.2453017   5.6003742
  69.7005386   4.0351129   6.5068359  69.2308502   5.1702857   5.6226635
   8.1398077  43.4772186  33.5482140   7.2869501  43.8729744  33.3686600
   7.9329658  42.6461258  33.9756927   0.4499972  50.4546394  44.1948814
   0.4570488  49.7337685  43.5651741  -0.0652554  51.1397057  43.7689362
   5.0212989   4.5876002  41.7841454   5.9539289   4.4717293  41.6024666
   4.9082656   5.5349412  41.8616028  76.0783768  46.6107368  40.7896881
  76.2658386  46.2793579  39.9114647  76.7110214  47.3173027  40.9191742
  63.9534149  37.7488403   5.0976954  64.0667114  36.8268776   4.8666396
  63.1719246  38.0219040   4.6171389  82.9056854  12.4512024  58.1279259
  82.0971756  12.7952147  57.7481918  82.6128387  11.7983255  58.7637138
  67.2870255  24.9349422  38.3656387  67.3366318  25.8907795  38.3536034
  66.3496628  24.7433662  38.3359833  48.0233078  44.5303917  29.1125317
  48.4885750  43.7225647  29.3297272  48.5178070  44.9026871  28.3823967
  40.1228485  62.4451447  60.4983177  39.1730843  62.5497017  60.5552979
  40.2453079  61.5942421  60.0773697  25.2298889  57.9426231  24.2229652
  24.9024677  57.7046242  25.0903664  25.7589951  58.7259979  24.3733253
  74.2527466  62.9147530  33.0260582  74.7542038  63.7086868  32.8404770
  73.3379211  63.1864433  32.9517860  37.9103622  22.9516659  75.9418869
  37.4748077  22.9695225  75.0897141  37.8896523  23.8608418  76.2405548
  50.5736237  63.2417603  37.0890656  50.2633209  63.4286537  37.9750748
  49.9079933  62.6615410  36.7195816  20.2748966   7.0078473  26.9386101
  20.6332989   6.6490054  26.1268139  20.1754684   6.2484684  27.5127964
  71.6609879  24.7923622  54.0130806  71.2175446  24.0982590  54.5007401
  71.0266113  25.0610752  53.3485641  63.3502541  70.8386917  10.7274647
  63.4554939  70.3898010   9.8886261  63.1266136  70.1425781  11.3452330
   4.9238276   0.9898441  25.5780373   4.8097010   0.0400755  25.6118984
   4.2251406   1.3350019  26.1338577  62.8594971  26.3057652  78.9752274
  63.1574097  26.5351200  79.8554916  63.0174637  25.3641834  78.9066544
   1.3416460   6.8523507  64.9542084   0.8007824   7.6410832  64.9142151
   2.2146780   7.1719065  65.1820908  81.5846939  39.5149193  20.8082886
  81.8671036  38.8026810  20.2345333  81.8606491  40.3114738  20.3548813
  60.5569534  13.0444555  12.9033775  60.3949890  12.1397991  13.1709538
  59.7933464  13.5278654  13.2187395  45.9151039  27.3271751  53.8133392
  46.6918373  27.8787651  53.7202530  45.1852646  27.9454288  53.8497887
  44.8697395  44.2446823  55.9958229  45.6832466  44.7448807  56.0609779
  45.0983505  43.4841499  55.4614410  77.9414825  61.3750763  53.5424805
  78.8377914  61.0690269  53.4039345  77.8346481  62.0935020  52.9190369
  83.2260208  28.5799503  50.7658195  82.9682236  29.4019470  50.3485756
  82.9720459  28.6867046  51.6825180  25.7319527  41.0150070  73.9843826
  25.0505161  40.6993408  73.3908920  25.2572193  41.5081635  74.6534576
  23.4216499   6.3177228  42.9633713  23.8846989   7.0325265  42.5264816
  22.7885380   6.7550845  43.5326843  61.4661102  56.5079422  73.9397888
  61.0398903  57.0557060  74.5989761  60.8301392  55.8168106  73.7550964
  68.7533951   6.7854900   5.7822394  68.3071899   7.5218167   5.3639631
  69.4918137   7.1835022   6.2432771  11.4416513  71.1231918  83.5188065
  12.3516512  71.3738937  83.6778107  10.9876938  71.9522629  83.3678360
  73.4052200  27.0771389  30.5862579  73.3987579  26.8767357  31.5222225
  72.8346176  27.8409195  30.5009117  13.0248585  65.1056442  50.3889580
  12.7245493  65.6280823  51.1326675  12.8087473  65.6352005  49.6214294
  67.7499161  43.5042992  49.8476830  67.2675858  43.7526665  50.6362877
  67.8319168  42.5524559  49.9069023  52.1197090  54.9967308  47.1954346
  52.9720116  54.7237167  47.5349579  52.2379417  55.9180298  46.9642143
  24.7487278  41.1666107  86.0281906  24.2595692  41.8872910  85.6312332
  24.0745831  40.5661736  86.3463669  74.8995743  26.0560970  46.3747749
  74.3533325  25.3413830  46.0476189  74.9729843  25.8905258  47.3146820
  23.8901787  46.3411751  46.1461868  24.6999493  45.9705696  46.4971199
  23.2381287  45.6512413  46.2688713  50.0168114   8.6347580  58.3207321
  50.8144302   8.7332420  57.8007965  49.8558121   9.5072651  58.6799545
  22.2724380  22.0156879   0.7598535  23.1545410  22.2782917   0.4968593
  22.3920174  21.1661663   1.1844082  63.1929321  13.5256491  63.9286308
  63.8844528  13.1974812  63.3538818  62.8752708  12.7488003  64.3888779
  13.8742514  56.6317253  11.3483114  14.7456303  56.6164551  10.9524612
  13.8444471  55.8446426  11.8922272   3.2976477  56.8572502  76.0800858
   3.6026695  57.2984276  76.8729019   4.0776358  56.4262657  75.7306595
  84.2215042  65.2308197  60.8942528  83.4283524  65.7352524  60.7134628
  84.2928925  65.2306824  61.8487854  62.0189247   9.9538698  60.5704155
  61.6109428  10.2548037  61.3823357  62.5243416  10.7064228  60.2630882
  30.6136799  48.5316467   9.4523458  30.3812618  48.4127655  10.3732586
  30.9905186  49.4106178   9.4119663  48.8803864  23.7718830  25.8867779
  49.3078232  23.0545464  25.4188499  49.1375389  23.6486664  26.8005180
  53.8750648  22.0600529   8.2399826  53.0084076  22.3477345   8.5269957
  53.6986008  21.4105911   7.5593271  32.4909935   2.5738475   9.4727592
  32.5350227   3.5122108   9.6565189  33.2365379   2.4075046   8.8959370
  80.3181763  14.8268557  37.1638031  80.2413483  13.9641085  37.5712318
  81.1037750  15.2078848  37.5560913  29.9407215  64.0168915  25.3367596
  30.4613323  63.2399178  25.5405102  29.2329311  63.6917992  24.7803612
  84.8724976  46.4564056  25.9311867  84.6502686  47.3249321  26.2666016
  85.6029053  46.6106987  25.3320770  50.7906494  53.0840874  66.6595993
  50.9212074  52.4408951  65.9628220  49.8471947  53.0742455  66.8209381
  82.4082718  37.0760040  25.5584450  83.1162491  37.7163887  25.6284943
  81.7591324  37.3655319  26.1995487   4.5812640   2.7266266  23.4886856
   3.9817009   2.2012708  22.9588203   4.7539759   2.1874647  24.2605076
  63.4780388  34.9878693  60.3743591  63.3835564  34.0357094  60.4006691
  62.8878708  35.3060875  61.0574951  70.7041779   4.3994622   8.7134686
  71.0998459   5.2261200   8.4372120  69.9989319   4.6579628   9.3067923
  78.6613922  15.9794788   3.8874199  77.7947845  16.3859100   3.8806670
  78.7398071  15.5971251   4.7614264  48.9273720  53.9723816  79.0174408
  49.2148209  53.8829002  78.1088181  48.8613358  54.9172211  79.1558151
  45.9036789  17.3548298  52.6867371  45.8150558  16.6828022  53.3625755
  45.7502785  18.1796532  53.1475716  36.7992554  60.2498474  14.9056902
  37.3121414  60.3995819  15.6998940  35.9053230  60.4905777  15.1489277
  70.9231873  32.8626785  63.9015923  70.4943390  32.1608810  63.4118996
  71.3041916  32.4252510  64.6629944  67.6391678  55.6950073  63.6020203
  68.5790787  55.6222839  63.4361191  67.2354126  55.1278496  62.9451027
  63.9428940  43.9218483  49.0119057  64.1313705  44.0445251  49.9423141
  64.1793976  43.0108337  48.8377075  17.3054047   3.7935379  33.1574059
  16.9671879   4.3226624  32.4350014  16.5241928   3.4297390  33.5740509
  41.7677002  15.6254511  78.2788467  42.2142563  15.8638897  77.4664612
  41.7800674  16.4263439  78.8029175   1.8381560   3.0971830  36.3553886
   1.6260288   3.8835070  35.8524704   2.4545364   3.3987381  37.0227509
  85.8197250  42.3433075  50.8017197  86.5850372  42.2978363  51.3748322
  85.1378860  42.7402878  51.3436890  50.0494537  15.0049543   3.1165280
  50.5169678  14.1697292   3.1086147  49.5400620  15.0019922   2.3061316
   5.2292686  63.8983192  40.2734070   4.8001304  63.8751678  39.4181099
   4.8481789  64.6589584  40.7120743  27.0287514  67.7895737  79.4029999
  26.8728371  67.4478226  78.5225830  26.5983887  67.1616974  79.9833374
  23.6832333   8.9848900  45.2164154  23.5833473   9.6057558  45.9380646
  23.0214806   8.3139830  45.3843384  67.4779358  53.3241653  79.3519745
  66.7190018  53.4336815  78.7790375  68.2209854  53.6154709  78.8235397
   7.8727570  14.2996836  69.1566086   8.3838472  14.4706316  69.9476776
   8.5228987  14.2608414  68.4551544  38.2832108  16.3601761  88.6249084
  38.5250168  17.0013771  87.9566116  39.0679169  15.8236322  88.7370987
  72.4661865  32.7502022  72.4836502  71.7892990  32.1870117  72.8589783
  72.5234146  32.4780998  71.5677261  39.2211227  51.7300148  57.6318550
  40.1293602  51.6232681  57.3491249  38.7419472  51.0482788  57.1608353
  45.9994583  69.0486450  70.1950836  45.6024590  68.8993683  69.3369827
  46.8491783  68.6107788  70.1453094  66.3779068   1.2961656  77.4611664
  67.2910461   1.4407080  77.2131577  66.0469208   0.6799208  76.8077698
   1.2799891  67.9116898  78.8996201   0.3949677  67.8148270  78.5480728
   1.1726106  67.8226929  79.8466034  56.2199707  62.9046707  63.3279381
  56.8125877  62.1530914  63.3408623  56.7251396  63.6008110  62.9079094
  13.4270382  56.0984268  64.2565994  13.8775654  55.4926682  63.6681213
  13.3903866  55.6361542  65.0939713   5.8856287  65.6395493  19.6920185
   6.7814641  65.9413223  19.8425007   5.9836478  64.7311401  19.4066963
  54.6408844  35.6599159  78.5591812  53.8417740  35.5873299  78.0372772
  54.3356476  35.6557884  79.4664001  65.1385803  63.3554001  17.4841805
  65.2931519  64.0499496  18.1244450  65.4459457  63.7214203  16.6548519
  31.0527611  11.9032526  30.4494934  30.7698212  11.7635422  31.3531837
  30.2476006  11.8466673  29.9349594  11.5005426  51.1489334  48.6426315
  11.3436985  50.7781219  49.5110359  10.6302061  51.3868294  48.3230171
  25.6202564  65.7088394  45.9201660  24.9817410  66.0906982  46.5224266
  25.4191208  66.1074982  45.0734940  73.8687592  13.6354628  16.7763386
  73.9483414  12.8015738  17.2395077  73.0526428  14.0140648  17.1032181
  75.7264481  40.8610992  21.2215137  76.6615829  40.6786270  21.3134995
  75.6571198  41.8108864  21.3181038   8.1333208  50.5528145   1.8468987
   8.2812786  50.8056297   2.7581751   7.4740090  51.1706505   1.5309584
  74.7778397  39.4558754  75.8830566  74.8849182  40.4065399  75.8513260
  75.4428253  39.1197586  75.2821808  60.5562363   6.5865612  26.1645145
  60.0323219   5.8597579  26.5014133  60.1448517   7.3688602  26.5319405
  29.4084606  58.8507042  29.0287609  30.0435047  59.4786377  28.6843090
  28.6696987  59.3887825  29.3132477  15.8717146  38.3816833   5.7554646
  16.2200470  38.7383156   6.5725999  15.5177355  37.5263596   5.9990921
  22.1852608  50.5738907  72.5044098  23.0276833  50.8758278  72.8441010
  22.3743267  50.2950897  71.6084366   9.0558929  47.5647507  18.7671337
   9.9760103  47.3048859  18.7214355   8.7418175  47.1901894  19.5901108
   7.4569378  70.7407684  81.4215469   7.3462787  70.9709778  80.4990540
   8.3738976  70.4758682  81.4939728  70.6051025  41.0205307   2.5029435
  69.7811584  41.3978806   2.1947978  71.2824707  41.5168076   2.0434687
  33.7442360  48.6549263  11.3465481  34.0715294  47.9148178  11.8577719
  32.8922577  48.3635864  11.0217667  75.7500381  10.0905285  77.2603226
  76.4199295  10.5237989  77.7892380  75.9301376   9.1561756  77.3641586
  40.0195274   2.7082498  41.5515404  40.5739365   3.4609313  41.3457870
  39.1347275   3.0696745  41.6038284  53.3939934  61.3855591   3.0912578
  52.4866791  61.6562195   3.2318087  53.5884209  60.8072624   3.8288231
  83.7311630  15.5018873  48.3434334  82.8011246  15.4436979  48.1246147
  84.0950241  14.6603317  48.0684395  84.1969223   9.4798164  25.9583664
  84.5631180  10.3638773  25.9821587  83.6533127   9.4668665  25.1706161
  76.5785522  24.7183704  12.2740946  77.3173599  24.9802685  12.8234634
  76.9718399  24.1892662  11.5801153  59.7714005  60.2168427  19.3470535
  59.7736511  59.9834633  20.2753658  60.3396454  59.5659904  18.9350853
  39.8949318  52.2329712  72.9464874  38.9467773  52.1102180  72.9930725
  40.0812531  52.3062286  72.0104599  67.9065323  25.8741932  60.2847023
  68.7232666  25.4423676  60.5351219  67.9758148  26.7527676  60.6582489
  10.9045534  33.6424255  88.3535690  10.0719805  34.0278473  88.6265182
  10.7676353  32.6981087  88.4294205   4.4134464  67.9742813  70.1935654
   3.6364522  67.5729446  69.8044128   4.5882101  68.7390289  69.6450653
  30.2128677   5.0417261  88.8202744  30.8946800   5.5783668  89.2244797
  29.3918171   5.4389505  89.1106567  44.3476372  50.6609039  77.1359711
  44.3151016  50.2937355  78.0193481  43.8175774  51.4562759  77.1875076
   1.5266511  45.2757721  65.7492447   1.4139960  44.4414902  65.2937088
   2.4095554  45.5602875  65.5130997  60.5074387  53.0966530  24.5457993
  60.5494118  52.2029800  24.2054787  60.5351830  52.9923096  25.4968910
  83.6030807  54.4512787  22.9251938  83.8129807  55.3184853  23.2717896
  82.7601318  54.5662651  22.4865170  19.0163059  40.8215752  77.5100098
  18.9354382  40.0061531  78.0047607  19.9455109  41.0444832  77.5658951
  51.7443466  66.0573044   7.2503943  50.9122162  65.6533585   7.4966035
  51.6113663  66.9926376   7.4043579  30.5775414  65.8007660  22.3954353
  30.0659084  65.3967743  23.0963287  31.1824188  65.1142807  22.1141968
  79.0918198  58.5822906  51.1601067  78.4928589  58.0289917  51.6614456
  79.9115295  58.5565300  51.6537018   7.0126839   7.4759154  18.8982105
   7.3169789   7.8326378  18.0637131   7.7931976   7.0841818  19.2900944
  57.9210777  57.0297089  33.7105713  57.3625450  57.6581726  34.1680717
  58.6466904  57.5551605  33.3735008  57.2118111  30.8826199  43.9752464
  56.4265213  30.3784466  44.1882172  57.5482025  31.1717052  44.8234825
  79.0469742   7.2688017  28.4566116  79.1392136   7.8218360  27.6808033
  78.9485779   7.8867736  29.1809464  75.5773773  63.0873108  51.7014160
  76.3640442  63.1476212  51.1594391  74.9375000  63.6439247  51.2576027
  63.2788963  52.4148979  88.6008606  64.1039047  52.2361641  88.1495819
  63.5329590  52.9196930  89.3734283  49.1046982  62.9942474   1.2547985
  48.2316742  63.0011444   1.6472490  48.9432487  62.9537239   0.3121832
  75.0486221  40.3740387  35.6896782  74.8349609  39.5088501  35.3403511
  75.8644867  40.6147614  35.2507553   4.1157360  14.7494822  49.1934700
   3.5500433  14.2522993  48.6026802   3.6364894  14.7716522  50.0217590
  72.5466156  19.7246151  62.8969154  73.0698166  18.9743710  62.6147346
  71.8918228  19.8329811  62.2071762  30.6423092  60.3848076  41.9442253
  30.8426342  61.2577171  41.6063919  30.0265560  60.5406227  42.6603279
  78.7649612   9.5941448  54.4418755  79.3534622  10.3370657  54.3078270
  78.5517807   9.2949352  53.5579872  68.7086105  48.3183174   0.9097037
  68.6306915  49.2318039   1.1848469  67.8702774  48.1217651   0.4916120
  77.2996750  39.8718185  79.0258942  77.7659149  39.6349564  78.2241745
  77.7906952  40.6141777  79.3780746  41.7997780  63.1532059   4.6377945
  41.8110580  63.2505302   3.6856225  41.2566795  63.8785400   4.9462786
  57.8987122  68.6696701  58.6853638  57.8005104  68.4873123  59.6198883
  57.9949074  69.6207352  58.6357346  31.9983807  26.0594482  37.4942322
  32.1464729  25.1650772  37.8014832  32.8685341  26.3769417  37.2528496
  61.9542084  64.3869476  73.0022430  62.2936707  64.7923660  72.2043533
  62.5200386  63.6281586  73.1447601   1.4448540  36.9921227  74.7348557
   0.9098873  37.6746712  75.1400299   2.1105349  37.4710426  74.2411652
  50.9397659  64.2106094  15.8329010  51.3469658  63.6744690  15.1524820
  50.6475945  63.5804634  16.4915237  44.6350288  13.3792133   9.2866287
  45.1524467  13.8449163   8.6296415  44.9554672  13.7130117  10.1245613
  80.9904404  12.8309174   4.6311612  80.4241562  12.2486477   5.1376405
  80.7618637  12.6533260   3.7187762  61.0423012  26.6941986  76.8283920
  61.6985130  26.6268425  77.5219879  61.3378830  27.4279728  76.2894669
  68.9667130  42.3386040  71.0379868  68.8134155  42.9190216  70.2924347
  69.6025314  42.8066864  71.5791550  70.2872696  44.4931030  81.3988419
  70.8372192  45.2631760  81.5429688  70.7159042  44.0231552  80.6835480
  78.9559326  27.7354794   6.0833201  78.5142670  26.9267559   6.3424187
  78.2718353  28.4040318   6.1191101  54.2979279  69.6426392  73.6118851
  54.5855293  70.4954681  73.9377747  54.5701599  69.0232620  74.2890015
  21.7152500  43.4836159   1.2162366  21.5302582  43.2689018   2.1305158
  22.4415512  42.9077835   0.9772041  77.5113068  15.8041964  23.9071159
  78.2804413  16.0097160  23.3756866  76.8101120  15.6661816  23.2703133
  13.9635839  51.7125893  41.8140373  13.9841051  52.2647438  41.0324135
  14.6666174  51.0775642  41.6772156  31.7727509  64.6468658  56.9925728
  31.9619732  64.8958206  56.0878906  32.3471451  65.2028046  57.5191078
  38.0458870  64.1477203  22.2920017  38.6036339  63.3754349  22.3854580
  37.9611053  64.4909897  23.1814995   3.0773191  54.4487000  39.2519226
   2.9715681  54.7741089  40.1458778   2.8207264  53.5278053  39.3003273
  50.1606712  18.1977100  20.7647038  49.5004005  18.8019028  20.4252529
  49.7049446  17.3587570  20.8332691  83.5462723  55.9130211  74.4847107
  84.1409378  56.6619530  74.4434204  82.9868164  56.0927773  75.2403107
  63.1386147  28.1320267  69.0503540  63.8243294  28.7910290  69.1587143
  62.7509384  28.3277893  68.1973495  25.2089272  48.2629700  23.0592175
  26.1191349  48.0791664  23.2915306  24.9616642  48.9968643  23.6217899
  12.8056946  64.3008270  59.7538910  13.3535900  63.9102669  60.4347000
  12.0552301  64.6600494  60.2271729  60.9362068  39.9846611  52.0830803
  60.1730461  40.5431290  52.2311668  60.6059685  39.2657509  51.5442429
  64.9745407  46.4662743  24.3521461  65.6966095  46.5591469  24.9736099
  64.4608841  45.7324829  24.6897030  23.3802109   8.6934414  79.8283463
  24.1492119   9.2006054  80.0884476  23.7154522   8.0568800  79.1969757
  44.6984177   7.0394969  70.6725922  45.1432495   7.8765740  70.8054733
  44.6894798   6.9211335  69.7227859  69.4885101  33.7637825  60.8671570
  70.3968506  33.4832497  60.9787292  69.4661865  34.6511726  61.2253075
  49.2229767  71.0179596  70.9981537  48.3605537  71.1805191  71.3803101
  49.0508881  70.8865814  70.0657654  72.7840195  42.8097992  79.0743561
  72.1729889  42.2396660  79.5410690  72.2414474  43.2680702  78.4326096
  67.8358688  40.6038780  74.5597992  68.2923279  41.4451561  74.5710983
  67.6387634  40.4507256  73.6357193   7.8225946  40.0830078  59.6603050
   7.8737121  39.1862144  59.9910355   8.3514519  40.5945854  60.2725410
  15.3531294  30.0521927  76.3457031  16.2277584  30.3701935  76.1218033
  15.3834934  29.1144028  76.1563416  77.1848907  55.2053108  70.8534927
  76.7302780  55.1342316  71.6928406  77.4355698  54.3065224  70.6400146
  37.8167000   3.6186664  50.8543434  37.3410149   3.6564388  51.6841202
  37.5809746   2.7691250  50.4815903   9.3126869   9.3205385  21.3870907
  10.1409779   9.4502144  21.8489895   9.2637129  10.0530806  20.7729111
  16.9914436  30.8409348  85.7164993  16.4176331  30.0881081  85.8587189
  16.5178146  31.5789566  86.1002045  37.2079582  43.1805153   7.2380290
  37.1921959  42.2448921   7.0365462  36.8195534  43.5976906   6.4690447
  40.1130676  45.7804413  31.1014061  40.6057510  45.9521255  31.9039135
  39.2850227  46.2444954  31.2248116  18.5860043  36.7717972  72.5987167
  18.3310642  35.9542351  73.0263062  18.4435997  36.6089592  71.6662827
  27.5215359  65.5206985  34.4369087  26.6382408  65.2795486  34.7159538
  27.6716747  65.0048065  33.6447296  62.4453011  54.6513405  81.3148346
  62.3887672  53.7266655  81.5556946  61.9436302  55.1061668  81.9913635
  49.5632820  27.8148537  11.5867891  48.8364563  27.8087597  12.2096205
  49.4292984  28.6094131  11.0701113  76.6823425  53.3803520  62.4966316
  77.1584473  53.0516930  63.2592163  75.8370743  52.9324837  62.5307007
   5.2015204  22.5523338  25.4519825   5.4755569  22.9035091  26.2992210
   4.4104915  22.0493698  25.6457157   9.4079609  69.5404053  88.0095291
   9.1268587  70.2166977  87.3932190   8.5958910  69.2260818  88.4069901
  59.5444527  36.9413033  73.6040955  58.6536903  36.6048470  73.5062561
  60.0968666  36.2825890  73.1831818  85.2824173  57.0184822  29.9269943
  84.5780640  56.6275063  29.4100227  85.6694565  56.2819176  30.4001770
  40.6398010   3.6956949   1.6341345  40.6222458   4.2508039   0.8545335
  41.3403587   4.0624142   2.1735528  72.1165543  38.1311378  42.7437859
  73.0586548  37.9841156  42.8278313  71.7265625  37.2670441  42.8759880
  52.4840965   4.8598680  11.5893278  52.4410248   4.0835981  12.1477013
  51.8743057   4.6752100  10.8749838  28.7152538  11.3351068  39.4709473
  29.0580978  11.5167770  38.5959091  29.3786621  11.6851931  40.0655556
  74.4039841  54.5658684  65.2890854  74.3470459  53.8870239  64.6166534
  74.6519623  55.3568687  64.8104858   1.7707524  14.5139942  73.1825104
   0.9266195  14.1888037  72.8695831   2.1773002  13.7572899  73.6048279
  33.1092148  17.4214287  71.9018936  32.7939301  18.3251877  71.8951340
  32.5740433  16.9761429  71.2449722  53.8007851  50.1788979  67.4191971
  54.3810921  49.4942169  67.0864944  53.0654259  49.7029419  67.8051376
  16.4473820  43.8792572   6.5250115  15.6677637  43.3338509   6.6296988
  16.3327827  44.5854683   7.1609073  49.7087898  66.2817078  17.3727417
  50.0754585  65.6509018  16.7531719  49.9487724  67.1363525  17.0146503
  47.5163231   4.7053046  37.8077126  48.0774193   4.0736985  38.2576866
  46.6281166   4.3744607  37.9413757  11.0639458   3.9682250   4.7851419
  11.1886282   4.6597438   5.4351325  11.7778912   3.3524752   4.9505687
  69.3058777  43.3187828  24.0090618  69.3367004  42.4994812  23.5150642
  68.7224884  43.1330147  24.7448463  68.8862610  64.8809052   6.0599461
  69.1378784  65.0038681   5.1446319  69.1371918  65.6987991   6.4892721
  48.0982513  60.5323029  81.1389999  47.8029366  59.6240540  81.0749359
  48.4273300  60.7394180  80.2643280  43.9167671   3.5309803  30.1576080
  43.5267296   3.9667082  30.9153957  44.4950447   4.1901097  29.7737103
   3.8370187  24.7337208  68.7774811   4.3335934  24.4102898  68.0257950
   3.2559421  24.0095501  69.0102005  39.0395088  50.1603165  70.1943130
  38.6842079  51.0465126  70.1261292  38.6447906  49.6870117  69.4619141
   1.7981043  36.8426628  59.9994240   2.6084182  37.2685051  59.7196388
   1.9639549  36.5843925  60.9060783  15.1043463  50.2677841  10.2993393
  14.3689222  49.7765121   9.9332294  15.8801727  49.8589668   9.9156790
  13.4086075  44.8167725  22.5375767  14.1415405  44.4218521  22.0652637
  12.6889954  44.1955872  22.4256821  13.2378187  30.2532330   7.1570735
  12.5063610  30.1559486   6.5473714  13.1400223  29.5220985   7.7670817
  15.3346128  69.3649139  18.7528896  15.8323116  69.1727448  19.5476208
  15.6706448  68.7462540  18.1043797   8.5124321  48.6315308  13.3350277
   8.6158705  49.5442429  13.6042681   7.6204376  48.5828552  12.9912119
  59.6007233  16.2920284  16.8662395  60.1580009  15.6262455  16.4632416
  58.8366776  15.8075781  17.1789284  37.3785439   1.5192596  45.7675934
  36.9186592   2.0074582  45.0846596  36.8067818   1.5814054  46.5327454
  32.8158188  35.3124275  25.1684895  33.3971977  35.4478607  25.9167480
  33.0058670  36.0445824  24.5819187  44.6343231  47.9973221  57.2935371
  43.6774712  48.0230637  57.2945595  44.8527069  47.1902885  57.7596245
  86.8261566  51.1741638   1.0972365  87.1017151  51.8069229   1.7604972
  86.2266617  51.6634750   0.5338382  57.5022087   4.6232677  22.5223198
  57.3733253   4.7112679  21.5779285  58.3262100   5.0786986  22.6950645
  35.6593056  62.1346970  18.3142757  35.8120995  62.9673271  18.7610588
  35.3558922  61.5447617  19.0043106  65.8256302  29.4177876  68.6239395
  65.7553635  28.6541672  68.0510712  66.5895233  29.8929844  68.2970047
  47.4589767  70.8082657  78.2198486  47.7646370  71.3636017  77.5026245
  47.8275757  69.9457932  78.0287857  75.7066803  15.5488787  85.6913300
  74.7628860  15.7056189  85.6611176  75.8859787  15.3426342  86.6086884
  10.9494696  63.5706062  23.5197372  11.5042896  64.2823563  23.8388309
  11.2200241  63.4453812  22.6101494   8.1554041  24.9324112  23.9202862
   8.6498032  25.3433514  23.2111092   8.5601845  24.0715923  24.0269451
  39.3447418   6.9345922  23.8187180  38.9694252   7.5632744  24.4352646
  40.1785698   7.3247838  23.5565834  53.9235687  34.8705101  74.0780258
  53.7343483  35.1597290  73.1854019  53.5074844  35.5276184  74.6359863
  30.9014473  53.2761040  18.3198223  31.7927570  53.0898476  18.0246830
  30.7944794  52.7448425  19.1088409  86.7338943  53.8203964  72.5300446
  85.9836044  53.3434906  72.1752930  87.3643799  53.1379585  72.7602692
  16.6591835  17.1466789  80.4810791  17.1956081  17.3442650  79.7133331
  16.6913795  17.9453278  81.0077286  25.2541008  66.5225677  43.5628967
  25.2902603  65.6968842  43.0800056  24.4475670  66.9409943  43.2618103
  68.3574677  35.9969864  73.1785507  68.1290131  36.5923843  73.8923721
  69.1392365  35.5399933  73.4887619  82.8261414  14.4981852  64.3349915
  83.6150894  14.2886562  63.8351059  82.9094315  15.4307146  64.5341949
  39.8714027  60.7315826  45.9774399  40.5730400  61.3826523  45.9844246
  39.2713814  61.0333977  45.2954445  34.6689758  10.1267567  22.1520424
  33.7400856  10.0383625  22.3655453  34.8459206   9.4046707  21.5491219
   8.5396204  62.1819534  77.2267227   8.1598539  63.0605736  77.2208405
   7.8800526  61.6330948  76.8025131  14.1669474  67.0933151  54.8738899
  14.4861813  67.3883972  54.0211029  13.2314968  67.2958908  54.8626442
  65.0888062  36.1051254  49.2456932  65.2606964  36.5251617  50.0884628
  64.9107208  36.8313103  48.6480560  77.6397171  59.9449348  24.7338047
  77.3457413  60.7585030  24.3240242  77.7280197  60.1624489  25.6617699
  13.8233109  11.2265177  19.9694290  13.7286711  10.3953276  19.5042419
  14.3671474  11.0156584  20.7283821   2.0995402  24.2640915  75.4911270
   2.9857953  23.9126778  75.4057388   2.1933537  25.1983147  75.3049698
  51.4644852  49.1786156  42.1459274  51.7451668  49.8807449  41.5590172
  52.0790443  48.4646301  41.9763031  60.8538704  30.4015732  42.7256584
  61.2065926  30.2450562  43.6016273  60.5107269  31.2944279  42.7616425
   4.2260675  29.4702110  42.0774078   4.7826490  28.7040081  42.2166290
   3.7195966  29.5484200  42.8858643  65.1007919  18.9252853  61.9811325
  65.1671829  18.0317345  62.3178673  64.2392197  19.2265282  62.2695351
   6.8301849  59.4919624  30.6564293   7.3015471  59.8994942  29.9298153
   5.9056735  59.6199608  30.4439983  57.9862366  63.3333206  11.3652201
  58.2063637  62.5208015  10.9096003  57.0848770  63.5189400  11.1019106
  47.8324966  58.0092239  45.4953461  48.5929832  57.7222519  46.0008507
  47.2195549  58.3402176  46.1518364  84.3026428  46.0264473  60.0969315
  83.9305420  46.8573723  59.8014030  83.5431366  45.4963303  60.3384895
  69.9671326  63.5816765  81.8439026  70.4434357  63.4681587  82.6663818
  69.7303772  64.5090332  81.8302536  70.3010788  17.1200466  80.4697113
  69.3528214  17.1338844  80.5995102  70.4648209  16.3104515  79.9860077
  61.6750488  11.1863966  10.7059278  60.9062843  10.6338921  10.5646029
  61.3197975  12.0104256  11.0391006  30.8072910  49.7889786  28.4157639
  29.9321766  49.4013939  28.4293823  31.3074818  49.2733536  29.0483551
   1.1350119  63.5373573  45.9269676   1.6614685  63.6825600  45.1408424
   1.5043032  64.1357346  46.5764351  29.5511551  13.2114096  15.3727369
  29.8080139  12.9157572  14.4993277  30.3418102  13.6145821  15.7312737
  24.3415947  49.0359955  47.0015602  24.5529938  48.1488647  46.7108040
  23.7704124  48.9099846  47.7592583  86.4530258  14.1613436  22.8775406
  85.9371185  13.5571346  22.3436794  85.8210831  14.5408201  23.4881802
   8.3496284  12.0520658  62.6489716   9.2571220  11.8139505  62.4592667
   8.0086298  11.3134460  63.1533432   8.1067200  32.4105110  82.2212067
   8.3965816  31.9840641  81.4147568   7.4230609  33.0179291  81.9385605
  59.2021790  15.1939507  24.3857269  59.3244820  15.7909002  25.1239185
  59.6956596  15.5941267  23.6697884  67.5322113  32.8440704  16.5846977
  66.9110947  33.5423126  16.3775501  68.3425980  33.3025017  16.8068314
  57.5418968  54.5788574  66.5393829  57.1655273  55.2471771  65.9667282
  58.4464912  54.4885063  66.2397537  11.1894207  29.8590794  31.7053452
  11.7374468  29.1535759  31.3615952  10.7211285  29.4623756  32.4398918
  45.7155342  46.4519920  76.0012054  45.9414597  45.8165092  75.3219757
  45.8688316  47.3039398  75.5926514  57.5864182  31.1698780  27.3211994
  58.3043747  31.7949028  27.2206192  57.0659447  31.5174809  28.0454292
  15.0334482  21.5945930  15.3363323  15.0075893  22.0365009  14.4876385
  14.1205997  21.3710194  15.5178652  13.4278088  58.4222565  33.4119911
  12.6128998  58.9242439  33.4248848  13.5822630  58.2400970  32.4850655
  81.8851395  44.7469330  60.8561974  80.9757843  44.9855576  60.6762962
  82.0425339  43.9755287  60.3117752  42.3548393  49.5025215  56.7624168
  42.4924011  50.0780602  57.5147896  41.5853882  48.9831390  56.9956932
  57.8556213  23.5706177   1.7495984  58.5038223  24.1683750   1.3771030
  57.2201271  24.1435795   2.1786611  43.1709099  38.6301842  14.0133410
  42.8917427  38.5190849  13.1045208  44.0987930  38.3951416  14.0093126
  24.7486343  50.1711731  24.8629208  24.0678024  49.6780281  25.3206367
  24.5741215  51.0852051  25.0872478  62.6591721  53.1658058  70.7061539
  62.7485466  53.1986046  69.7537003  63.0672646  53.9754448  71.0130386
  77.5145416  49.4863930  73.0595932  77.4449081  50.3927650  73.3593750
  78.4516373  49.2942162  73.0935364  64.0642624   0.6201622  73.2041779
  63.6678123   1.4912156  73.2222519  63.3207741   0.0179765  73.2330627
   0.2618252   9.5830412  64.6663895  -0.3410917   9.3698168  63.9541664
   0.5478948  10.4769602  64.4784927  79.8673935  28.0319290  48.0525627
  80.3112717  27.2323723  48.3352547  79.5577469  27.8342552  47.1686668
  14.6107054   9.3525610  47.1600151  15.0096102   8.6210337  47.6311569
  14.5715981   9.0585022  46.2499428  46.1918297  67.0143356  83.4597549
  46.6880226  67.5156250  82.8126602  46.8597336  66.5701904  83.9821320
   2.6874051  68.4302673  74.8705826   3.4647887  68.9450455  75.0871735
   1.9723115  69.0665512  74.8664169  42.4171448  26.5233841  81.0169449
  42.5332985  27.3914528  80.6306915  41.9709473  26.0169716  80.3382111
  46.4460335  65.2721786  69.9680405  45.6186142  65.7524185  69.9992981
  47.1058731  65.9430618  69.7926712  77.5598907  40.8359337  37.4821472
  78.4169006  40.8263664  37.9083786  76.9652100  40.4606323  38.1315575
  71.2312546  26.3720379  70.1099625  70.5006027  25.7650375  70.2279816
  71.4623260  26.2916679  69.1845551  33.5364037  63.4432220   4.3753729
  32.6832466  63.8239708   4.5836625  34.1679268  64.1138306   4.6355567
   5.1941338   1.8372661  77.4217224   4.6586981   2.2275217  78.1125488
   5.6565280   2.5780673  77.0297546  85.8067398   1.4439692  58.4848022
  85.9838181   0.9090692  59.2585983  85.4681778   2.2677677  58.8354645
   4.6402888  25.2494335  80.7175522   4.2050061  25.2310410  81.5698624
   5.3899918  25.8309746  80.8440018  73.0329514  28.9463100  23.6124325
  73.5566101  29.0377884  24.4084511  72.4878006  29.7328568  23.5926571
  72.8844452  32.2011528   8.6362972  72.0408096  31.7877769   8.4528923
  72.9864655  32.1265793   9.5851183  38.6288300  58.5510063   5.9323840
  39.1319084  59.1632957   5.3954964  39.2745476  57.9138069   6.2377677
  59.1694832  24.8935947  39.8194885  59.1427879  24.1474247  40.4184456
  58.2670174  25.2114983  39.7925415  47.4973602  52.3311234  88.3439331
  46.9291878  53.0884705  88.2030640  47.9723892  52.5346451  89.1496353
  76.3914795  61.0563736  21.1666660  77.2778702  60.6991577  21.1125278
  76.3724136  61.7506866  20.5080299  71.2162704   3.4020782  85.1889572
  70.9564743   4.1454120  84.6447220  70.3929901   3.0636280  85.5409470
  33.5504646  59.8247833  12.8929443  33.0886307  59.0863228  12.4959316
  34.3407936  59.9261322  12.3625336  70.5937653  55.5220108  63.4264412
  70.4941406  54.6508369  63.0425644  70.6910172  55.3605309  64.3648911
  52.6204185  12.9272852  35.0552368  52.1581192  13.7653170  35.0407104
  52.7322617  12.6994143  34.1323051  45.3554688  53.2325096  25.3002739
  44.6471748  53.8163567  25.0288486  45.5384636  52.7014999  24.5251770
  77.5817947  23.0832367  88.4960709  77.1247177  22.2577248  88.3353195
  77.7246857  23.0975533  89.4424362  10.3777914  64.1043015  34.1928825
  11.2977743  64.1692276  33.9366646  10.2766657  64.7534103  34.8890572
  34.7019958  51.3863716  83.6133728  35.0359001  50.4909630  83.6679535
  35.4866753  51.9344978  83.6047440  36.3798218  57.5689583  26.7141647
  36.2089767  58.4515076  27.0430241  37.1465454  57.2744446  27.2057247
   3.1157608  18.0928364  62.5647202   2.6357572  18.6941681  63.1341286
   2.9807897  17.2309151  62.9585571  57.9158897   5.7923393  36.7889748
  58.5946503   6.4496727  36.6359138  57.2208099   6.0172949  36.1705170
   6.2054396  51.2009773  37.2319908   6.8992009  50.6125298  36.9342422
   5.6803932  50.6690025  37.8299561  63.1398735  33.0552711  21.6153545
  62.4669266  32.3810959  21.5212116  62.6606750  33.8341904  21.8979912
  18.6950684  22.6705647  77.8460159  17.7844887  22.9592400  77.7848358
  19.1879120  23.4701023  78.0306244  70.7614899   7.2884574  12.8630056
  70.0401154   6.6595650  12.8444510  70.3343048   8.1403770  12.9523106
   1.0478308  23.5919552  44.9994507   1.7030965  23.1163158  45.5099678
   0.9313200  24.4177341  45.4692879  85.9868011  16.1317291   0.2404225
  86.4392624  15.6940794   0.9615126  85.6934586  15.4183674  -0.3264097
  75.6689301  26.5972481  65.3266144  76.2198563  25.8303165  65.1699829
  75.9815445  27.2489147  64.6990509  62.8545914  39.1200676  48.6115303
  62.5458908  38.8452263  49.4748917  62.4705658  39.9876556  48.4848633
  38.9558640   5.6110120  34.6516533  38.4132614   5.4723825  35.4279213
  38.3553581   5.9760618  34.0017586  17.9487019  44.5600395  24.2222195
  17.3816013  44.0755577  23.6222992  18.3863926  45.2065926  23.6684799
  26.4547100  37.0395775  74.7662506  27.3701248  37.3173141  74.7329254
  26.4749260  36.2033081  75.2315216  27.4773941  67.3362427   2.7051864
  26.6071854  67.7300415   2.6428537  27.6584759  67.3028946   3.6445105
  31.3677502  50.1037903   2.5831945  31.2660580  49.2385025   2.9796381
  30.5822849  50.2157097   2.0477047  62.5605011  45.8553314  59.5694199
  61.9704437  45.8997345  58.8170280  62.8191261  44.9349594  59.6169891
   6.0619926  39.3271866  39.5369568   5.6248817  38.5134621  39.7879944
   5.6343689  40.0014954  40.0648537  60.0284424  71.8364792  36.3379059
  59.5517426  71.0540161  36.0608673  60.9498901  71.6167603  36.2004738
  22.5662174   2.9675684  48.8511200  22.2452431   2.6629226  49.6998825
  23.4591885   3.2649665  49.0254440   2.5326805  71.3696976  86.6438370
   2.6077793  72.0294495  85.9543915   3.0474322  70.6289520  86.3235931
  71.7081680  66.5163803  41.4956856  72.2512054  65.7914047  41.8051338
  70.9478073  66.5112457  42.0771141  13.5342817  26.8458920  84.8666687
  13.5624790  26.9065533  83.9118042  12.6060295  26.9298420  85.0846863
   4.8419247  24.3353024  66.1914215   4.3044739  23.7909546  65.6160431
   4.5118370  25.2237720  66.0576553  20.1386089  45.2317543  48.2334175
  19.5278015  44.7776222  48.8138542  19.6363640  45.9692841  47.8869553
  84.6741333  56.6438179  26.7850094  84.0593491  57.2031937  27.2597370
  85.5229263  56.8238029  27.1892147  84.7077637  10.8376884  48.3118553
  83.9813538  10.2542725  48.5313683  84.9226761  11.2733831  49.1366081
   0.7106950  42.8425865  31.1880512   1.0074769  42.6388130  30.3011303
   0.5475194  41.9884758  31.5881748  55.1930771  35.3357201  61.0781860
  55.9311028  35.7731972  61.5026436  54.5986328  36.0467491  60.8388023
  18.2559853  46.3201599  28.3372383  18.0121574  46.2612610  29.2609863
  17.9028454  45.5216522  27.9449272  24.8019829  51.5244675  66.8719711
  23.9278736  51.8829079  67.0258713  25.1444550  52.0350456  66.1383133
  16.6727734  30.3237305  68.4428253  16.5699444  29.5043182  67.9588547
  17.5733776  30.5952187  68.2655182  57.7624626  68.5493622  61.4989166
  58.5884819  68.5347900  61.9823570  57.0876961  68.5023804  62.1762009
  85.8969116  43.2878151   9.5187149  85.2562561  43.9819260   9.3637962
  85.5023956  42.7458992  10.2020302  67.5566711  48.2653122  28.7812290
  68.4093018  48.6749725  28.6348457  67.4857635  48.1933823  29.7330837
  56.7751236  68.9887009  83.4419785  56.1863632  68.2622910  83.2372055
  56.8898888  69.4460983  82.6090012   1.3553537  34.8104858  11.0067968
   1.4675338  33.8883133  11.2375431   2.2016656  35.0711174  10.6433964
  15.5047569  14.1836405  35.6713676  16.3368626  13.9789858  36.0979233
  15.6931677  14.1185980  34.7351532   2.0802345  27.1163960  48.5149841
   1.2374005  26.7363167  48.7627792   1.8862764  28.0379295  48.3435516
   3.7902741  17.1499500  12.6411600   3.2069926  17.0500736  13.3935156
   4.5274544  16.5696125  12.8309126  53.5500641  62.4893379  60.6009331
  54.4007568  62.2206841  60.2539787  53.4405212  61.9684296  61.3964767
  32.6614380  42.6334267  63.9867744  31.7127457  42.7600288  64.0003052
  32.8382950  42.2391167  63.1326790  80.4968719  36.6705780  35.0610161
  80.6072693  35.7789230  34.7308655  80.6929092  37.2301903  34.3095932
  49.8873482  22.7014885  28.6750393  49.9859657  22.7265396  29.6268158
  50.7508392  22.9408188  28.3383904  19.0138321  51.8060341  74.4211578
  18.9853725  50.8812714  74.1757278  19.5391006  52.2195930  73.7361069
  77.2375259  17.2487583  42.2687187  76.4111099  17.0376663  42.7031326
  77.8692169  17.3318558  42.9830627  39.5291290   6.5302677  20.5756416
  40.4548531   6.7235427  20.7236843  39.5268517   5.6595702  20.1780071
  85.1940994  43.5624046  65.8038635  84.7856369  44.3994293  65.5829926
  85.7076340  43.3345985  65.0288696   0.8396603   0.7431278  76.7824402
   0.5098435   0.1745225  77.4782486   1.1420096   1.5286778  77.2382126
  86.0243912  30.4421062  61.3201790  86.1183548  30.2961826  62.2615128
  86.3174820  31.3435631  61.1871185  38.6185875   0.5929089  56.5095787
  38.2662811  -0.2963610  56.4733696  39.4858856   0.4911531  56.9015884
  45.7004318  41.9096642   2.2693491  45.6551285  42.5694695   2.9613290
  44.8102684  41.5626907   2.2106061   8.0975809  48.0706406  49.7455864
   8.6970778  48.1905022  49.0090637   7.5425806  48.8503952  49.7320137
  39.0869980  29.9245815   2.3770204  39.3411255  29.4799004   1.5683731
  38.8763809  30.8173351   2.1034107  45.3608894  16.3370667  30.9523640
  46.2534256  16.6558857  31.0864124  45.4323769  15.3856220  31.0290070
  10.4277983  63.7612686  38.2961426  10.4702711  62.8510857  38.5893898
   9.9027634  64.2035599  38.9631844  18.2724934  20.1829929  76.2221832
  18.7299290  20.7090912  76.8780823  17.3705997  20.5028267  76.2451019
  79.2399139  25.9245281  28.9226494  78.6233826  25.1925869  28.9031830
  78.9945450  26.4644146  28.1712837  15.8580151  61.4654961  59.6518250
  15.6233444  61.9108429  58.8376846  16.5522480  62.0059204  60.0289383
  53.3681488  27.2566051  77.2619019  52.6826096  26.6122360  77.4381409
  52.9286003  27.9426155  76.7594910  19.2588615  45.5636024  62.5220490
  19.4060116  44.7355537  62.9791222  20.0183868  46.1003761  62.7483788
  10.3948812  58.2383957  72.6142578  10.0002851  58.7097664  71.8805466
  10.1495914  58.7483559  73.3862762  75.1533432  47.8198166  59.5838165
  75.1959763  47.3946381  58.7272911  74.9733734  48.7389565  59.3862648
   3.0573287  62.3571243  56.6599159   2.3509445  62.8047485  57.1256256
   2.6256466  61.6294594  56.2122688  58.9189224   6.5179996  40.3009453
  58.1125870   6.6954274  40.7852783  59.3893356   5.8845139  40.8428307
  28.1129360  64.3441162  77.7464142  27.3094444  64.3580017  77.2263794
  28.3852844  65.2606735  77.7909393  79.0054321   8.4970655  30.9380455
  78.1770172   8.5381260  31.4158382  79.6171570   9.0000954  31.4756126
  66.0691299  47.5575294  50.4000587  65.5488586  47.3929367  49.6136360
  66.6577072  48.2707787  50.1529160  21.5902557  22.6791840  87.3681030
  21.8085041  22.2433395  88.1919022  20.7969551  23.1777992  87.5637741
  71.5575562  43.0391388  43.1362076  72.3205490  43.3295288  42.6364670
  71.5318375  42.0913277  43.0049477  27.2298069  10.5885935  27.2477074
  27.2468014   9.6450262  27.4077778  26.3218727  10.8431368  27.4123135
   0.3057359  57.4413109  69.5065536   0.4365537  58.3752060  69.3423615
   0.4353210  57.3435249  70.4498901  49.6155396  33.1856461  80.1055832
  50.1623001  32.4813118  80.4537201  50.2293854  33.7637367  79.6525497
  10.8794022  59.1614380  27.5003929  10.8301868  58.2278404  27.2949600
   9.9686174  59.4270554  27.6274738  65.7159576  53.3869438  64.5447540
  65.1590500  53.8463211  65.1732864  65.6318359  53.8922462  63.7361565
   5.8571224  69.5062790  66.9708786   5.0098772  69.7523499  67.3421707
   5.7897992  69.7397766  66.0450363  78.9184570  18.7255554  61.6767082
  78.5695953  18.2721844  60.9092560  78.1676712  19.1962471  62.0386581
  73.6609802  51.5668526  16.9178410  74.1773071  51.9051514  17.6494102
  73.9488678  50.6591225  16.8210316  71.2663498  41.1317062  51.6114616
  71.0515747  41.0370827  52.5394440  70.4177170  41.2138176  51.1763687
   5.5076308  35.5098953  29.7110157   5.9065180  36.2831955  30.1099205
   5.2080088  34.9850655  30.4533176  11.1652002  19.1992626  24.1856842
  11.0660582  19.9037342  23.5452766  12.1006966  18.9968109  24.1761475
  81.5609055  69.9199448  75.6444092  81.1451416  70.6216583  76.1453705
  82.0630951  69.4273453  76.2935562  22.9573669  58.5409203  86.5824585
  22.4662552  59.0786400  87.2036667  23.8319893  58.4713135  86.9651108
  38.3078156  54.1330833  57.0743675  38.6508446  53.2530060  57.2293663
  39.0295105  54.6008797  56.6541786  28.3945599  31.8510284  20.0452118
  29.2667503  32.2400551  20.1098099  28.4072647  31.1289120  20.6733990
  38.8537025  35.2303047  74.7577286  38.8822479  35.2552528  75.7141800
  38.7674675  36.1471748  74.4966812  23.2396317   1.6687490  10.4894676
  23.8193798   1.0631099  10.9513369  23.1435146   1.2891768   9.6160154
  51.9488335  22.4630299  60.7126198  52.4831276  22.2286339  59.9537926
  52.0831108  21.7449245  61.3311081  51.4002419  65.5369492  81.1464157
  50.8989906  64.7499924  80.9327011  52.0445328  65.6091385  80.4422073
  21.8852139  68.3416977  24.1601772  22.3911896  67.8129883  23.5431786
  22.4941673  69.0216064  24.4485168  75.6895828  32.6041679  43.9089699
  75.7491379  32.4531555  44.8523026  76.1601868  31.8678417  43.5183487
  77.0567398  36.0862617  28.2351170  76.8287735  35.7926178  27.3530540
  77.8000488  35.5376282  28.4855690  14.3094482   1.0589832  45.0209656
  14.6746140   0.9353684  44.1448364  15.0479012   0.9098715  45.6114616
   7.1827526  70.2056808  33.1206665   6.3767166  70.4638443  33.5677567
   7.1780457  69.2490005  33.1518097  36.0105171  29.7336674   3.4680247
  35.5861664  29.0128269   3.9333699  36.4531860  29.3146648   2.7299759
  61.6234512  39.8742561  64.2124176  61.3311653  40.7727203  64.3659363
  61.7492485  39.8218956  63.2649689  24.5588226  41.8004684  16.4571743
  23.6198578  41.9034920  16.6119652  24.9599934  41.9434776  17.3144054
  83.4497757  27.0182533  47.6843643  83.2804108  26.1597576  48.0723534
  83.6097946  27.5922756  48.4334488  69.3661194  23.1541424  54.6617813
  69.0305786  22.5235043  54.0246429  68.8594818  22.9847813  55.4560547
  47.7812424  54.5112572  14.3877010  47.0953522  53.8958435  14.1287518
  48.3357811  54.5922585  13.6117125  25.9188213  15.6499491  24.0275059
  25.6850986  15.1388235  23.2526798  25.9999523  15.0013561  24.7267742
  86.8319397  47.5457001   7.4040751  87.3738861  46.8495102   7.0328083
  85.9420624  47.3317795   7.1237426  73.5312424  56.8704529  55.1978531
  73.8548203  56.1734428  54.6271439  74.2985153  57.4172554  55.3667679
  35.4995880  70.1908264  43.3572807  35.9701500  70.9709473  43.0636597
  36.1849442  69.5391312  43.5049553  50.7279587  63.5794907  74.8050613
  51.2065201  63.3639603  74.0045853  51.2838898  64.2178116  75.2519608
  84.2429504  59.4889641  88.6465302  85.1176605  59.5512352  89.0302353
  84.1392136  58.5609550  88.4361267  19.2567081  56.5633812  46.4929390
  20.1724415  56.3127518  46.6147995  18.7611752  55.7745171  46.7128792
  59.0118980  41.4486275  60.8203735  59.9330711  41.2419128  60.6624374
  59.0320549  42.1504364  61.4709816  61.9570694  61.9302254   0.4769626
  61.9630890  60.9761810   0.5543804  62.8416061  62.1525345   0.1864309
  47.7757530  27.7861843  81.4886017  47.5636139  28.3418522  80.7386246
  47.5974464  26.8960247  81.1851959  31.9455814  68.8527908  11.1274290
  31.8759098  68.5634613  10.2176676  32.4806519  68.1820679  11.5517635
  44.3665924  23.2466488  79.9751129  44.5839310  23.6416855  79.1307526
  44.4732742  23.9578362  80.6068268  75.2343674  60.2487869  18.0467052
  75.6943436  59.4122124  18.1159630  75.7756882  60.7714996  17.4551220
  34.4173241  58.7464485  45.8464508  35.0356026  58.1102219  45.4870377
  33.8716660  58.9975471  45.1011734  28.0119667  69.5732117  58.8301392
  27.3786488  68.9867096  58.4164238  28.7984333  69.0384445  58.9384575
  75.6032562  43.6456642  34.4893990  75.7507477  43.1316757  35.2833061
  74.8190308  44.1604805  34.6796150   8.8308029  38.4050560  43.0896950
   9.2648401  37.5619888  42.9589882   9.3945065  38.8715210  43.7068520
  82.9495850  31.4379883  82.2840805  83.2811050  30.9250107  81.5470734
  82.0313034  31.6009960  82.0686264  45.0698433  61.3821259  36.2981339
  44.3377075  61.6779060  36.8391724  44.6856308  61.2377777  35.4333916
  12.7448540  42.8932877  67.6570663  12.7553749  41.9394379  67.5777664
  12.9715939  43.0600815  68.5719452  44.9738579  39.6529579  44.7069283
  44.9019394  40.1304436  45.5334091  44.5873260  40.2397270  44.0569077
  58.6236725  37.3070068  88.2662201  58.1017456  37.3988876  87.4691086
  59.0708275  36.4668427  88.1642075  76.8061066  17.5363960  57.6197243
  75.8966675  17.4432564  57.3360405  77.3054047  17.6019344  56.8057022
   1.0475274  27.3914814  25.4758778   0.3544520  26.7537251  25.6465969
   1.2124610  27.7992897  26.3260078  60.3714561  61.6202240  36.4531517
  60.8708382  61.5955086  37.2693863  59.7562294  62.3440590  36.5705948
  45.1765633  57.8513336  49.4429207  45.7811203  58.4672928  49.8568459
  45.3102341  57.0300217  49.9160042  48.0788689  47.1819191  54.9363480
  48.6826401  47.4534912  55.6276817  47.5370750  47.9542503  54.7745056
  52.0733986  56.2359467  17.8418369  52.8148270  55.6333008  17.8996124
  51.3061943  55.6885147  18.0090046   1.8806533  49.8765335  46.4407082
   1.1751117  49.7360115  47.0721321   1.4638470  50.3418198  45.7154388
  78.9879913  56.7700577  54.8254700  78.8935623  57.1368713  55.7045364
  79.8887558  56.4476013  54.7959824  14.9121990   0.8314714   0.6393342
  15.0292721   1.2902349  -0.1925682  15.8017483   0.6988334   0.9669615
  15.6402025   3.5173192  43.5249023  14.8375273   3.7734475  43.9791527
  16.1923180   3.1389205  44.2091637  51.9921417  32.4592514  12.6844559
  51.3553352  33.1336365  12.4479866  51.4660301  31.7559128  13.0649233
  40.2288933   3.2169962  28.9495850  39.4926643   2.6132638  29.0480919
  39.8564301   3.9783785  28.5048409  67.0748520  18.3212757  59.6571503
  67.3875809  18.1032486  60.5351562  66.3423386  18.9193230  59.8054466
   2.6584799  29.5662727   4.0386639   3.0387394  28.7365551   4.3271179
   3.3029218  30.2265453   4.2935495   5.1073952  50.3100281  85.9591827
   4.2731857  49.9195824  85.6986465   4.9868817  50.5399017  86.8805161
   5.7921753  49.9990425  73.8146515   6.0932503  50.9069061  73.8516312
   5.3697085  49.9214592  72.9592438   2.8896065  43.1200981  62.3505173
   3.2290871  42.2355270  62.2144432   3.3718505  43.4475555  63.1097565
  37.7221298  62.7916374  74.9068527  38.2393379  63.4351997  74.4225388
  37.3241882  62.2452049  74.2291489  43.5274620  22.1848145  71.5490189
  43.6020432  21.2407913  71.4094009  43.4962769  22.5556335  70.6671143
  52.5522461   9.3523197  60.3420677  51.9210091   8.8081627  60.8128777
  53.3566895   9.2855473  60.8565025  59.2216377  42.7470474   2.0417161
  59.1632805  42.5898209   2.9841096  58.7751198  43.5834656   1.9103345
  10.5422363  57.2106323  85.2654953  11.4879551  57.0715981  85.3156586
  10.1648970  56.3411865  85.3993301  82.3433609  40.7727318  76.3934784
  83.1939392  40.5935898  75.9926453  82.5469513  41.3166122  77.1543808
  44.3229103  52.0219917  28.2380333  44.5744209  52.1462708  27.3228683
  44.7899666  52.7111015  28.7104893  38.0192604  49.9851074  27.0145550
  38.7241516  50.0035019  27.6618729  38.3809853  49.4884262  26.2805977
  79.6227722  40.9952545  12.7269220  79.6529465  40.1322365  12.3139772
  79.2896347  41.5764160  12.0431814  20.2493114  66.1044540  61.3294296
  19.5693245  65.9765854  60.6679916  20.8276997  66.7678833  60.9531784
   9.6075525  57.0991364  44.4773941   9.7520647  57.7231293  43.7660713
   9.8206177  56.2474937  44.0958977  78.0198059   1.3286451   0.8083990
  78.8121719   0.9975441   1.2312034  78.3327942   1.7437866   0.0047023
  82.0672989  48.0025368  39.8627701  81.9537506  47.8122444  40.7939682
  83.0157013  48.0476036  39.7414246  68.1464767  53.5135078  67.0250320
  67.5902634  52.8828659  67.4823608  67.8584061  53.4699135  66.1132507
  74.9430008  60.8244972   6.0516982  74.4176254  60.8957062   6.8486576
  75.3214340  59.9462051   6.0919781  33.3548470  49.9086685  46.5562744
  32.6131096  50.5082245  46.6374435  34.0270996  50.2806702  47.1271706
   2.2542379  62.3653145  60.2608261   1.7612191  62.6039352  59.4758263
   1.6128248  62.4116974  60.9698181  84.8333740  71.5307465  32.5979729
  84.6754913  71.2109680  33.4862518  85.6457214  72.0325851  32.6649246
  63.3631973  31.1243839  26.7054596  63.4190483  31.5214882  27.5746078
  64.1088791  31.4877052  26.2277699  79.1522598  60.1138229   3.7206476
  79.1521606  59.6364670   2.8909705  79.3208771  59.4433784   4.3826928
  50.5575142  37.6067200  89.0709991  50.8398628  38.4631157  88.7499084
  51.3505898  37.2144966  89.4362717  72.8142395  42.9814301  82.7425079
  72.2224884  42.7798195  82.0176468  73.6620865  43.1323700  82.3246536
  35.7549286  36.8057137   2.2732229  35.0516472  37.4298859   2.4521914
  35.4498215  36.3130836   1.5113453  23.2758884  58.9153061  55.8583374
  23.8014183  58.1885376  55.5238953  23.9005070  59.4642792  56.3323746
   4.0530787  46.6410484  32.1210976   5.0065560  46.6076088  32.0436668
   3.8371820  47.5684013  32.0229378  17.8516750  50.6198845  80.5388641
  18.5478058  50.6745071  81.1935730  18.1499519  49.9462318  79.9277496
  51.8690376  41.9341125  10.4307423  51.7439384  42.6852036   9.8507032
  50.9967957  41.7547035  10.7817984  18.2665081   8.4733324   0.2274757
  18.9306374   8.9778404   0.6971967  17.5344238   9.0809011   0.1219109
  86.7826328  71.6042984  89.1432666  90.0000000  90.0000000  90.0000000
