QMMM reactant CHA#2 frame 26495
 55680
  43.8528595  44.6203461  52.0701332  42.9302788  45.0123482  51.9465370
  43.9431381  44.2643356  53.0109863  44.5548134  45.3445587  52.0165024
  44.2234306  43.6439705  50.9589348  44.2674828  44.2095795  50.0282135
  45.6537094  43.0706596  51.2067719  46.3166542  43.9008598  51.4504356
  45.6323090  42.5010872  52.1358757  46.1323891  42.2287292  50.0393295
  45.4809074  41.4110641  49.7309532  46.1909142  42.9024544  49.1844788
  47.8194580  41.5778580  50.1430855  48.6897697  43.0781364  50.2363129
  48.8022041  43.6030006  49.2876434  48.2563858  43.7842407  50.9446182
  49.7374420  42.8947411  50.4747353  43.1554451  42.5867424  50.7723923
  42.6646881  42.0116539  51.7443466  42.6039734  42.5500793  49.5319519
  43.0509949  42.9762726  48.7328072  41.4071884  41.7416115  49.2555695
  40.6641235  42.1285439  49.9528770  40.9448776  42.0004234  47.7977371
  40.7138367  43.0605316  47.6933784  41.7655449  41.7985039  47.1093788
  39.6781578  41.3100700  47.3061981  39.8815346  40.2538261  47.1298752
  39.5532036  41.6945953  46.2939568  38.2084961  41.6299400  48.2472992
  36.9376297  40.9495087  47.1851616  36.5796738  41.6706963  46.4504128
  36.1274910  40.4666290  47.7316093  37.4448700  40.1667633  46.6211395
  41.6191711  40.2688217  49.5086975  42.7915306  39.8700523  49.4572945
  40.5326347  39.5472107  49.7967529  39.6933250  40.0981216  49.9070282
  40.5442238  38.1301956  50.0885544  41.5581551  37.8051529  50.3217659
  39.8432579  37.7382050  51.4762192  38.9771500  38.3928795  51.5729446
  39.3042412  36.3152122  51.5655708  38.8735313  35.9388466  52.4934349
  38.4769249  36.2447662  50.8593941  40.1476250  35.6691856  51.3217354
  40.6734200  37.9157410  52.7356796  39.9735489  37.9129639  53.5713043
  41.3644257  37.0777550  52.8272820  41.4149323  39.2632751  52.8556099
  42.1550179  39.3389473  52.0589600  40.6921043  40.0774002  52.8024826
  41.7984581  39.3481636  53.8723679  39.9816933  37.4424400  48.8014107
  38.8238869  37.6689072  48.5034676  40.6770706  36.5417786  48.1819305
  41.5926208  36.2786331  48.5175285  40.2625999  35.7683716  47.0000000
  39.1931038  35.8887367  46.8274002  40.9411659  36.3387833  45.7337303
  42.0268745  36.2451477  45.7576942  40.5708275  35.7758102  44.8769836
  40.5468102  37.8901100  45.5737686  39.5600548  38.1500816  45.9569435
  41.3177681  38.5231781  46.0130310  40.3337326  38.2032127  44.0034943
  41.2478523  38.5359459  43.5117950  39.9900970  37.2443504  43.6154251
  39.3364220  39.2192039  43.7794609  38.3827248  38.9228516  43.6286812
  39.5227432  40.5312958  43.8073578  40.6261597  41.1182060  43.9354057
  40.6873970  42.1219444  43.8413010  41.4438057  40.5784988  44.1809082
  38.5182495  41.4029160  43.6934242  37.6654854  40.9592743  43.3834648
  38.6825294  42.3972130  43.6264038  40.6181107  34.2707520  47.2236557
  40.9869003  33.8526917  48.3383179  40.5491562  33.4132118  46.2130623
  40.1663055  33.7144852  45.3283234  40.9846649  32.0229034  46.3468475
  41.8201485  32.0559006  47.0461159  40.2401505  31.4387150  46.8877029
  41.5336761  31.3829765  45.0426445  41.6467438  32.0245628  44.0328255
  42.1248970  30.1952610  45.2192650  42.2160988  29.8817291  46.1750259
  43.0399361  29.5716705  44.1849327  42.8069000  30.1267719  43.2762756
  44.5857353  29.7982483  44.4233856  44.8580742  28.9277821  45.0202332
  45.4037056  29.6339626  43.0538025  46.4733696  29.5395279  43.2408600
  45.0806770  28.7806606  42.4574547  45.1617966  30.5165672  42.4616928
  44.8710251  31.1754704  45.1608582  44.6036797  32.0206223  44.5265503
  44.3804283  31.2128639  46.1334915  46.3793144  31.2158928  45.4582596
  46.6327858  30.3980598  46.1327972  47.0075417  31.3418884  44.5764656
  46.5122643  32.1319923  46.0337486  42.6823616  28.1135330  43.9594269
  42.4176750  27.3910427  44.9925041  42.5973358  27.6743221  42.6747589
  42.7513962  28.2982750  41.8956261  42.3783417  26.2398682  42.3466721
  42.1027184  25.6846809  43.2432747  41.2086563  26.1222286  41.3599930
  41.4274445  26.9128551  40.6422577  41.1741676  25.1770935  40.8181152
  39.8823051  26.4465008  42.0850372  39.8706512  27.5123158  42.3130913
  39.0908432  26.3157806  41.3470650  39.3506279  25.6524010  43.2719498
  39.8120041  26.0683327  44.1676292  38.2626801  25.6978817  43.2229309
  39.7703781  24.2575226  43.1513176  40.6963120  24.0808334  43.5139847
  39.2312317  23.3405209  42.2923546  38.1688461  23.5983067  41.6314507
  37.6009560  24.4050827  41.8475761  37.8341560  22.9378605  40.9445038
  39.9159737  22.3381405  41.8030319  39.6300774  21.8928032  40.9427757
  40.8807030  22.1285458  42.0162659  43.6222763  25.5108910  41.8481827
  44.4657478  26.0395203  41.1834373  43.5497284  24.2071133  42.0713844
  42.7799568  23.8291759  42.6049728  44.3699760  23.2536297  41.2246590
  44.3665047  23.4515781  40.1527863  45.4363937  23.2901611  41.4471741
  43.8351746  21.7486782  41.3490219  42.9752274  21.5424004  42.1604080
  44.4936218  20.9500923  40.5622673  45.1243935  21.2078438  39.8167534
  44.2944832  19.4994488  40.5755920  44.1854668  19.2104626  41.6209183
  43.1018257  19.1542873  39.6312485  42.9802361  18.0715523  39.5996666
  42.2246513  19.5966034  40.1034966  43.1194077  19.6063232  38.6395531
  45.6254883  18.7060738  40.1826057  46.5740318  19.3255634  39.5989571
  45.5960236  17.4162388  40.4766426  44.8664398  17.0273895  41.0568199
  46.6830482  16.5302868  39.9854393  47.0257111  16.8519688  39.0019722
  47.9985771  16.5535736  40.8382530  48.5224838  17.5059738  40.7573013
  47.8320503  16.2084675  42.2576828  47.3029289  17.0665398  42.6722145
  47.3635368  15.2445450  42.4562988  48.7690659  16.2169933  42.8144836
  48.8670921  15.5710192  40.3954239  49.7299881  15.8079710  40.7430801
  46.1359634  15.1142607  39.7247543  44.9192352  14.9568758  39.9840088
  46.8813744  14.1301279  39.2578583  47.8705940  14.3168030  39.1760178
  46.4970932  12.6986866  39.3081245  45.6895561  12.5871058  40.0316811
  46.0684509  12.1320677  37.9861221  46.0891991  11.0486441  38.1038933
  44.6744766  12.5437164  37.5646133  44.6627922  13.4909430  37.0254250
  44.3165932  11.9704437  36.7094078  43.9947205  12.5045815  38.4157867
  46.9615288  12.3991137  36.9730835  47.5928040  11.6758814  36.9780388
  47.6317902  11.8410654  39.8565712  48.7751884  12.2423592  39.6417847
  47.3087425  10.7076406  40.5034828  46.3424950  10.5469208  40.7497215
  48.3149605   9.6560087  40.8203888  49.2610245  10.0192757  40.4190178
  48.3525200   9.3197460  42.2850761  49.1121216   8.5387783  42.3196945
  48.8630142  10.4872341  43.1011314  48.7150497  10.2108355  44.1450729
  49.9329796  10.5041304  42.8938065  48.3842545  11.4339199  42.8507805
  47.0215683   8.9160404  42.9125595  46.3528671   9.7751541  42.9660263
  46.5136223   8.1086216  42.3851471  47.0651245   8.6278715  43.9628754
  47.9730377   8.3866034  39.9712105  46.9378586   8.2759113  39.2648506
  48.8053589   7.3284998  40.1278992  49.6828804   7.3899641  40.6241608
  48.6527100   6.1290078  39.3569145  47.8167534   6.2671709  38.6712112
  49.8953362   5.9400301  38.4261589  50.8202209   6.2155976  38.9328690
  49.9805832   4.9055152  38.0935669  49.8575821   6.9204469  37.3194199
  49.5617027   7.9003754  37.6939812  50.8397560   7.0038443  36.8541489
  48.9973030   6.6399322  36.0977211  49.0963402   5.5371699  35.4366341
  48.2422523   7.5702629  35.7043533  48.5126534   4.8864307  40.2057381
  47.9446259   3.9124446  39.7606850  49.0352249   4.9992409  41.4816284
  49.7077446   5.7165589  41.7124329  48.6814613   4.0120211  42.5753212
  48.0438766   3.2362764  42.1512833  50.0464630   3.4466956  43.1086159
  50.6481400   4.3364515  43.2941513  49.9762611   2.9766364  44.0895424
  50.7425156   2.4586132  42.1661530  49.9975395   1.6755972  42.0247459
  50.9498749   3.0155504  41.2524071  52.1308517   1.9106559  42.6437416
  51.9404640   1.2439049  43.4847488  52.6238785   1.3521196  41.8480873
  53.0047226   2.9980378  43.1494751  52.9080429   3.8491309  42.6143188
  53.8752556   2.9898477  44.1422882  54.1714249   1.8823504  44.7848969
  54.7023582   2.0042434  45.6353989  53.7962608   0.9583087  44.6252174
  54.5146179   4.0346637  44.3837776  55.2239151   4.1079879  45.0990524
  54.2352829   4.8004169  43.7873764  47.8649826   4.6995201  43.7277451
  48.2141304   5.8160415  44.1065102  46.7650528   4.0680261  44.2224388
  46.3771248   3.2361271  43.8010635  46.0819817   4.4248929  45.4290009
  46.0465088   5.5097737  45.5283813  44.6929626   3.7676871  45.4463615
  44.0961761   4.1435428  44.6152878  44.7087250   2.6781502  45.4187775
  43.9823647   4.0855665  46.7784767  44.1989670   5.1659207  47.3177414
  43.1281013   3.2540898  47.1626396  46.9270439   3.9774318  46.6187210
  46.8946381   2.7973700  46.9977074  47.8249550   4.8202581  47.0851212
  47.9770851   5.6874843  46.5902710  48.8459091   4.5719371  48.1032867
  48.3597870   3.9247692  48.8333282  50.0358810   3.8404038  47.5096321
  49.6682472   2.8996470  47.0998459  50.8556366   4.4580703  46.3300018
  50.1064949   4.8349833  45.6337090  51.4355965   5.3228874  46.6522446
  51.5236549   3.7618749  45.8228912  51.0012054   3.3951142  48.4609680
  51.4376717   2.6622899  48.0204391  49.2618103   5.8846798  48.7327423
  49.0965195   6.9842801  48.2652779  49.8010521   5.8383708  49.9639015
  49.7249603   4.9712095  50.4760933  50.4363708   7.0699272  50.5477257
  49.7208138   7.8719749  50.3666306  50.5142326   6.8192172  52.0863533
  49.5360756   6.5414462  52.4789772  51.1352119   5.9345069  52.2269745
  51.1662903   7.9618263  52.9056969  52.2360840   7.9884996  52.6984978
  50.8274727   8.9536819  52.6064796  50.9169273   7.7698531  54.3834343
  51.9037857   7.7389874  55.1829338  49.7357674   7.6317215  54.7283058
  51.7804871   7.4692903  50.0024605  52.1895752   8.6480484  50.0395737
  52.3753624   6.5009756  49.3169136  51.9875412   5.5815415  49.4729118
  53.6409874   6.7586446  48.6122437  54.3630524   7.1595016  49.3236046
  54.1246834   5.4175186  48.0247040  53.8911438   4.5924201  48.6975861
  53.6632957   5.3049679  47.0436058  55.6488495   5.4541402  47.8825111
  56.0382156   6.2593622  47.2595253  56.0104675   5.5508986  48.9062195
  56.1423645   4.1429272  47.2952728  56.1693230   3.1123729  47.9987869
  56.4673920   4.1465659  46.0925560  53.4789696   7.7554798  47.4841957
  54.4785957   8.4146252  47.2335701  52.2920380   7.7673159  46.8142509
  51.6021309   7.0715017  47.0591393  51.8529892   8.6990919  45.7008705
  52.7463531   9.2502785  45.4072800  51.4486046   7.8506351  44.5170670
  50.5179291   7.3215122  44.7219238  51.3579102   8.5916710  43.7228661
  52.4170837   6.7444520  44.1576309  53.4409866   6.9882097  44.4410210
  52.1226425   5.8338385  44.6793480  52.3317604   6.4461060  42.6279602
  53.1467934   5.5864687  42.2658844  51.4836540   6.9426637  41.8400879
  50.8940277   9.8497057  45.9635353  51.1671181  11.0385418  45.6716881
  49.7111435   9.6597443  46.5310287  49.5219193   8.7468061  46.9194107
  48.7596855  10.7486658  46.8986130  48.4343529  11.3081512  46.0215530
  47.5842400  10.1816053  47.6506157  47.8867798   9.6546316  48.5555382
  46.7165604  11.2336769  48.2436028  45.7000504  10.9544420  48.5207901
  47.1317863  11.5416765  49.2031975  46.6092148  12.0772343  47.5617027
  46.7821999   9.2435331  46.7588692  46.3891220   9.7271366  45.8646011
  47.3483429   8.3740892  46.4247322  45.5687943   8.5083618  47.4255066
  45.1558647   7.8367691  46.6728096  46.0100060   8.1008844  48.3351250
  44.7327003   9.0997458  47.7987518  49.3791847  11.7946825  47.7778091
  49.0991554  12.9775219  47.5608711  50.2839165  11.3785305  48.7559433
  50.6355362  10.4319639  48.7340965  50.8530388  12.3506594  49.6977081
  50.0480919  13.0419769  49.9472008  51.4294930  11.7066679  50.9964523
  50.6032448  11.1374645  51.4223862  52.2664413  11.0711584  50.7070465
  51.9418716  12.6365633  52.1027756  51.3739624  13.5666599  52.0804405
  51.6976013  12.0593004  53.5005150  50.6186905  12.0254116  53.6518822
  52.2042923  11.0987244  53.5935555  52.1101761  12.7784033  54.2081680
  53.3853188  12.9136314  52.0693932  53.6200752  13.5779648  52.9010429
  54.0093498  12.0199938  52.0792198  53.5982094  13.4470282  51.1429672
  51.8678551  13.1762447  48.8661423  51.8341560  14.4244366  48.9796028
  52.6616058  12.5326099  48.0598259  52.4812813  11.5388794  48.0506592
  53.6471901  13.2459269  47.2791557  54.2169380  13.8563118  47.9798126
  54.5946999  12.1890726  46.6500092  53.9939842  11.4763422  46.0849800
  55.2446365  12.6732111  45.9211159  55.4694290  11.5209932  47.7144279
  54.7660828  11.0812006  48.4215317  56.0016327  10.7383251  47.1737900
  56.5456734  12.3495283  48.3392334  56.8088722  13.5257254  47.9991837
  57.2675972  11.8261776  49.2952499  56.8499451  10.9716682  49.6350861
  57.7273331  12.4734278  49.9195976  53.1538239  14.1179066  46.1350098
  53.6703148  15.2503128  46.0437622  52.1639214  13.7059584  45.3497772
  51.7845726  12.7772369  45.4667015  51.4936562  14.5842772  44.3006058
  52.2065430  15.0861206  43.6463547  50.6333885  13.6506367  43.4324532
  49.9356422  13.0673046  44.0332642  50.0224800  14.2917757  42.7969742
  51.5460243  12.7803097  42.6016960  52.1270523  12.0573082  43.1742172
  50.8062477  12.2426567  42.0086021  52.4816208  13.4469233  41.6159401
  51.8617210  14.1031036  41.0049934  53.2330589  13.9798489  42.1985512
  53.2718849  12.3625793  40.7998505  53.7309189  11.7179651  41.5494270
  52.4945221  11.8445168  40.2382317  54.2340660  12.9232712  39.7150803
  55.1444092  13.1026525  40.1140823  54.3093987  12.1138973  39.1156311
  53.8957863  13.6118593  39.0581818  50.8542023  15.8040066  44.9703903
  51.0172119  16.8535519  44.4830284  50.1223640  15.5907202  46.0829277
  50.0463982  14.6667633  46.4837189  49.5169907  16.7359772  46.8598213
  48.7585907  17.2256660  46.2489777  48.7826080  16.2496758  48.1596909
  49.4536705  16.0182648  48.9868774  47.8462410  17.3332844  48.5949936
  47.7329865  17.0896339  49.6513596  48.3628273  18.2930355  48.5837822
  46.9247475  17.4698181  48.0290337  47.9235573  15.1834526  47.7782402
  48.4848442  14.4180555  47.6342773  50.6149902  17.7112179  47.2367630
  50.4005699  18.8979435  47.0287247  51.8345490  17.2482414  47.6774445
  51.8530045  16.2807426  47.9667625  52.8736572  18.2240429  48.0403290
  52.4647408  18.9476719  48.7454910  53.9727898  17.3743553  48.8257332
  53.4887733  16.9633160  49.7116661  54.3516884  16.5419617  48.2327232
  55.1418228  18.2913971  49.3558540  55.6654282  18.6042023  48.4524765
  54.9029922  19.1334362  50.0054932  56.1114883  17.3372021  50.1340675
  55.5888901  16.7205696  50.8653374  56.6087952  16.7320671  49.3760490
  57.1475296  18.2637768  50.8869438  57.2701797  19.1971703  50.3375473
  56.8648911  18.5138531  51.9095306  58.4947052  17.6172771  50.8168793
  58.6056671  16.9052544  51.5245590  58.6514664  17.2223148  49.9006195
  59.2078972  18.2905750  51.0579758  53.3547592  18.9628792  46.7901154
  53.4894867  20.2054939  46.8057899  53.6795998  18.1543846  45.7170448
  53.4589920  17.1731644  45.8099785  54.1296921  18.7437935  44.3955193
  55.0791512  19.2548103  44.5551682  54.3878098  17.6766949  43.3332443
  53.4641571  17.1448135  43.1050491  54.5802574  18.1303501  42.3609962
  55.5738297  16.7205601  43.5710487  56.5622406  17.1703014  43.4768219
  55.4110184  16.4208794  44.6063194  55.5508232  15.4699078  42.7225342
  54.9954720  15.4329405  41.6477509  56.2499084  14.4778509  43.1363602
  56.6060448  13.8479671  42.4317207  56.7008476  14.6602221  44.0215187
  53.1472282  19.7812729  43.9013557  53.6077919  20.8276939  43.4139900
  51.8521652  19.6265011  44.0119896  51.4252243  18.7292843  44.1931839
  50.9370041  20.5247650  43.4582329  51.1657104  20.7310772  42.4126549
  49.5629578  19.8521709  43.3718262  49.5615730  18.9165783  42.8125763
  49.3348656  19.4693298  44.3665695  48.4759560  20.8485432  42.9342651
  48.3771782  21.6208954  43.6970367  48.7164497  21.4706516  41.6217422
  49.7150040  21.7052860  41.2530518  48.1796074  20.8525295  40.9021416
  48.1649551  22.4107800  41.6105919  47.1006050  20.1324215  42.9703026
  46.9042015  19.7540131  43.9734612  46.3247910  20.8511105  42.7062912
  47.0172081  19.3352795  42.2315788  50.8528099  21.7461891  44.3717270
  50.9038620  22.9043217  43.9357719  50.8651772  21.5135059  45.7286797
  50.9182434  20.5552082  46.0432434  50.8562813  22.6626377  46.6241226
  50.0289917  23.2874908  46.2875900  50.7310371  22.1443768  48.0468025
  50.0733452  21.2762794  48.0026741  51.6527519  21.6321907  48.3228760
  50.2179604  23.0213146  49.1942520  51.1079750  23.6205158  49.3864250
  49.0159340  23.9407749  48.8699646  48.2422943  23.3886471  48.3363533
  48.6859741  24.5553722  49.7075195  49.3935318  24.6603661  48.1435280
  50.0901947  22.1029987  50.3535995  49.9063148  22.6661968  51.2685318
  49.2198067  21.4593697  50.2260361  51.0260849  21.5458641  50.3961525
  52.1246643  23.5497074  46.4777527  52.1280060  24.8057289  46.4995918
  53.2655945  22.9263058  46.2917709  53.3002739  21.9196320  46.3659515
  54.5682373  23.5783043  45.9879723  54.6192017  24.3757648  46.7292938
  55.8012161  22.7072411  46.1247177  55.6691513  22.1957798  47.0781708
  55.9786186  21.8992462  45.4149475  57.0220642  23.6453934  46.1184502
  57.2612877  24.1391029  45.1765785  56.8853188  24.3543282  46.9350357
  58.2995949  22.8708553  46.5030365  59.2868538  23.4824581  46.9974709
  58.3472290  21.6496716  46.2415390  54.4844704  24.5072346  44.7700043
  54.9005394  25.6879120  44.7663040  53.8762550  24.0226345  43.6692047
  53.5826416  23.0562820  43.6618576  53.7154121  24.8171501  42.4441605
  54.7307625  25.2065754  42.3699303  53.3315239  24.0232143  41.1914902
  53.9913559  23.1725006  41.0211792  52.3736610  23.5376797  41.3782120
  53.3420258  24.8678074  39.8521881  53.0977440  24.2108688  39.0174065
  52.5508499  25.6093140  39.9631424  54.6989136  25.5447044  39.5334206
  54.5143967  26.0554047  38.5883064  54.8177490  26.2622395  40.3452873
  55.7961502  24.5087757  39.4546661  56.0542603  24.2039471  40.4688454
  55.4713936  23.6051655  38.9387932  57.0483055  25.0058155  38.7275352
  56.8241959  25.0501862  37.7437134  57.3224144  25.9627132  38.8987503
  57.7704010  24.3115520  38.8566742  52.8512573  26.0504341  42.6970062
  53.2713089  27.1178913  42.2448502  51.6471939  25.9204273  43.2900429
  51.2795525  24.9969063  43.4690704  50.7600250  27.0522251  43.5955200
  50.3645172  27.5174484  42.6926155  49.6024895  26.5688038  44.5130234
  50.1260338  26.1022301  45.3474770  48.8047066  27.7241535  45.1363983
  49.4100952  28.3442516  45.7975159  48.2607727  28.3004913  44.3880196
  48.0715637  27.4694691  45.9017410  48.7263412  25.5890083  43.8177681
  48.0606041  26.1353722  43.1496468  49.3513680  24.8413620  43.3294373
  47.7595978  24.7531052  44.6634560  47.1096077  25.4331017  45.2141037
  47.1169701  24.1156635  44.0561676  48.2943840  24.0802956  45.3338509
  51.5613289  28.1425266  44.3303337  51.5910225  29.2405987  43.8980484
  52.3878021  27.8276901  45.3308945  52.3257828  26.8688965  45.6422920
  53.3585587  28.6323967  46.0695534  52.8181496  29.4317799  46.5765572
  54.0539169  27.7809811  47.1838760  54.4742851  26.8356457  46.8407440
  55.2200127  28.5565643  47.7248192  55.6089592  27.9012280  48.5041466
  55.9898949  28.6631355  46.9606018  54.8410416  29.4901600  48.1406059
  52.9767570  27.3521919  48.2547493  52.6957016  28.1923809  48.8897171
  52.0680275  27.1259232  47.6969757  53.4031563  26.1877289  49.1699905
  53.8011932  25.3537922  48.5918732  54.1530228  26.4745426  49.9072418
  52.5040627  25.7966442  49.6462135  54.2849922  29.4080200  45.1558228
  54.3516083  30.5772686  45.1120262  54.9612350  28.7094021  44.1905861
  54.8194733  27.7096500  44.2129326  55.7935371  29.4223919  43.2320557
  56.4267807  30.1847973  43.6857491  56.7362480  28.4461746  42.5082169
  57.4060898  28.1323318  43.3087883  56.1790810  27.5938835  42.1192894
  57.6847267  29.0424480  41.4698830  58.2612381  28.2208958  41.0446892
  57.0451927  29.5087852  40.7204666  58.7113113  30.0740681  41.8774757
  58.6953468  30.6148319  43.0487061  59.7112007  30.2198238  41.1113319
  55.0311203  30.2838192  42.2017097  55.4957848  31.3420238  41.7975616
  53.8434334  29.9198551  41.7509689  53.4227638  29.0760460  42.1130753
  53.1339378  30.6932526  40.7813454  53.7271652  30.9823380  39.9138107
  52.1268387  29.7990742  40.1931648  51.6383820  29.3965645  41.0805740
  51.3781776  30.2670631  39.5539513  52.7817879  28.7051907  39.3775940
  53.8003006  28.4887848  39.6999207  52.1244850  27.8380775  39.4421768
  52.8524323  29.1286221  37.9320564  52.7450409  28.2655964  37.0068665
  53.2042465  30.3106689  37.6644325  52.3900337  31.9460926  41.2235413
  52.2963409  32.9314575  40.5551910  51.8199692  31.7886047  42.3764229
  51.9398270  30.9428329  42.9153137  50.9509697  32.7628288  43.0227585
  50.6889153  33.5915680  42.3650208  49.7024345  32.0252609  43.5577660
  49.9982071  31.2631130  44.2787018  49.0920982  32.7958870  44.0286446
  48.9882812  31.2436104  42.4371490  47.9693985  31.7428303  41.9396667
  49.3122025  29.9858437  42.2315331  48.8573990  29.5414467  41.4468269
  50.1959839  29.6754131  42.6092377  51.7544174  33.4030762  44.2606468
  51.1628304  34.2239723  44.9691124  53.0825157  33.1144867  44.4255638
  53.4550896  32.3988571  43.8179703  53.9523506  33.7950325  45.4108238
  54.9256058  33.3179436  45.2956696  54.0969315  35.3679199  45.0971031
  53.1071434  35.7918243  45.2665939  54.7325401  35.7866287  45.8773499
  54.5846214  35.5790863  43.7136803  53.8419762  35.8057785  42.5614586
  52.8714676  36.0824776  42.6020470  54.6267090  35.8693237  41.5464630
  54.3106117  36.1805344  40.5617638  55.8632431  35.6077881  41.9206581
  56.6887512  35.6619072  41.3412514  55.8773689  35.4488373  43.3134079
  56.7190742  35.1432228  43.9171829  53.4588776  33.4653702  46.8395576
  53.6365204  34.3627625  47.6912308  52.7660217  32.3607635  47.0528526
  52.6675415  31.6918049  46.3025856  51.9398727  32.2166748  48.2806511
  51.3281288  33.1115608  48.3949051  50.8819656  31.0850449  48.2638779
  51.3460922  30.1157513  48.0817986  49.8470764  30.9418526  49.3830299
  50.2241821  30.5327988  50.3203545  49.4733353  31.9588089  49.5022697
  49.0119476  30.3129578  49.0745697  50.0393257  31.2103863  47.1171227
  49.2938156  31.7622414  47.3646469  52.8460236  32.0274773  49.4918976
  53.8585129  31.2727852  49.4567299  52.4844666  32.6956902  50.6168518
  51.5404625  33.0547791  50.6201553  53.0357399  32.3857155  52.0761642
  53.7421188  31.5560875  52.0470276  53.8072662  33.6082344  52.5762405
  54.2709846  33.2498169  53.4952621  54.5540733  33.8062057  51.8073463
  52.9853096  34.8463745  52.8426437  52.6662331  35.3044586  51.9064560
  52.2276497  34.4669151  53.5282555  53.7735443  35.8563385  53.6984863
  53.8323593  35.4684258  54.7154236  54.7479362  36.0126610  53.2356415
  53.0211830  37.2054710  53.8549995  52.0692215  36.9188652  54.3019104
  53.6876068  37.8674774  54.4079170  52.6508408  37.8620834  52.5918655
  52.2735481  38.7927437  52.6996651  53.3883171  37.8539619  51.9018135
  51.8659897  37.3502426  52.2148705  51.7976303  31.9995975  52.9345627
  50.6515541  32.3775291  52.5445862  51.9913750  31.1639290  53.9571877
  53.2741394  30.5728149  54.3082008  54.0798416  31.3036308  54.2385559
  53.6857910  29.8216534  53.6341095  53.0312805  29.8694801  55.6752129
  53.2500954  30.4979801  56.5384674  53.5436478  28.9112720  55.7613373
  51.5486641  29.5838051  55.7431641  51.0985985  29.6796265  56.7312737
  51.4295578  28.5349045  55.4716454  50.9685936  30.6027985  54.7681465
  50.2673912  30.0529938  54.1403465  50.2839317  31.6598568  55.5291328
  49.0773239  31.4908848  55.7762985  50.9701538  32.7412605  55.9525528
  51.9775124  32.7686348  56.0202255  50.3765831  33.7657127  56.7966728
  50.0522270  33.2930756  57.7237701  51.4075813  34.8977737  57.0392570
  51.9483337  35.1735573  56.1339264  50.8525047  35.7305489  57.4710846
  52.3269920  34.6196213  58.1724281  52.6459846  35.5313721  58.6774559
  51.8619003  33.9594765  58.9045448  53.6335411  33.9222984  57.7037773
  53.8081131  33.4620018  56.5274544  54.5168495  33.7453041  58.5303001
  49.0880699  34.3884048  56.1575203  48.1897430  34.9857941  56.7701683
  49.0216789  34.4273911  54.8047485  49.7630768  34.0624847  54.2239914
  47.8849068  35.0356140  54.0716972  47.4798012  35.8859978  54.6201859
  48.2846413  35.5105591  52.7312508  48.7424278  34.6768036  52.1989136
  47.4350510  35.7980003  52.1118317  49.2178192  36.6799240  52.6532974
  48.7436981  37.7930260  53.0226097  50.3868790  36.4960022  52.2783775
  46.6173096  34.0615578  53.8010101  45.5168304  34.5183601  53.5557632
  46.8492851  32.7305527  54.0083923  47.7045364  32.4117966  54.4408760
  45.8782883  31.6297455  53.7366257  45.2536163  31.8313236  52.8664284
  46.6705818  30.3247719  53.5648193  47.2128601  30.0785313  54.4777260
  45.6175308  29.1718559  53.1918945  46.1163788  28.3229485  52.7243423
  45.1366692  28.8204269  54.1047897  44.9708061  29.6069641  52.4299698
  47.5785141  30.4618015  52.3274841  48.4447784  31.0481358  52.6339149
  47.9242592  29.4899616  51.9752235  47.0374107  30.8817062  51.4795609
  44.8241272  31.4721432  54.9522476  45.0749397  31.0012913  56.0626068
  43.6323586  31.8386211  54.5960312  43.5205803  32.0760536  53.6207199
  42.4093323  31.8756371  55.4487839  42.6174049  32.3737297  56.3957329
  41.3117104  32.7501373  54.7510948  40.9776917  32.3011856  53.8156929
  40.0279465  32.9771004  55.5733032  39.2067833  33.4642067  55.0474586
  39.6317825  32.0594864  56.0082092  40.2941628  33.5968018  56.4295731
  41.8702354  34.0907173  54.2851334  42.7322235  34.0324631  53.6205330
  41.1416931  34.6566811  53.7046089  42.2450943  34.6377678  55.1501846
  41.7859497  30.5219707  55.8213577  41.1979904  30.5047188  56.8370743
  41.8808556  29.4529114  55.0020447  42.3661690  29.6272583  54.1336136
  41.5255013  27.9961586  55.0753860  42.1424332  27.4959488  55.8219032
  40.0698738  27.6865940  55.5550575  39.9304810  26.6239891  55.7539101
  39.9960480  28.1660328  56.5311661  38.8997993  28.2014637  54.6487846
  39.2736473  28.3229790  53.6321373  38.0841103  27.4797020  54.6062241
  38.2542763  29.5587482  55.1609383  38.1535683  29.9105949  56.3091660
  37.8823738  30.4940395  54.2722549  37.4114151  31.3260784  54.5978622
  37.8213654  30.3168163  53.2798004  41.7131386  27.4090710  53.7242355
  41.8268166  28.1123734  52.7178230  41.8103638  26.0689354  53.7032394
  41.4456100  25.6321392  54.5376663  42.2714386  25.3180103  52.5872231
  42.0427132  25.8529816  51.6654892  43.8054466  25.1697865  52.6048279
  44.2304001  26.1637287  52.4648514  44.1040230  24.6912346  53.5375366
  44.3723831  24.2110558  51.5086708  44.4025040  23.1948204  51.9016800
  43.7019920  24.2088528  50.6492043  45.9641495  24.7166252  50.9097481
  46.9814682  24.4283886  52.3701591  48.0446434  24.5171356  52.1468277
  46.7479553  25.2723064  53.0192986  46.7943726  23.4685593  52.8516388
  41.6022491  23.9350452  52.5370789  41.5846252  23.1593132  53.4551888
  41.0853081  23.5833817  51.3605957  41.1275024  24.2252712  50.5819435
  40.2273331  22.3577805  51.1080704  39.9651451  21.8671856  52.0454483
  38.8551369  22.7992439  50.6614151  39.0740013  23.4466381  49.8122520
  38.3030014  21.9574089  50.2436104  37.9532089  23.5361881  51.6814194
  38.4507141  23.6731129  52.6415443  37.5532036  24.9391651  51.2114296
  37.0263824  25.4365540  52.0257759  38.3822899  25.5863991  50.9254189
  36.9130096  24.9856930  50.3304710  36.6987839  22.6538334  52.0482101
  36.0655632  22.5482216  51.1673126  36.9898682  21.6716061  52.4205017
  36.0350037  23.1261387  52.7723770  40.7900391  21.4569092  50.1084023
  41.3830872  21.9803162  49.1634941  40.6394920  20.2238407  50.2809143
  40.2134590  19.9780350  51.1630592  41.3823967  19.1317616  49.5864983
  41.7918129  19.4667301  48.6334610  42.6046333  18.6972637  50.3913956
  42.2293549  18.1557770  51.2597580  43.0353317  17.9837399  49.6889114
  43.6789055  19.8188362  50.6356316  43.5801697  20.6497650  49.9371262
  43.7056770  20.3553448  52.0274048  44.5828896  20.9651909  52.2434883
  42.8786621  21.0521145  52.1639977  43.5310707  19.5909748  52.7846031
  44.9775505  19.1052570  50.3851471  45.1506233  19.0512962  49.3103256
  45.7891617  19.6917343  50.8157730  44.9689598  18.1169147  50.8447189
  40.3885803  18.0830765  49.2117348  39.4669685  17.9272480  50.0190315
  40.4863358  17.4176483  48.1059990  41.2969856  17.6583595  47.5537300
  39.6426735  16.2335014  47.8370705  39.3450508  15.7458096  48.7653351
  38.3264427  16.5269012  47.1412849  37.7909508  15.6003819  46.9341354
  37.6225128  17.1592045  47.6823730  38.4988060  17.1706047  45.8779068
  37.7384262  16.8792000  45.3694687  40.4041824  15.2195568  46.9344902
  41.4998589  15.6138725  46.4044685  39.9351616  13.9915247  46.8593369
  39.0577393  13.7494583  47.2971001  40.6280823  13.0096951  46.0024414
  41.0383568  13.5349302  45.1399422  41.6706505  12.2134399  46.8472023
  41.5000725  12.4169092  47.9043732  41.4654541  11.1473694  46.7497978
  42.7050591  12.4708414  46.6195145  39.4601860  12.1790991  45.4898567
  38.4762840  11.9364386  46.2267380  39.5654106  11.6241035  44.2968826
  40.4521332  11.7226267  43.8234749  38.5232391  10.8779879  43.6694832
  37.6509438  11.5265751  43.7503090  38.7420425  10.4629850  42.1972122
  38.1036797   9.6728029  41.8019753  38.8150177  11.6750307  41.3432922
  39.1709557  11.4650373  40.3346786  37.8202057  12.1143656  41.2695618
  39.4331093  12.4530478  41.7913513  40.0269318   9.9497414  42.1801758
  39.9034424   9.0176744  41.9862518  38.0567360   9.6606970  44.4188042
  38.8281555   9.0667009  45.1251755  36.8192825   9.1958857  44.1369400
  35.7342110   9.6884956  43.2306213  35.7756271   9.0931997  42.3184776
  35.8125114  10.7698555  43.1181946  34.4604874   9.3928204  44.0120277
  33.5698204   9.5433865  43.4019890  34.4761124  10.0829792  44.8555527
  34.7887611   8.0084019  44.4844093  34.6935234   7.2898273  43.6703568
  34.0895996   7.7194138  45.2691154  36.2253418   8.1177616  44.9290733
  36.3493500   8.3592567  45.9847298  36.9638596   6.7747250  44.6567612
  36.6761436   5.8391938  45.4305840  37.7634773   6.7124429  43.5646515
  37.9042130   7.6217442  43.1481552  38.6713104   5.5011120  43.2627869
  38.2537994   4.5773153  43.6632652  38.9836159   5.2143807  41.7415428
  39.4969978   4.2632427  41.6005516  38.0622253   5.2524409  41.1604347
  39.7353783   6.3909831  41.0813637  40.2649155   6.1416049  39.9412231
  39.6558914   7.5649190  41.4755669  39.9982643   5.6482620  44.1089058
  41.0007820   4.8837762  43.9562531  40.1542969   6.6440301  44.9692612
  39.4570007   7.3743701  44.9911690  41.2303391   6.7083735  46.0043907
  41.9229164   5.8700104  45.9296722  41.9606094   8.0729971  45.8553505
  41.2124290   8.8240862  46.1087189  42.7310257   8.1548491  46.6220703
  42.4928627   8.2925634  44.3761635  41.7105103   8.3998566  43.6248245
  43.3848076   9.6293697  44.4778290  43.8455200   9.5935173  45.4650269
  44.2149849   9.6131039  43.7716827  42.8269615  10.5326405  44.2308273
  43.5335770   7.2294149  43.9522858  44.2739754   6.9976664  44.7179184
  43.0496559   6.3097949  43.6233215  43.9726944   7.7152905  43.0809593
  40.7847939   6.5645604  47.4481621  39.6440201   6.8818326  47.7694626
  41.6650391   5.9894662  48.2764511  42.5960884   5.7990198  47.9344215
  41.2207222   5.5814414  49.6689644  40.4669228   6.2449093  50.0928726
  40.4313354   4.2113442  49.6574135  40.9179153   3.5844333  48.9101982
  40.2927780   3.8718681  50.6838913  38.9618492   4.2169642  49.2658463
  38.4675026   3.7607803  48.0784378  39.0650864   3.6327794  47.2743187
  37.0792961   3.7309082  48.1069221  36.4371185   3.5793481  47.2519150
  36.6933708   4.1883526  49.2977715  35.7406082   4.4784689  49.4656296
  37.8461418   4.4227996  50.0855217  37.8334084   4.7930532  51.0999947
  42.3679962   5.4965363  50.6739082  42.1628113   5.4521294  51.8734627
  43.5743866   5.4528761  50.1715698  43.7250519   5.3713880  49.1762009
  44.7092285   5.0099950  51.0349350  44.3886719   4.1336851  51.5983391
  45.9502678   4.5506487  50.2709045  45.6499901   3.8230062  49.5169334
  46.3727036   5.3825955  49.7074203  46.6247406   4.0951662  50.9959717
  45.1499786   6.0533476  52.1186981  45.7236938   5.6927619  53.1832848
  44.8651505   7.3452263  51.8877144  44.3306541   7.5424123  51.0537262
  45.2452583   8.4342995  52.8383598  45.2033958   8.0994616  53.8748131
  46.7681961   8.7977819  52.6187248  47.3780861   7.9030871  52.7438622
  47.1423607   9.3516684  51.2669754  48.2051811   9.5575409  51.1400185
  46.7142563   8.7508173  50.4645996  46.5849075  10.2708054  51.0865936
  47.1200256   9.7111902  53.8052444  46.6093102   9.4974413  54.7441673
  48.1996727   9.7794685  53.9386559  46.8364716  10.7402315  53.5844002
  44.3481445   9.6463623  52.5553436  43.8615799   9.8466272  51.4276543
  44.0254898  10.4537487  53.5754509  44.3510628  10.1677532  54.4877586
  43.5088463  11.8241978  53.4280968  42.5947151  11.9102449  52.8406792
  43.1405449  12.3423452  54.8052597  44.0365562  12.0950184  55.3745537
  43.0935555  13.4297981  54.8630486  41.8712387  11.8089638  55.4436989
  40.6053581  12.3083324  55.1200905  40.4955406  13.1447783  54.4457741
  39.4369087  11.8282518  55.7602692  38.4571190  12.2161427  55.5237312
  39.5689201  10.8222561  56.8127327  38.7033501  10.5710926  57.4077988
  40.8317680  10.3028841  57.1037979  41.0488663   9.5253458  57.8212280
  41.9794350  10.7990160  56.4407692  42.9456940  10.3882771  56.6938210
  44.5515480  12.7871466  52.8477898  45.6295853  12.8967218  53.4445534
  44.3040237  13.4297161  51.7028999  43.0617676  13.5088196  50.9526253
  42.2474556  13.8578854  51.5875702  42.9379654  12.5473213  50.4543343
  43.2235069  14.7410917  50.0760918  43.1183777  15.5843925  50.7586555
  42.6107979  14.8705053  49.1839371  44.6689873  14.6455116  49.7346802
  44.9938011  15.6425447  49.4371567  44.7139397  14.0009890  48.8568001
  45.3512268  14.2050467  51.0288734  46.1801224  13.6221581  50.6272812
  45.9102974  15.4244566  51.8264580  47.0462952  15.8813782  51.5456047
  45.0719604  16.0342178  52.7525826  44.2033615  15.5382013  52.8925896
  45.5506706  17.0531063  53.7277069  45.8114777  18.0287380  53.3175507
  44.3927879  17.2334766  54.6783257  44.5692444  17.8525581  55.5579300
  43.5357666  17.6437054  54.1441574  44.0946846  16.2770882  55.1079254
  46.7590218  16.6587334  54.5845375  47.5043030  17.5774765  54.9114952
  47.0014954  15.3530378  54.7763710  46.3484612  14.6683493  54.4230309
  48.1507530  14.8047190  55.4901619  48.0263405  15.3254032  56.4396400
  48.1399460  13.2522268  55.4837990  47.1541634  13.0988827  55.9229126
  48.1669312  12.8358402  54.4768257  49.3670120  12.6808195  56.3358574
  50.2505112  13.0065508  55.7868309  49.5210114  13.1259604  57.3188324
  49.4419899  11.1528540  56.4664383  48.4940720  10.6241255  56.5664139
  49.7450943  10.7284708  55.5092926  50.5046806  10.7389517  57.4626198
  51.4525261  11.0345945  57.0128593  50.5022621  11.3069677  58.3929176
  50.4832802   9.3490391  57.6466255  49.5718536   9.1267710  58.0207977
  50.6441803   8.7360697  56.8601875  51.1490593   9.0728703  58.3541298
  49.4484138  15.3661261  54.8792419  50.4892578  15.4150114  55.5772743
  49.4734230  15.8432503  53.6196594  48.6975288  15.6304855  53.0090675
  50.6357536  16.5128765  52.9750366  51.5643883  15.9631634  53.1285248
  50.3081970  16.4225616  51.5183105  50.0701256  15.4191189  51.1654205
  49.5923882  17.2335930  51.3843536  51.2472572  16.6789913  51.0279007
  50.8535271  17.9942150  53.3266945  51.9744110  18.4143734  53.2408714
  49.8490028  18.6677132  53.8621063  48.9493408  18.2092190  53.8842659
  49.8890228  20.1074028  53.9698715  50.2156258  20.4452820  52.9863701
  48.5421371  20.7756577  54.2857666  48.2737045  20.2543354  55.2046089
  48.6373978  22.2823887  54.5703735  49.1987915  22.7219353  53.7459068
  47.6154060  22.6576023  54.6237297  49.2513008  22.5961323  55.4146461
  47.6036949  20.5279617  53.1399651  48.1489830  20.8838921  52.2658577
  47.3426132  19.4713135  53.0814133  46.6851006  21.0710201  53.3621635
  50.9625092  20.6147575  54.9487839  51.8992729  21.3479080  54.5737839
  50.9641647  19.9944134  56.1455002  50.2270126  19.3294811  56.3314438
  51.9120026  20.3229294  57.2602921  51.8757553  21.4029560  57.4028854
  51.4562416  19.7529793  58.6467323  52.1758690  20.0818424  59.3964539
  50.4893265  20.1831017  58.9078293  51.3701859  18.2674351  58.6865425
  50.8422127  17.8696632  57.8198700  52.3716354  17.8380356  58.6578255
  50.5211906  17.7680798  59.9071655  51.1001701  17.9060745  60.8203125
  49.6013565  18.3401451  60.0286102  50.1365471  16.3761845  59.7113800
  50.8541794  15.7820406  60.1013794  48.9667511  15.8722849  59.3416405
  48.0929832  16.6518345  58.8662376  47.2251968  16.3077621  58.4806709
  48.3289185  17.6331787  58.8288155  48.6103516  14.5826559  59.3733025
  47.6972542  14.2160864  59.1453018  49.2693138  13.9818993  59.8476028
  53.4382210  20.0002937  56.9821396  54.2939873  20.3412857  57.8089828
  53.7449379  19.2252083  55.9034309  52.9982376  18.8983841  55.3070068
  55.1356010  19.0757751  55.4346046  55.6441460  18.9112320  56.3845558
  55.2583504  17.8983517  54.4358101  54.9784126  18.2643185  53.4479828
  56.2915878  17.6144657  54.2359962  54.6059685  16.5596085  54.7939644
  53.5705261  16.6978092  55.1051903  54.5537415  15.9208097  53.9123154
  55.3682938  15.7662544  55.9687271  56.2618790  16.3821144  56.6635818
  55.0374260  14.5713873  56.2279663  55.9131050  20.3349056  55.0098953
  57.1528778  20.3510227  55.0408516  55.2191200  21.3708763  54.7711143
  54.2177429  21.3904591  54.9013405  55.7549019  22.6490002  54.4285660
  56.7768402  22.5788155  54.0559845  54.9583549  23.2879581  53.2651787
  53.9145317  23.4422741  53.5385284  55.4474907  24.2577229  53.1735115
  54.9932289  22.5045834  51.9952507  55.2107658  21.4678249  52.2519798
  53.5872955  22.5256329  51.4100266  52.8344078  22.0482998  52.0372543
  53.2862396  23.5712013  51.3447914  53.5519104  22.1289196  50.3954010
  55.9482498  23.0777988  50.9476166  56.0053825  22.3694210  50.1211548
  55.4496117  23.9787445  50.5901794  56.9422989  23.3730526  51.2834625
  55.8747215  23.6500416  55.6234627  55.0511284  23.5779572  56.5195961
  56.8029404  24.6031189  55.5292740  57.4328079  24.6266937  54.7400894
  57.1754684  25.5106297  56.5339355  57.3711548  24.9475098  57.4464607
  58.4958534  26.2752151  56.1306572  59.2407303  25.5000439  55.9507446
  58.3849525  26.7050838  55.1351585  58.9999809  27.0979271  57.1012840
  59.8819351  27.3111019  56.7877235  56.0870438  26.4996567  56.8671227
  55.8321228  27.3435688  56.0320511  55.4989967  26.4994144  58.1038094
  55.7540817  25.7298546  58.7061424  54.4439583  27.4305935  58.5656204
  54.3984451  27.3112068  59.6481056  54.6902313  28.4616013  58.3117065
  53.0205193  27.0810623  58.0647240  52.0519638  27.7337437  58.3382912
  52.9855614  26.0619774  57.2408104  53.8095551  25.5172253  57.0301476
  51.7197914  25.6400261  56.6839371  51.0462646  26.4676189  56.4613342
  51.9867363  25.1006012  55.3304100  52.7528381  24.3280964  55.3969040
  51.1010628  24.5563221  55.0026131  52.2844009  26.0612755  54.1904411
  53.4519234  26.6281128  53.8226547  54.3428993  26.3761349  54.3786049
  53.3047600  27.4975376  52.8423538  54.0346031  28.0791950  52.4562073
  51.9819489  27.5269661  52.4876785  51.2950058  28.2453594  51.4477921
  51.8518066  28.8417187  50.7401657  49.9140701  27.9520226  51.2679329
  49.3885803  28.4668598  50.4772339  49.2376442  27.0614853  52.0920105
  48.1777229  26.8552685  52.1130257  49.9124146  26.3999729  53.1423836
  49.4565086  25.6751652  53.8005638  51.3079796  26.6020927  53.3234291
  50.8587379  24.8708973  57.7105179  49.7238960  24.6532288  57.4723740
  51.4442940  24.5680008  58.9038696  52.4080315  24.8540268  59.0013199
  50.7447853  23.6475010  59.8052444  50.2646103  22.8633480  59.2198906
  51.8044930  22.8088322  60.6203461  51.2558975  22.0285683  61.1479225
  52.6305275  22.4440441  60.0098572  52.5349312  23.6166096  61.7177429
  51.8294525  24.0845375  62.4043617  53.0435143  22.8895302  62.3508301
  53.6563950  24.5380516  61.1972618  53.8754616  24.7649307  60.0265694
  54.5712624  24.9093437  61.9974060  55.3755646  25.4401493  61.6950150
  54.3556480  24.6643772  62.9532356  49.6855049  24.3149490  60.7364960
  48.8903236  23.5905056  61.3623238  49.6203537  25.6536999  60.8027458
  50.3934364  26.1979408  60.4474411  48.5760689  26.5231171  61.4426422
  48.1160126  25.9044781  62.2131805  49.3096428  27.7593174  61.9159393
  49.5831528  28.3078918  61.0146294  48.5869675  28.3844719  62.4403610
  50.5134048  27.4909248  62.7496796  50.3695602  26.6379356  63.8679733
  49.4219322  26.1470566  64.0336304  51.3806572  26.5516167  64.7758713
  51.2302818  25.9117393  65.6328049  52.5579453  27.3296947  64.7016983
  53.5631447  27.1169987  65.5724945  54.4674568  27.1200237  65.2502975
  52.7023277  28.1455326  63.6139412  53.6011848  28.7275047  63.4733696
  51.6472702  28.3135605  62.6770515  51.7862778  28.9713860  61.8318634
  47.3996086  26.7905293  60.5004730  46.3283539  27.2201996  60.8582382
  47.5464973  26.4806728  59.2498856  48.4872246  26.1972065  59.0158310
  46.4943314  26.6246319  58.1877327  46.1226196  27.6445618  58.2860947
  46.8494759  26.4851933  56.7011948  47.2066154  25.4754066  56.4989967
  45.6733513  26.8792343  55.8759499  46.0697937  26.6976681  54.8769684
  44.7948799  26.2622242  56.0648613  45.3746758  27.9205189  55.9968491
  48.0054626  27.3984718  56.3924904  48.8876457  27.1911049  56.9981728
  48.2817078  27.2130375  55.3545113  47.8162956  28.4709854  56.4375954
  45.3296661  25.7097130  58.5222664  45.5592766  24.5053253  58.6934013
  43.9900284  26.1658287  58.4972305  43.4914169  27.5204449  58.4799271
  43.3550835  27.8351746  57.4452972  44.1655426  28.1648178  59.0442352
  42.0982513  27.4734650  59.1625404  41.4258881  28.1077747  58.5848923
  42.1396904  27.7136421  60.2249413  41.6176109  26.0162277  58.9696922
  40.9210434  26.0514622  58.1320457  41.2263222  25.6608410  59.9229469
  42.8741951  25.1988297  58.6450233  42.9805565  24.5755424  59.5328865
  42.6335869  24.3153591  57.3852654  42.4491081  24.8595009  56.2432365
  42.6578827  23.0203075  57.5418129  42.5648956  22.6274319  58.4676132
  42.4541168  22.0033398  56.4825172  42.2031822  22.5008259  55.5456924
  43.8225327  21.3422184  56.0461731  43.5322495  20.5996037  55.3029594
  44.7381783  22.4198208  55.4212685  44.1436653  22.8155308  54.5978203
  44.9375229  23.1873856  56.1690674  45.6499405  21.9124203  55.1060867
  44.6237946  20.6572762  57.2012749  44.9812279  21.4182720  57.8949776
  44.0494461  19.9072857  57.7450905  45.4957314  20.1494312  56.7890625
  41.3521080  21.0094452  56.7585335  41.1037064  20.5934048  57.8780136
  40.6108360  20.6482391  55.6434593  40.8565559  21.1500320  54.8020782
  39.4521523  19.6434383  55.5399971  39.7735558  18.8362541  56.1982155
  38.1634789  20.2245560  56.1610603  38.2664146  20.2752762  57.2450027
  37.8210068  21.6129684  55.7445335  37.0947800  22.0199242  56.4481506
  38.7400322  22.1990452  55.7433586  37.4072495  21.5977020  54.7362328
  37.0446815  19.4819908  55.8939896  37.1999779  18.6262608  56.3004494
  39.4131813  19.0132771  54.1666260  39.7672615  19.6058559  53.2344131
  38.9783058  17.7311993  54.1700096  38.4316139  17.4734573  54.9792023
  38.8457680  16.8475914  53.0010910  39.4647369  17.2289677  52.1889763
  39.5659218  15.5259867  53.2282982  39.0777054  15.1016216  54.1056023
  39.4784546  14.8127813  52.4086723  41.2850761  15.9814091  53.6220284
  41.1462746  15.9684286  54.9507370  37.4022064  16.5961246  52.5216484
  36.7528076  15.9286604  53.2651176  36.9722061  17.2316437  51.4746437
  37.6354485  17.7782001  50.9440918  35.6062737  17.1322174  50.9864960
  35.0238152  16.9859848  51.8961449  35.2883797  18.5016251  50.4117889
  34.2335701  18.5917645  50.1522598  35.4424171  19.2967339  51.1412888
  36.1893616  18.9599762  49.2684746  37.2070961  19.0999889  49.6327782
  36.1997490  18.1021042  48.5961266  35.8908081  20.5187111  48.3959465
  37.5297318  20.7621078  47.6157646  37.8295403  19.8613415  47.0801964
  37.5894508  21.5867424  46.9054756  38.3384438  20.8567772  48.3404198
  35.4257545  15.9061003  50.0019531  36.2484932  15.6308851  49.1042938
  34.3372726  15.1395302  50.1814804  33.8393440  15.2553158  51.0525513
  34.0351219  13.9765120  49.3812485  34.9167290  13.3383532  49.4414902
  32.9168625  13.2231855  50.1122169  33.2887192  12.9370651  51.0960655
  32.0108261  13.8237467  50.1929893  32.3574867  11.9591379  49.4910774
  31.8027515  11.3211842  50.1791077  31.6565571  12.2098141  48.6948624
  33.4243622  10.8878183  49.1152153  34.0367737  10.4338255  50.1150894
  33.7461967  10.6096954  47.8775711  33.2867432  11.0169811  47.0756226
  34.5742569  10.0331211  47.8331108  33.6959381  14.3526440  47.9716568
  32.6780434  14.9091349  47.6749916  34.6360817  13.9631205  47.1105537
  35.3910446  13.3298569  47.3321724  34.4209595  14.1184263  45.6400528
  34.3417091  15.1780252  45.3970070  35.7566299  13.5855093  44.9729500
  36.6307526  13.9086275  45.5382881  35.8692207  12.5013762  44.9640694
  35.9127274  14.1864138  43.5662270  36.9532623  13.9862204  43.3106728
  35.2995682  13.5962944  42.8851280  35.7716331  15.6764822  43.4219971
  36.3597946  16.4284782  44.2372742  35.2297707  16.1457977  42.4491959
  33.1617088  13.2762804  45.2037201  32.9149704  12.1615839  45.6369324
  32.3638306  13.8489437  44.3437767  32.6971779  14.7412529  44.0079765
  31.2224350  13.2407160  43.6391487  30.5736160  12.7859659  44.3877029
  30.4757538  14.3385992  42.7874489  31.1745415  14.9906521  42.2634048
  29.9495869  13.8451395  41.9702911  29.5948086  15.2098131  43.6273804
  28.8029537  14.5852375  44.0408707  30.3315201  15.6465359  44.3016396
  28.7599373  16.6101971  42.8027382  27.4546661  15.8548841  41.8369637
  27.0021820  16.5454922  41.1253357  27.8757458  15.0031595  41.3027763
  26.7184467  15.3899612  42.4926567  31.7622375  12.1219931  42.6903419
  32.7227898  12.3443356  41.8856659  31.1072159  10.9903154  42.6990929
  30.2192097  10.9894733  43.1802864  31.2677536   9.9754381  41.6880760
  32.3030968   9.8501959  41.3710899  30.8861790   8.5978727  42.2549438
  31.0341358   8.7424850  43.3251305  29.8176994   8.4000931  42.1692810
  31.4179325   7.3825655  41.5430374  32.1567116   7.4195032  40.4974899
  31.3371086   6.2346687  42.1071053  30.4980450  10.3177977  40.3978806
  29.5766811   9.6517572  39.9899406  30.9315586  11.3244963  39.6859016
  31.6695786  11.9113398  40.0479050  30.3107777  11.7995358  38.4369240
  29.2423058  11.8907089  38.6322632  30.7261276  13.2918577  38.0891953
  31.6785812  13.4650745  38.5901299  30.8482170  13.6653681  36.6119766
  29.9315739  13.5231304  36.0395813  31.0019855  14.7416000  36.5333481
  31.6444893  13.0690298  36.1665230  29.7999630  14.2402039  38.7406387
  28.9240417  14.3773975  38.1065750  29.4029217  13.9593973  39.7161407
  30.2532635  15.2305355  38.7837868  30.4659843  10.7998819  37.3332558
  31.3968468   9.9278879  37.3426170  29.4169216  10.7956076  36.4611893
  28.6383877  11.3762426  36.7383995  29.4281654   9.9970140  35.2082558
  29.8031654   8.9901114  35.3916206  28.0198936   9.9083147  34.5989914
  27.6443443  10.9115944  34.3977661  28.0154266   9.0516396  33.2858887
  28.6040382   8.1523895  33.4675331  26.9733696   8.7805119  33.1164551
  28.2594414   9.6282988  32.3936882  27.0508442   9.3662510  35.4759407
  26.3079796   9.2066412  34.8891869  30.3752708  10.7104626  34.2580109
  30.3010750  11.8898001  34.0254936  31.4654961  10.0541277  33.8501282
  31.4741516   9.0715542  34.0837364  32.6679153  10.6349421  33.2695885
  33.1744003   9.7508259  32.8824043  32.3886909  11.2883711  32.4430428
  33.7926865  11.3211374  34.0553093  34.6193695  11.9372168  33.4142685
  33.7311859  11.2336073  35.4444275  33.0308914  10.6482916  35.8769684
  34.7531204  11.7891102  36.4827385  34.8295059  12.8761425  36.5077362
  34.6263046  11.3515062  37.4729500  36.1192703  11.2111712  36.1721306
  36.2861404   9.9678354  36.1030617  37.0735359  12.0881042  35.8703613
  36.9561539  13.0827579  36.0006943  38.4900894  11.6271238  35.6838913
  38.6157532  11.0876360  34.7451363  39.4192352  12.8641272  35.5318871
  38.9521599  13.5765314  34.8518715  39.5380783  13.3531342  36.4987640
  40.8531876  12.3894777  35.0757713  41.0321922  11.3798752  35.4455833
  40.8760643  12.3348246  33.5671921  40.8202667  13.2603092  32.9940758
  41.7276115  11.8142071  33.1291008  40.0760460  11.6569195  33.2696800
  41.9731331  13.4072685  35.4416504  42.7816849  13.4620028  34.7127190
  41.6140862  14.4363356  35.4270935  42.4285545  13.2776356  36.4234238
  38.9491920  10.7419443  36.8053589  38.6786499  11.1110983  37.9529877
  39.6838875   9.6614618  36.5645218  39.9518661   9.4353943  35.6173210
  40.2446594   8.7541046  37.5644493  39.4732933   8.4349461  38.2653313
  40.5517769   7.4589782  36.7662354  40.8092537   7.6050038  35.7171974
  41.3803635   6.8743262  37.1658936  39.2361336   6.5861325  36.7091103
  38.8539314   6.4761367  37.7239647  38.4489441   6.9704919  36.0604935
  39.5351448   5.1674619  36.2568321  38.5872917   4.6415925  36.1421967
  40.0120163   5.2009592  35.2772560  40.3835564   4.2359743  37.0952759
  40.5241013   3.2835028  36.5842514  41.3297501   4.7310371  37.3137779
  39.6792488   3.9705052  38.3851128  39.6567345   4.7648048  39.0085602
  38.7233124   3.6540511  38.3067322  40.1838684   3.2405291  38.8673935
  41.4588356   9.3253355  38.3254776  42.2626991  10.0487928  37.7798424
  41.6186981   8.8089819  39.5440483  40.8981895   8.1558132  39.8166962
  42.7181358   8.8878031  40.4682999  42.3836708   8.7593756  41.4977379
  43.7982826   7.8447971  40.1213188  44.1417198   7.9429417  39.0915031
  44.6746254   8.0069065  40.7488937  43.4138184   6.4044394  40.2430954
  42.9386673   6.2687006  41.2146416  42.6024094   6.3009090  39.5226784
  44.5454254   5.4078455  39.9878235  44.9808769   5.6793876  39.0261879
  45.3653641   5.4399853  40.7052994  44.1149025   3.9960926  39.9509048
  44.3573647   3.5657480  40.9225578  43.0335541   4.0312805  39.8183975
  44.7562141   3.2092433  38.8823471  44.8435173   2.2126005  39.0208435
  44.4982719   3.3234987  37.9125481  45.7146530   3.5236568  38.8310013
  43.2944260  10.3410234  40.5562935  44.4501076  10.6575661  40.5009918
  42.3189087  11.2555037  40.6608429  41.4141159  10.8547220  40.8628883
  42.5536842  12.7220306  40.7398415  43.5846024  12.9196262  40.4461327
  41.5528450  13.3873215  39.7444420  41.7621117  12.9544420  38.7662163
  40.5085297  13.3588820  40.0554085  41.8390236  15.1832952  39.5580444
  42.4685135  15.3872299  40.7186699  42.5680275  13.3086233  42.1940994
  41.6942711  12.9050598  43.0073700  43.4920464  14.2076206  42.4906578
  44.1807022  14.3840313  41.7732124  43.4782410  15.0567875  43.7123795
  42.6930695  14.6260948  44.3337593  44.8482323  14.9193335  44.4394112
  45.7033005  15.1566114  43.8064384  45.0437012  15.9469767  45.6136513
  45.9430885  15.7502861  46.1971893  45.1522903  16.9516964  45.2051849
  44.2002602  15.9051800  46.3028259  45.0058327  13.4676380  44.9231987
  44.8822174  13.4468441  46.0059662  44.2662048  12.7855854  44.5038452
  46.4323959  13.0150557  44.6401215  46.5749321  13.1053295  43.5632553
  47.0336456  13.7328510  45.1981277  46.6451721  11.9842873  44.9235687
  43.1281509  16.4937134  43.3686600  43.5539246  16.9624786  42.3126717
  42.3627167  17.1691093  44.2308617  41.9964371  16.7247791  45.0606270
  42.0664940  18.5755329  44.0705681  42.7084160  19.0501461  43.3284264
  40.6072121  18.7505264  43.5209923  39.9591560  18.3857574  44.3179054
  40.5437927  19.8128300  43.2852173  40.1361732  18.0600071  42.2220535
  40.9457932  18.1317444  41.4957809  40.1509247  16.9798527  42.3674736
  38.7488174  18.6639690  41.7868729  38.9385414  19.6900158  41.4717064
  38.5184517  18.1691265  40.8433876  37.7506371  18.5475159  42.8866920
  37.5995560  17.5935860  43.1821480  36.9598541  19.3880062  43.4513626
  37.1880302  20.6614418  43.3502846  36.4984169  21.2059746  43.8483047
  37.4631691  20.9851551  42.4339790  35.9752731  18.9626789  44.1114693
  35.3287239  19.5026283  44.6687202  35.8293648  17.9633350  44.1004257
  42.2705994  19.3936749  45.2939072  42.6047516  18.7862206  46.3330879
  42.2431564  20.7085400  45.1336975  42.1297112  21.1160812  44.2165604
  42.5632515  21.7508507  46.2266121  42.2599487  21.3617802  47.1985855
  44.1077080  21.9998779  46.3576851  44.5473328  21.0653782  46.7063103
  45.0046158  22.3198395  45.1659164  44.7280579  23.2293510  44.6326256
  46.0364914  22.4413452  45.4954109  45.0166321  21.5012589  44.4462814
  44.3690186  23.0798950  47.4177551  45.3854179  22.9805241  47.7987595
  44.3005905  24.0338249  46.8948402  43.6898232  22.9711533  48.2633133
  41.8378525  23.0726719  45.9270592  41.9354744  23.4646244  44.7448921
  41.1242180  23.6643066  46.9193840  40.8826141  23.1125298  47.7301064
  40.5190125  25.0205135  46.9393158  40.7779274  25.5607967  46.0287361
  38.9487610  24.8827724  47.0643692  38.5267906  24.3600254  46.2060089
  38.6051216  24.2588673  47.8894539  38.2549210  26.1705570  47.1125870
  37.1723480  26.0519180  47.0672112  38.4671249  26.6413784  48.0724869
  38.6640701  27.4357738  45.9726219  37.4227219  28.6753998  46.2815857
  37.0656166  29.0569477  45.3250313  36.6202087  28.2334023  46.8721046
  37.8542557  29.5571613  46.7552681  41.0104256  25.7194633  48.1976929
  40.6444588  25.4104462  49.3202133  41.9084549  26.6715622  48.0498848
  42.1917000  26.9024429  47.1083069  42.2431908  27.5962734  49.2154160
  41.7691078  27.1804657  50.1044922  43.7461662  27.8084373  49.5095901
  43.8721809  28.5028439  50.3402634  44.3501434  27.0173473  49.9539909
  44.5223808  28.3089676  48.3455696  44.6271362  27.5274506  47.5930023
  43.9718857  29.0886593  47.8191338  46.1032333  29.0969830  48.7976112
  46.9383354  27.4981232  49.0490341  46.7869568  26.8094025  48.2178650
  48.0222549  27.5760403  49.1335716  46.5231247  26.9805202  49.9137802
  41.5351562  28.9564362  49.1050797  41.3262215  29.4832726  47.9785156
  41.3288116  29.5455971  50.2560272  41.5374260  29.0143642  51.0893173
  40.9597282  30.9815845  50.3793106  40.5789032  31.4660988  49.4802437
  39.8743019  31.1989212  51.4668083  40.2705269  31.0376225  52.4693489
  39.3858223  32.6082687  51.2820015  40.1830940  33.3513870  51.2970505
  38.9497108  32.7241364  50.2897911  38.5938644  32.7862625  52.0094872
  38.6883049  30.3625221  51.3211784  38.5864906  30.1927490  50.3818092
  42.2657127  31.7019558  50.8185272  42.8479080  31.3008327  51.8036957
  42.6648407  32.8422050  50.2914085  42.0770760  33.2903137  49.6030540
  43.8230476  33.6286697  50.6211929  44.1356392  33.4831009  51.6552124
  45.0021133  33.1214638  49.7034264  45.0954590  32.0365524  49.7519417
  44.8042297  33.4985924  48.2592430  44.8966484  34.5772171  48.1322327
  45.5846901  33.1366158  47.5899467  43.7992973  33.2028084  47.9580269
  46.3321190  33.5791283  50.2055397  47.0544662  32.9432335  49.6937256
  46.5266380  34.6243896  49.9653473  46.5145073  33.3036385  51.2442589
  43.6530952  35.1706696  50.5125008  42.9142876  35.7028122  49.7603836
  44.4009056  35.9744225  51.3634567  44.9587250  35.4771156  52.0428848
  44.6595840  37.4179573  51.1984138  43.6956711  37.8122711  50.8767166
  45.0980873  38.0528641  52.5400772  44.4532471  37.8912430  53.4038811
  45.9948120  37.5723610  52.9313660  45.3275261  39.5716400  52.5109940
  45.9842873  39.8694496  51.6936378  44.4708328  40.1833534  52.2281876
  45.8733406  40.0406723  53.8662186  45.4084969  41.0758896  54.3442841
  47.0393753  39.7110252  54.2663307  47.3734970  39.8047676  55.2148476
  47.5378265  39.0610580  53.6754074  45.6591682  37.7353096  50.0803757
  46.7438316  37.2194328  50.1383018  45.2800217  38.5253983  49.0749359
  44.3862457  38.9953575  49.0949135  46.1414604  38.8340378  47.8703117
  47.1730499  38.9275398  48.2097054  46.0397682  37.6092262  46.9074936
  46.6067848  36.7693748  47.3090591  44.6028938  37.2100677  46.4660225
  44.5893135  36.2536469  45.9433517  43.8533821  37.1273918  47.2531052
  44.2880898  37.9748764  45.7560501  46.7909698  37.8650322  45.7043381
  47.7096176  37.9836960  45.9565353  45.6439934  40.0206146  47.1414719
  44.4433441  40.2396011  47.1157799  46.5309715  40.8252335  46.5514565
  47.5057335  40.5656586  46.6021118  46.2581253  42.0505676  45.8282242
  45.3081284  42.4827194  46.1426392  47.4043274  43.0135956  46.1482277
  47.1856308  44.0049934  45.7514877  47.5223579  43.0226669  47.2317772
  48.8292542  42.5084305  45.6936913  49.5228653  43.0985985  44.8732262
  49.2124748  41.3337669  45.9929733  46.1909561  41.7470894  44.3422241
  45.8930817  42.6614723  43.5351448  46.4602966  40.5038452  43.9072189
  46.6413383  39.7521400  44.5570335  46.4233284  40.0308914  42.4590988
  46.9437065  40.7903175  41.8755112  47.1526337  38.6434784  42.3211288
  46.5583115  37.8557777  42.7841759  47.2470131  38.3101425  40.8859787
  46.2274551  38.2229614  40.5104904  47.8335686  39.0278549  40.3124428
  47.7839317  37.3625641  40.8421669  48.5871391  38.6648598  42.8581810
  48.9206657  37.6283340  42.8084106  49.2464409  39.3664284  42.3470840
  48.6084518  39.0037842  43.8939323  45.0094299  39.9662628  41.7804565
  44.0940590  39.3346825  42.2955322  44.8670807  40.6158943  40.5903664
  45.6857605  41.7227135  40.0469131  46.5567665  41.3116951  39.5365105
  46.0012856  42.3442192  40.8849297  44.8000526  42.5639763  39.0204582
  45.4600372  43.0076790  38.2750397  44.2556496  43.3070793  39.6031456
  43.8477898  41.4734497  38.6055794  44.2243614  40.8265800  37.8132057
  42.9635315  41.8903389  38.1235085  43.6214371  40.6568031  39.8895493
  42.9848785  41.2475204  40.5482979  42.9861450  39.2826920  39.6527061
  43.6188126  38.3174591  39.2609901  41.6412544  39.1732750  39.7876625
  41.1357498  39.8986778  40.2758827  40.9272003  37.8698730  39.6800156
  41.2847443  37.5185661  40.6479187  39.4258308  38.3068962  39.6528702
  39.2641792  39.2188225  40.2276421  39.1191483  38.4976807  38.6244507
  38.5469971  37.3340340  40.4337425  38.8650513  36.3076363  40.2508507
  38.6778488  37.5403023  41.4960175  37.0415039  37.5179977  40.2721481
  36.5310555  38.0661507  39.3161430  36.2292137  37.2245789  41.2859268
  36.6520004  36.9501953  42.1611824  35.2974777  37.5940399  41.1615639
  41.2417412  36.8574257  38.4797821  41.2687073  35.6421967  38.7200050
  41.5368385  37.4580002  37.3297806  41.5352859  38.4679413  37.3189125
  41.9519653  36.7830048  36.1165695  41.6540146  35.7383842  36.2065239
  41.0592728  37.3913460  34.9566574  40.9789886  36.7129364  34.1072960
  40.1032448  37.6519966  35.4107323  41.6218796  38.7808189  34.5049629
  42.1655350  39.5136795  35.3617668  41.6554337  39.0686607  33.2889862
  43.5359039  36.8917503  35.8806992  43.9708710  36.3871765  34.8272018
  44.4118614  37.4596405  36.7080231  44.0695648  37.9497070  37.5221291
  45.8428726  37.1992722  36.7793541  46.1297264  36.8725243  35.7798309
  46.4904251  38.5309868  36.9234276  45.9720612  39.1921577  36.2289810
  46.3543930  38.8781357  37.9476776  47.9972572  38.6350136  36.6963463
  48.4535561  38.3457222  37.6430244  48.4649124  37.9747086  35.9659958
  48.4694443  40.0279236  36.4711342  48.2817497  40.9344330  37.2743187
  49.0590363  40.4244041  35.3664474  49.1312943  39.6898499  34.6770210
  49.3358498  41.3927612  35.2905655  46.1999588  36.1043167  37.7873077
  47.3815346  35.5688400  37.7770958  45.2956848  35.6655083  38.6846352
  44.3750153  36.0793915  38.6504059  45.5800476  34.5469780  39.6117821
  46.5169411  34.7704163  40.1220818  44.4617691  34.4009171  40.7243080
  43.5089569  34.0945702  40.2925606  44.6505241  33.2136002  41.6955681
  44.8627396  32.3114624  41.1217880  45.5083504  33.5060005  42.3011551
  43.7836342  33.0914688  42.3449440  44.3632317  35.7226906  41.5350189
  45.3056107  35.8327255  42.0715942  44.2708168  36.5786705  40.8665390
  43.1880264  35.9014397  42.5193520  42.2400131  35.7350082  42.0078125
  43.1955986  35.2195091  43.3696556  43.1744461  36.9000702  42.9559860
  45.8610878  33.2239265  38.9066772  44.9878235  32.7307777  38.2407722
  47.0516815  32.7536964  39.0426445  47.7268257  33.3545303  39.4935074
  47.4817200  31.4873028  38.4169235  47.1790504  31.4240284  37.3717041
  49.0089645  31.3536758  38.3896370  49.2744522  31.3326035  39.4466019
  49.2831497  30.3918018  37.9563675  49.5634308  32.4956589  37.4974785
  48.9736176  32.6025734  36.5871010  49.5446167  33.4275246  38.0626106
  51.0383301  32.2083969  37.2819633  51.6614761  32.3755608  38.1605110
  51.0700760  31.1679440  36.9586182  51.4320183  33.1776466  36.2077408
  50.9398766  34.0472183  36.0602760  52.4085808  33.0286827  35.3610229
  53.3129005  32.1398735  35.6321411  54.1102028  32.0978050  35.0135612
  53.1589050  31.4807339  36.3817520  52.6370926  33.8257294  34.4149971
  51.9216614  34.4596939  34.0888786  53.5663528  33.9933777  34.0565796
  46.9783325  30.2414608  39.1193085  47.6293488  29.7187061  40.0605164
  46.0031433  29.6290016  38.5091286  45.6477737  30.2814102  37.8248940
  45.4441299  28.3568096  38.8310471  45.4708633  28.3863869  39.9203186
  43.9340820  28.2620907  38.5153923  43.8598480  28.5070705  37.4558754
  43.4916153  27.2799358  38.6818047  43.1560440  29.3193436  39.2340050
  42.6353493  29.3067932  40.5107460  41.9338570  30.4570007  40.6802940
  41.3472443  30.6586246  41.5643959  41.8181419  31.0984020  39.5213623
  41.2587547  31.9221706  39.3522758  42.5465508  30.3393211  38.5927124
  42.7299957  30.4628754  37.5356026  46.3945847  27.3106995  38.2546959
  47.1237602  27.5398293  37.3073311  46.5880814  26.1142578  38.8903770
  45.9206467  25.8741322  39.6093864  47.6805878  25.1337662  38.6230202
  48.1755905  25.3836136  37.6845856  48.6992836  25.1390686  39.7511787
  48.1724968  24.8694553  40.6665497  49.8258553  24.2155418  39.4259987
  50.5691795  24.2992783  40.2188225  49.4312897  23.2007370  39.3750801
  50.3328590  24.4931831  38.5018959  49.2625847  26.5579796  39.9483185
  50.1658173  26.5746078  40.5582314  49.5627441  26.9235783  38.9663086
  48.5014114  27.2264023  40.3507156  46.9864311  23.7531567  38.4105682
  46.5215034  23.1187248  39.3897820  46.8940849  23.1831589  37.2005424
  47.3307343  23.5572166  36.3701706  46.3733978  21.8429928  36.9155350
  46.0074806  21.4510078  37.8645096  45.2761459  21.8305740  35.8696671
  45.5788155  22.3843822  34.9809608  45.2555656  20.8050690  35.5008621
  43.9933701  22.3227463  36.4517593  42.9690056  21.3889828  36.7742462
  42.9140587  20.3916798  36.3634338  41.8618393  21.7887306  37.5137024
  41.0462723  21.0964394  37.6619606  41.7201347  23.1474953  37.9772568
  40.5482674  23.5433083  38.5978851  40.1189117  22.7307644  38.8754272
  42.7023659  24.0973454  37.6579895  42.6263351  25.1422157  37.9204063
  43.7918320  23.7123814  36.8686333  44.5610199  24.4403076  36.6567802
  47.6144180  20.9562340  36.5037117  48.3119278  21.3632164  35.5909920
  47.9231262  19.8071442  37.0973854  47.5169144  19.6585426  38.0100822
  49.0879898  18.9854069  36.6849670  49.7382851  19.3679466  35.8982735
  50.0095367  18.9568367  37.9370995  49.5408401  18.5448360  38.8307877
  50.8275299  18.3344593  37.5742912  50.6043015  20.2665310  38.3538132
  49.8136482  20.9007339  38.7547493  51.5387001  19.9956417  39.5323143
  52.2735291  19.3222580  39.0910835  51.9556656  20.8877449  39.9996338
  51.0367012  19.4702415  40.3447495  51.3915215  21.0264225  37.2550697
  52.2666626  20.4500847  36.9549789  50.7220268  21.2314930  36.4197121
  51.7316360  21.9968891  37.6164742  48.6364670  17.5386677  36.1930275
  47.5277176  17.0422401  36.4626694  49.5921326  16.8190231  35.6655083
  50.5077019  17.2454395  35.6653938  49.5541496  15.4522171  35.1993904
  50.4992180  15.2143364  34.7111702  49.4807053  14.4997673  36.4300728
  48.5123100  14.5606642  36.9266624  49.6252708  13.4996138  36.0215454
  50.6013374  14.7365770  37.4719810  50.5827293  15.7659874  37.8298454
  50.3870850  14.0268679  38.2710457  52.0561256  14.4496841  37.0895309
  52.9343758  14.7791500  37.9435387  52.2632294  13.8711195  36.0337830
  48.4434013  15.1944513  34.1798401  48.3459969  15.9944963  33.2418137
  47.5270653  14.2331667  34.4222488  47.6481094  13.6178713  35.2139931
  46.3626785  13.9872894  33.5835762  46.5963097  14.2399588  32.5493240
  45.8606606  12.5125237  33.6045914  45.5196266  12.3190632  34.6216316
  44.9354477  12.5816994  33.0324898  46.7886276  11.4140911  33.0563011
  46.9030914  11.6365643  31.9954033  47.7478905  11.4132786  33.5739021
  46.0789490  10.0906048  33.1063728  45.9511375   9.8350954  34.1582680
  45.0812569  10.1510496  32.6715698  46.8912544   9.0489817  32.4785461
  46.1918068   8.2131195  32.4639778  47.1943321   9.3663654  31.4807949
  48.1738968   8.7603436  33.1169205  48.4507751   7.8553987  32.7640572
  48.7978783   9.5172024  32.8762741  48.0464935   8.5813808  34.1027412
  45.1879807  14.9173260  33.9510422  44.3231354  15.0874710  33.0694160
  45.2730103  15.6462870  35.0924530  46.0289803  15.4978161  35.7455750
  44.2141914  16.5919285  35.4980927  43.2288628  16.1775818  35.2846870
  44.4004898  17.0024357  37.0062790  44.9410057  17.9396400  37.1389198
  43.3856354  17.3059559  37.2632828  44.6772308  16.1438942  37.6181793
  44.2905540  17.9498043  34.6575356  43.3272018  18.7415066  34.7397194
  45.3046303  18.0899563  33.7655182  46.0551033  17.4140186  33.7675018
  45.4250145  19.1431942  32.7628021  45.4819183  20.1614189  33.1476135
  46.6320610  18.7394409  31.8125000  46.5231590  17.6959152  31.5170403
  46.6720505  19.5600872  30.5803432  45.9016342  19.2582741  29.8707886
  46.6180649  20.6087227  30.8728313  47.5675430  19.3342667  30.0013752
  47.9546547  18.9393406  32.5706520  48.2521057  19.9708366  32.7594414
  47.8056221  18.3104134  33.4483452  48.7434845  18.4831257  31.9725590
  44.1341515  19.1462765  31.9174595  43.7647781  20.2045135  31.3971443
  43.4186974  18.0333786  31.6178150  43.7683945  17.2164383  32.0978355
  42.1094856  17.9451637  30.9086609  42.2309189  18.5036926  29.9805450
  41.7599449  16.4658051  30.7323589  42.6781311  16.0254364  30.3436298
  41.4741592  15.7720070  32.0163498  42.1984825  16.1261673  32.7498474
  40.4851494  15.9606714  32.4339218  41.5178223  14.7069578  31.7886162
  40.7465515  16.1227188  29.7338848  39.7853355  16.4956684  30.0875492
  40.9687691  16.7304115  28.8567123  40.7324753  15.0449924  29.5713634
  40.8924255  18.5333328  31.5722008  40.0531807  19.1648235  30.9382801
  40.8809013  18.6697044  32.9155579  41.7164650  18.4208813  33.4254799
  39.7983093  19.2198029  33.6827812  38.8567123  18.7696877  33.3683205
  39.9314423  18.5966454  35.0446587  40.8339043  19.0031261  35.5012054
  39.0813789  19.0301781  35.5714798  39.8408775  17.0733185  35.2543526
  40.5355759  16.5340462  34.6103973  40.2082634  16.8158932  36.7281303
  41.1809502  17.2736797  36.9081802  39.4280968  17.3191891  37.2992134
  40.2887688  15.7691231  37.0212021  38.3819351  16.6748295  34.8502693
  38.1578369  15.6883087  35.2560463  37.6378212  17.2855797  35.3615227
  38.2968979  16.7157383  33.7643623  39.8208504  20.7640381  33.8089600
  38.8887215  21.3491344  34.3112755  40.8733330  21.4166679  33.3936005
  41.5563049  20.8726921  32.8859177  41.2229652  22.8624477  33.7465782
  41.4502144  22.9103012  34.8115501  42.4754753  23.3284931  33.0085831
  42.6956100  24.3357906  33.3621254  43.3440742  22.7148075  33.2473831
  42.2448349  23.4244099  31.5099468  41.7521057  22.5186062  31.1566181
  41.6653786  24.3310127  31.3355637  43.6193008  23.6255608  30.8102398
  44.1031685  24.5858784  30.9884644  44.2908783  22.8098278  31.0779438
  43.5136909  23.6091442  29.3548298  43.5336418  24.4778290  28.8399544
  43.2125702  22.5308571  28.6048317  43.4088554  21.2951241  28.9792042
  43.6146812  21.0421371  29.9350986  43.3155785  20.5986843  28.2536888
  42.8547935  22.7948265  27.4097271  42.6657524  23.7519913  27.1485786
  42.6058426  22.0014858  26.8363743  40.0288239  23.8028774  33.3909874
  39.4701653  23.5201130  32.3810120  39.9297142  24.9913082  34.0596123
  40.8261108  25.6111736  35.0239944  41.7881470  25.9447861  34.6350365
  41.0361900  24.8335838  35.7583771  40.0522079  26.8441086  35.4844055
  40.7842178  27.5845947  35.8068085  39.3574829  26.5970230  36.2871513
  39.3010712  27.2959251  34.2988663  40.0193710  27.8933277  33.7373886
  38.3407288  27.7661190  34.5104256  38.9773636  25.9642944  33.5618782
  38.0130234  25.6203575  33.9358521  38.8635864  26.3421211  32.1087112
  37.7378197  26.4238148  31.6282978  39.9874191  26.5356216  31.4932728
  40.8287163  26.3279781  32.0121193  40.1012383  27.2027435  30.1894836
  41.1474304  27.4665585  30.0346050  39.7468681  26.2543259  29.0475197
  39.2202530  25.3887405  29.4494362  39.1669464  26.8455906  28.3388538
  40.9143944  25.6391029  28.3023720  40.6511116  24.7240162  27.5097771
  42.0996704  25.9331970  28.5183678  39.2840233  28.5376263  30.1802959
  38.1310539  28.6391926  29.7293777  39.9041939  29.6196613  30.5527325
  40.8513603  29.5206356  30.8891411  39.3219643  30.9724007  30.5748501
  38.2584190  30.8748817  30.7927074  39.8748398  31.8332691  31.6654587
  40.8994522  32.0497894  31.3631554  39.3251610  32.7697830  31.7598381
  40.0732918  31.2188511  33.1135368  40.5028458  30.2296028  32.9555206
  41.0410576  31.9775352  33.9858856  40.6436310  32.9796028  34.1471634
  41.0816040  31.7379513  35.0484581  42.0154991  32.0396385  33.5014191
  38.7088966  30.9560032  33.7796135  38.1139984  30.1199760  33.4118385
  38.1927872  31.9147358  33.7290001  38.8432884  30.8245926  34.8532829
  39.4952736  31.6940041  29.2739697  40.3850746  31.3428040  28.4763527
  38.6154785  32.6913490  29.0171566  37.9859200  32.7950134  29.8001060
  38.6258545  33.5134354  27.8084145  39.6071548  33.7882767  27.4216194
  38.1627235  32.7434883  26.5630817  38.7647743  31.8666401  26.3248119
  37.1556435  32.3662262  26.7407589  38.2992210  33.5791588  25.4844799
  37.8882027  33.2228622  24.6934566  37.6062393  34.6506119  27.9204559
  36.4139099  34.4807854  28.1523876  38.0253334  35.8980217  27.5351257
  38.9714890  35.9696159  27.1890564  37.1834183  37.1257401  27.4827271
  36.8319893  37.3685112  28.4855518  37.9921036  38.3297920  27.1034927
  38.2540894  38.1949043  26.0540791  37.3603973  39.2148781  27.1788769
  39.1527710  38.6160164  27.9859600  39.8124466  37.7520943  28.0670471
  39.9065170  39.8826790  27.4659061  40.3421364  39.4969444  26.5441971
  40.7842484  39.9976158  28.1018944  39.3405762  40.8138428  27.4932041
  38.6937141  38.9430504  29.4107590  38.0408249  39.8157463  29.4263020
  38.1856613  38.0506783  29.7763519  39.5649605  39.1938057  30.0158596
  35.9882317  37.0573044  26.4956703  34.9637070  37.7425385  26.5738182
  36.0586319  36.1573029  25.4723434  36.8460350  35.5345879  25.5833511
  34.9998398  35.8814201  24.4981575  34.7422981  36.8815918  24.1496868
  35.3431931  34.8727989  23.4161053  34.4205284  34.6472816  22.8813801
  36.3131485  35.4964485  22.4734497  36.6386452  34.7856445  21.7139034
  35.8625107  36.3513680  21.9693260  37.1827240  35.8914452  22.9987240
  36.0191498  33.7406464  23.8717613  35.2966080  33.2530594  24.2739944
  33.7455215  35.4612579  25.3115597  32.6095619  35.7067604  24.8907871
  33.8098831  34.8271065  26.5143471  34.7381477  34.6587105  26.8749943
  32.6774178  34.3540306  27.3144951  31.9192524  34.0800171  26.5808735
  33.0486183  33.1688881  28.1831894  33.6497345  32.5041847  27.5627594
  33.6157837  33.4917755  29.0562134  31.6979427  32.4316025  28.6232185
  31.9998894  31.7015667  29.3742008  31.1237965  33.1005440  29.2642918
  30.7649193  31.7764721  27.6081676  30.4965611  32.4365616  26.7833271
  31.3364582  31.0038528  27.0938663  29.5220947  31.2494106  28.2641678
  29.8686905  30.5910721  29.0607624  29.0482769  32.1374550  28.6824627
  28.6237411  30.5588684  27.2676697  27.8555889  30.0593166  27.6925125
  28.3329735  31.3219395  26.6732941  29.0974751  29.8430099  26.7354832
  32.0008430  35.4842758  28.1039486  30.9015369  35.3169250  28.5504513
  32.6641197  36.6394997  28.2380600  33.5339851  36.6523170  27.7249603
  32.1507034  37.7458305  29.0366249  31.8691292  37.4445381  30.0456028
  33.3349648  38.7571678  29.3151894  33.7109642  39.1646843  28.3767567
  32.8449326  39.5385017  29.8961277  34.5056114  38.1605721  30.0996456
  34.5512199  36.9722366  30.4377079  35.6144943  38.8516350  30.3084431
  35.6414986  39.7795334  29.9104748  36.4742966  38.3839035  30.5575943
  31.1031437  38.4744377  28.2491302  30.9693928  38.4060516  27.0223732
  30.3355217  39.3277245  28.9548931  30.6107635  39.4150009  29.9227390
  29.0964355  39.8751640  28.5518246  28.4870014  38.9933167  28.3542480
  28.3304768  40.7076225  29.6439114  28.9128494  41.5971794  29.8839741
  26.8957653  41.1071930  29.3505821  26.3523693  41.5691338  30.1748600
  26.9040470  41.8644943  28.5666637  26.3169537  40.2427940  29.0251732
  28.2877560  39.9221039  30.7875175  28.6751022  40.3491859  31.5550880
  29.1810722  40.7603149  27.2753277  29.9365997  41.7259560  27.1972942
  28.2697868  40.5481644  26.3556900  27.6865711  39.7430077  26.5336800
  28.1702251  41.1221619  24.9710331  29.1694946  41.4790840  24.7216930
  27.5979004  40.1233101  23.9346371  28.3355579  39.3237953  23.8658142
  26.6773109  39.8149529  24.4301605  27.2922916  40.5378113  22.4823036
  26.7554512  39.7280273  21.9881878  26.4940643  41.2796860  22.5060596
  28.4629154  40.9206657  21.6261425  29.2098560  39.9752464  21.3509445
  28.6425781  42.1023407  21.2838192  27.2905693  42.4134865  24.9852867
  27.5788994  43.3995438  24.2374668  26.3623886  42.5147362  25.9720917
  26.1696472  41.6840324  26.5132732  25.3691597  43.5823021  26.1902657
  24.8952007  43.8514633  25.2463303  24.3023281  42.9731979  27.1669712
  24.8442707  42.4479713  27.9534397  23.7198906  43.7947807  27.5839500
  23.1700459  42.0995674  26.6606426  22.6401596  42.6735268  25.9004478
  23.5655956  40.7700081  25.9971924  23.9983120  40.1071091  26.7464714
  22.6351776  40.3227844  25.6473122  24.2516270  40.9668541  25.1733494
  22.1655655  41.7936630  27.7389336  21.7147617  42.6756821  28.1938133
  21.3609447  41.2355881  27.2601452  22.5250206  41.0904694  28.4902077
  26.1272926  44.8509445  26.7284317  26.0611076  45.9151154  26.0701523
  26.7809792  44.8477821  27.7767887  39.8217278  44.1673088  59.3728371
  39.0883789  43.8552818  58.7523956  39.3701820  44.8804016  59.9275513
  40.5925674  44.5249329  58.8269310  40.1942635  43.0097122  60.2514839
  41.1317825  43.2299156  60.7620468  39.1483498  42.7065849  61.3471184
  38.9439392  43.6980209  61.7513084  38.2591858  42.2960472  60.8686256
  39.6035309  41.6987152  62.4282608  39.7741051  40.7705574  61.8827972
  40.5620079  42.0258408  62.8312645  38.5377541  41.3485794  63.8551865
  38.9249992  42.6888046  65.0519257  39.9499931  42.7165489  65.4216766
  38.7981911  43.6456604  64.5455170  38.3349571  42.5317307  65.9548569
  40.4030418  41.6907158  59.4223061  39.4790916  41.4319534  58.6516228
  41.4777374  40.9456520  59.5497284  42.2321205  41.1351128  60.1940193
  41.5884972  39.6511459  58.8588676  41.4842606  39.7662125  57.7799759
  43.0499687  39.1487694  58.9643936  43.7359276  39.8648109  58.5117874
  43.1794662  38.9482422  60.0279350  43.4893570  37.8297729  58.2816734
  44.4932289  37.5670853  58.6153450  42.8902664  37.0065269  58.6708488
  43.4746819  37.6722031  56.5175095  44.3239326  36.0761757  56.4444885
  45.3700523  36.1055450  56.7492332  43.8058853  35.3960419  57.1206169
  44.3386955  35.8791313  55.3725471  40.4977722  38.7184372  59.1898766
  40.1475296  38.6095963  60.3610573  39.9879189  37.9376678  58.2088089
  40.1297073  38.3205261  57.2849998  39.2162399  36.6855125  58.4136963
  38.8274574  36.6846924  59.4320030  37.9481316  36.4795761  57.5019302
  37.3626099  35.6377106  57.8714180  37.1328621  37.7016449  57.5831070
  36.2005081  37.4797058  57.0639114  36.9169807  37.8150635  58.6454773
  37.5136223  38.6523094  57.2097969  38.4778214  36.2031250  56.0661049
  39.1148376  37.0210533  55.7294960  39.2235413  35.4091530  56.1062927
  37.3129005  35.8621216  55.1835480  36.7496300  36.7697601  54.9667053
  37.7215538  35.3927536  54.2886734  36.6256409  35.2125549  55.7256279
  40.1457787  35.5391693  58.4446335  41.1810303  35.5889130  57.7808380
  39.8193398  34.6109238  59.2663536  39.0457878  34.8511810  59.8696709
  40.5584526  33.3966179  59.5743599  41.2951241  33.0784531  58.8366699
  41.4140892  33.6381989  60.8835335  40.7755852  34.1145477  61.6275101
  41.5961418  32.6858368  61.3814888  42.6329002  34.5270882  60.7215805
  42.3286896  35.5374908  60.4483719  43.0260468  34.8218536  61.6945419
  43.7802353  33.9486504  59.9006004  44.0487785  33.0139275  60.3928223
  43.4565277  33.8820724  58.8619080  44.9414482  34.8607140  60.0678253
  44.8043671  35.6046982  60.7370033  45.8990097  34.9506683  59.2096786
  46.1294365  33.9854774  58.3867073  45.5996933  33.1387100  58.5365982
  46.9155083  34.1060143  57.7640800  46.6939964  35.8906555  59.2298470
  47.3523140  36.0501175  58.4806519  46.5113449  36.5963936  59.9288979
  39.6036148  32.1905060  59.8448257  38.5198975  32.4713364  60.3089333
  40.0912285  31.0268459  59.3708038  40.9056015  31.0388699  58.7735138
  39.3381195  29.7820072  59.5474281  38.2832832  30.0370789  59.4456406
  39.6281433  29.0062294  58.8387985  39.5811844  29.2252445  60.9533195
  40.6920204  29.3245869  61.4704781  38.5180588  28.6511173  61.4859886
  37.6268272  28.7062206  61.0139999  38.5155067  27.7615509  62.6332321
  39.5423126  27.6301575  62.9745560  37.7773247  28.4286919  63.8040237
  36.7616310  28.6347599  63.4663811  37.7237701  27.4515095  64.9425201
  37.2971916  27.9015541  65.8389511  37.1127472  26.5834618  64.6950378
  38.7652931  27.1372280  65.0100403  38.5206490  29.7297134  64.3272018
  38.2207413  30.0212669  65.3337555  39.5832214  29.5101929  64.4314270
  38.3324432  31.0001583  63.5440369  39.0321388  30.9590416  62.7092743
  37.2854309  31.0133762  63.2412338  38.5163994  31.9265385  64.0881729
  37.9546127  26.3564949  62.3691788  36.7980690  26.1849728  61.9322662
  38.8248215  25.3712234  62.6278000  39.5799294  25.6120987  63.2538109
  38.4660683  24.0258598  62.6747932  37.6075821  23.9146576  62.0124207
  39.6638527  23.1958847  62.1474342  40.6017723  23.6444454  62.4748535
  39.5519218  22.2613449  62.6971703  39.7305565  22.9944897  60.6137085
  39.7855911  24.0059357  60.2111511  40.6953926  22.5251026  60.4217072
  38.5550117  22.2993469  59.9370575  37.6863670  22.9564285  59.8946571
  38.8202896  22.0855370  58.9016800  38.1052361  21.1652546  60.7509537
  37.4344940  21.4148102  61.4636421  38.5069237  19.8561878  60.7477875
  39.4325523  19.4824924  59.9430237  39.8024940  18.5434074  59.9060974
  39.7679863  20.1605721  59.2738495  38.0355682  19.0418644  61.6449547
  38.3619728  18.0874462  61.5935287  37.2796974  19.2292385  62.2881203
  37.9203186  23.5402718  64.0565109  38.3713379  23.9603271  65.1301956
  37.0105972  22.5383301  64.0196457  36.6109810  22.3113060  63.1202774
  36.8949242  21.5296173  65.1207657  37.8474655  21.5890484  65.6473007
  36.0686684  21.8926868  65.7319717  36.4545479  20.0764771  64.6615295
  36.1477013  19.9226227  63.4386444  36.5545998  19.0793800  65.5545654
  36.7959442  19.2447567  66.5212631  36.1571960  17.7090874  65.2961197
  35.2810402  17.8852081  64.6720734  37.2997551  17.0434093  64.6222305
  37.6837158  17.6150360  63.7772865  38.1378708  16.9855576  65.3167191
  36.9238167  16.0826244  64.2705765  35.7583084  17.0559101  66.6224747
  36.3232880  17.3138828  67.6507111  34.6915474  16.2984390  66.5358124
  34.2681122  16.1785164  65.6267319  34.2949829  15.3916731  67.6467590
  35.1946373  15.1910896  68.2285614  33.3406181  16.1614265  68.5202637
  33.8395386  17.0489616  68.9094467  31.9779053  16.5015068  67.8691864
  31.2681389  15.6905365  67.7059174  31.3805866  17.1564274  68.5035248
  32.1626205  17.1143494  66.9869080  33.2284851  15.3621349  69.6979218
  32.5658073  15.7194281  70.2935791  33.7178726  14.0826502  67.1134338
  33.6349411  13.9202042  65.9154129  33.3941612  13.1406851  68.0192108
  33.5362282  13.3572054  68.9954529  32.6637421  11.8734436  67.6890182
  32.2757416  11.9303083  66.6719971  33.7125549  10.6717844  67.7174835
  33.1609116   9.8075485  67.3474960  35.0243568  10.7776537  66.9152603
  34.9324532  10.0291929  66.1281967  35.0389404  11.7562695  66.4354630
  35.9482155  10.6796761  67.4853363  34.0878105  10.5069656  69.0623169
  33.3891029   9.9597263  69.4282913  31.4119339  11.5693789  68.4535599
  31.1278896  12.1328831  69.5528946  30.7313881  10.4754362  68.1280060
  31.0096664   9.9258499  67.3276215  29.4900875  10.0352449  68.8154907
  29.6354237  10.4237385  69.8234863  28.1849365  10.6385136  68.1997223
  27.4030075  10.1631098  68.7919083  28.0742302  12.1941156  68.2973633
  28.8781071  12.5297689  67.6422043  27.0863209  12.5248499  67.9768143
  28.3075275  12.4891462  69.3204117  27.8449020  10.2514210  66.7943649
  28.4616604  10.8724794  66.1447525  28.1254940   9.2166853  66.5976562
  26.7982483  10.4343443  66.5511398  29.2976532   8.4775267  68.8691025
  29.8729992   7.7811131  68.0102921  28.6318035   7.9255137  69.8500061
  28.3357201   8.5012703  70.6252136  28.4474106   6.4649000  70.0488892
  29.2055874   5.9839487  69.4308624  28.7080898   6.1335959  71.5325394
  27.8684368   6.5777292  72.0671692  28.6201782   5.0640736  71.7235947
  30.0709286   6.6668143  72.0081100  30.2485161   7.7341552  71.8764038
  30.1568909   6.5042210  73.0824890  31.2358398   5.8300557  71.3760300
  31.2002182   4.5463362  71.3075867  32.2370911   6.4677329  70.9899750
  27.1814957   5.8135872  69.5369110  27.0900822   4.5687451  69.6001511
  26.2668304   6.5884018  68.9849091  26.5250454   7.5648284  68.9889069
  25.0018349   6.0874519  68.2607269  25.2444458   5.1111307  67.8411560
  23.9523144   5.8650923  69.3291092  24.2798233   5.0854354  70.0168381
  23.7778645   6.7743897  69.9042969  22.5390968   5.3278408  68.9253311
  22.1514950   5.9926891  68.1534271  22.5232410   4.3077183  68.5416565
  21.5399189   5.4801126  70.1095047  21.8327503   6.3400874  70.7118301
  20.5521564   5.6021767  69.6650620  21.5668297   4.2095590  70.9230347
  22.4930496   3.8367047  71.0753479  20.5153809   3.7018847  71.6275482
  19.3521576   4.2473736  71.4572525  19.1644554   5.1173720  70.9797897
  18.5222912   3.7436032  71.7358856  20.6316547   2.6231053  72.3395081
  21.5240498   2.1713214  72.4795990  19.9213238   2.1639676  72.8915253
  24.5967941   7.0517707  67.1318359  24.6448669   8.2415676  67.3466492
  24.1009617   6.5568147  66.0411453  24.1717205   5.5823698  65.7851181
  23.3548927   7.3211265  65.0490417  23.7599545   8.2980623  64.7851868
  23.4978638   6.4332948  63.7860413  24.5450706   6.2696686  63.5317078
  22.9587231   5.4915447  63.8886757  22.9480648   7.2218862  62.5870361
  23.1839981   8.4858236  62.3742943  22.2116795   6.6099973  61.8083611
  21.8925056   7.5790830  65.4718170  21.0205936   6.7375040  65.4167252
  21.7705383   8.6981544  66.1612701  22.6074619   9.2375498  66.3307114
  20.5554962   9.2157440  66.7373505  19.7410831   8.9916506  66.0484314
  20.1950569   8.6212053  68.1179428  20.1104393   7.5402422  68.0063248
  21.3070259   8.9089384  69.2019730  20.9726982   8.6662483  70.2106476
  22.2315578   8.3710003  68.9922791  21.4959621   9.9818010  69.2389526
  18.9923306   9.2549953  68.4918823  18.3344173   9.1222744  67.8054962
  20.7737274  10.7264519  66.8017654  21.8945446  11.2047939  67.0104904
  19.6955242  11.5432405  66.7045059  18.8347931  11.0485258  66.5187607
  19.6201496  12.9907942  66.9772720  20.3732376  13.4990282  66.3750610
  18.2889118  13.6503429  66.4974136  18.3140182  14.7400513  66.4995651
  18.0993042  13.4070044  65.4519806  16.9115009  13.2448950  67.0746994
  16.9422760  13.4674902  68.1412811  16.1072216  13.8357725  66.6364059
  16.4361382  11.7798157  66.9681396  17.0062275  10.9354324  66.2352448
  15.4786777  11.4856062  67.7580490  19.8616905  13.3938599  68.4324188
  20.2527790  14.5168295  68.7052765  19.6979866  12.3876114  69.3204575
  19.4362297  11.5014439  68.9126740  19.8615627  12.3986378  70.7858582
  19.3744831  13.2858324  71.1905060  19.1127834  11.1545200  71.3093109
  19.5634460  10.3155556  70.7790833  19.2922363  11.1363192  72.3842773
  17.5901318  11.0942564  70.9725952  17.4383640  11.5297728  69.9849777
  17.2485771  10.0697317  71.1202087  16.7685776  12.0817146  71.8451691
  17.2798233  12.8247929  72.7034531  15.5133333  12.0384846  71.6778030
  21.3326378  12.1306648  71.3051834  21.5524578  12.1137953  72.4969711
  22.2488689  12.0532217  70.3148880  21.7751026  12.0836172  69.4234161
  23.6664467  12.0558605  70.5616760  23.8477249  12.2651157  71.6159286
  24.2484703  10.6565771  70.2425919  23.9274158  10.3787441  69.2386856
  25.3204098  10.8531723  70.2226868  23.8702545   9.5431232  71.2985077
  22.7824135   9.5129204  71.2369385  24.3991604   8.6326904  71.0166016
  24.2762299   9.8197584  72.8123627  23.6265297   9.2295485  73.7431259
  25.0117264  10.7715788  73.1282806  24.2631378  13.2046871  69.7317581
  25.0917244  14.0530882  70.2158279  23.8919430  13.3099499  68.4193039
  23.2868061  12.5528488  68.1352158  24.4772816  14.2355490  67.4263458
  25.5420570  14.0086260  67.3728714  24.0023079  13.8215046  65.8963547
  22.9493866  13.5628719  66.0084610  24.2523689  14.8427076  64.7444839
  23.9076099  15.8275709  65.0595932  25.3130245  14.7066507  64.5332870
  23.6977367  14.6124249  63.8348351  24.6175728  12.4169083  65.5677643
  25.6964092  12.4877443  65.4292221  24.3678589  11.7752924  66.4127884
  23.9317036  11.8408155  64.2733765  24.1722507  10.7815952  64.1823502
  22.8680019  12.0763454  64.3075714  24.3359451  12.2950993  63.3687706
  24.3080101  15.6793480  67.7633743  25.3244190  16.3624573  67.8128357
  23.0865574  16.0889397  68.1232910  22.3260956  15.4333677  68.2329407
  22.8424854  17.4736252  68.4065933  23.1738739  18.0357590  67.5335007
  21.3886623  17.9099026  68.4593964  20.8096085  17.4897766  69.2817688
  21.2622414  18.9918289  68.4989014  20.5966034  17.5791435  67.1988831
  20.8702736  16.5850697  66.8452911  19.0935402  17.5806789  67.5094681
  18.4634991  17.4982929  66.6238251  18.8770027  16.7491932  68.1801682
  18.8906879  18.5682793  67.9237213  20.8025589  18.6429691  66.1049805
  20.3326817  19.5541363  66.4752197  21.8618221  18.6455956  65.8479691
  20.3079605  18.3457165  65.1802597  23.6380196  17.9563732  69.6247864
  24.4570827  18.9087181  69.5156937  23.5817356  17.3041115  70.8298645
  23.1302452  16.4040203  70.9079132  24.2178802  17.9117203  71.9968338
  23.9064255  18.9557686  71.9642487  23.6497478  17.1793423  73.1888428
  22.5779743  16.9946766  73.1160431  24.0717697  16.1749973  73.1528854
  24.0774174  17.7601509  74.5481567  23.4978542  17.3009300  75.3489761
  25.1158657  17.4310036  74.5854111  23.8354702  19.3010750  74.6700821
  22.8849754  19.8991680  74.1643753  24.6538715  19.9721642  75.4136734
  25.4988232  19.4736042  75.6536560  24.6909103  20.9794827  75.4772949
  25.7849865  17.8359623  71.9194031  26.4586143  18.8008404  72.2361450
  26.3058243  16.7542801  71.3175507  25.7304420  15.9881725  70.9980011
  27.7715263  16.7306633  71.0266647  28.4158001  16.9028206  71.8888550
  28.2381649  15.3680782  70.5404129  27.4840164  14.9825830  69.8542938
  29.1939087  15.5170078  70.0379486  28.5474930  14.3534727  71.6786118
  29.0507889  13.5271606  71.1766129  29.3474655  14.7549915  72.3006439
  27.5162659  13.7481251  72.5134354  27.0298786  14.5428123  73.0791245
  26.8601799  13.1761799  71.8572845  28.2088680  12.7599916  73.5903625
  28.6288357  11.8991642  73.0700760  29.0163612  13.2618160  74.1234970
  27.1828384  12.2737045  74.4787445  26.7326107  13.0627928  74.9200363
  26.3916531  11.7712212  74.1023941  27.4449272  11.7981262  75.3303528
  28.2599106  17.8514404  70.0086441  29.3297958  18.4937878  70.1936340
  27.4813442  18.1509457  68.9308853  26.6202145  17.6409435  68.7950363
  27.7119884  19.2364693  67.9782257  28.7074203  19.1528740  67.5420761
  26.6880665  19.1309299  66.8229218  25.6909657  19.2081432  67.2564316
  27.0265350  20.1105614  65.7473145  26.8555660  21.1254272  66.1063538
  28.0425892  20.0446644  65.3582230  26.3009987  20.0340500  64.9374695
  26.7367859  17.8700848  66.2153015  26.2037239  17.2510433  66.7195206
  27.5562153  20.6374989  68.6895370  28.4428558  21.4670525  68.3781357
  26.6439419  20.8130875  69.5845795  25.8967113  20.1335964  69.5905914
  26.4590664  22.0943890  70.3459625  26.3961658  22.8814430  69.5945053
  25.0821648  22.0657215  70.9887466  24.4396648  22.1457767  70.1118851
  24.9158020  21.1706524  71.5881424  24.6182346  23.2841530  71.7623291
  25.0751419  24.1833649  71.3491058  23.5616722  23.3270473  71.4978790
  24.7498283  23.2565861  73.3342133  24.1342163  22.5513325  73.8925476
  25.8027077  23.0814762  73.5553055  24.4328632  24.6341763  73.8863983
  24.9763260  25.4037342  73.3381958  23.3522110  24.7660465  73.8325348
  24.7497864  24.8851337  75.3391266  24.6179790  24.1330357  76.0002365
  25.7345581  25.0679188  75.4691849  24.2410717  25.6835423  75.6910553
  27.5632668  22.3399715  71.3031387  28.0912380  23.4794197  71.3231659
  28.1032219  21.3208351  71.9843369  27.6801071  20.4312992  71.7611771
  29.2984619  21.2922897  72.8651199  29.1546803  21.9609566  73.7138290
  29.4442921  19.9281578  73.4702988  28.7002316  19.8719292  74.2648544
  29.2568035  19.1072693  72.7781372  30.6536808  19.4996147  74.2299957
  31.5321312  19.4980984  73.5846863  30.8217506  20.1855640  75.0602493
  30.5895100  18.0802765  74.6376572  30.5860081  17.1669788  73.7977524
  30.4827633  17.8124275  75.9549713  30.3368130  16.8968544  76.3556290
  30.3868256  18.5700397  76.6159668  30.5745659  21.7434349  72.1456451
  31.3555031  22.4677162  72.7709732  30.7347183  21.2937603  70.9120560
  30.0450687  20.7105236  70.4600372  31.7858047  21.7013760  70.0277252
  32.7534981  21.5756912  70.5133896  31.8837414  20.7002735  68.8245544
  32.1709557  19.7239056  69.2148361  30.8961658  20.5413189  68.3915100
  32.8328896  21.0406017  67.7195969  32.7481766  22.0938377  67.4519806
  34.3324852  20.8986320  68.1106415  35.0008049  21.0008965  67.2556610
  34.6162033  21.6566944  68.8406754  34.5138474  19.9006386  68.5096588
  32.6599236  20.1376553  66.5414734  31.6372166  20.2090034  66.1712341
  33.2849426  20.2625179  65.6572418  32.8575783  19.0942593  66.7871552
  31.6761341  23.1390476  69.6946335  32.6746140  23.8908234  69.6959229
  30.4963608  23.5618401  69.3095093  29.7405720  22.8950329  69.2443085
  30.2432747  24.9253197  68.8397522  31.0496216  25.0911579  68.1253204
  28.8790646  24.9141998  68.0704880  28.2868748  24.1501122  68.5740509
  28.4382935  25.8977394  68.2331924  29.0103416  24.4138775  66.5731354
  29.4952736  23.4377232  66.5650253  27.6540356  24.2851753  65.9793777
  27.7433014  23.7232323  65.0496750  27.0655346  23.5779381  66.5638275
  27.0987034  25.2118397  65.8344574  29.8718700  25.3152866  65.6615601
  29.9414349  24.8540974  64.6763916  29.2699509  26.2226048  65.6108780
  30.8843346  25.4425125  66.0447540  30.5014420  25.9973278  69.9239349
  31.4434872  26.7449570  69.8435135  29.8001099  25.9349079  71.0146103
  29.2080784  25.1168919  71.0357742  30.0088692  26.8292274  72.2267685
  29.8455296  27.8678741  71.9393158  28.9831886  26.5746517  73.3092728
  28.9719276  27.3980064  74.0234528  28.0206699  26.4590683  72.8109741
  29.4296398  25.3272285  74.0821457  29.5876083  24.5275478  73.3585052
  30.2489185  25.6728039  74.7125931  28.4381561  24.8138275  75.0128326
  28.6479034  23.8430481  75.6978073  27.3589249  25.4590397  75.1426239
  31.5603065  26.8375416  72.7189789  32.0623970  27.9206047  73.0354691
  32.2868462  25.7220688  72.7377701  31.8600616  24.8323727  72.5223694
  33.7716141  25.7509727  72.9417343  33.9808197  26.4072399  73.7865143
  34.1573677  24.3179226  73.3708420  33.3950043  23.8653812  74.0049667
  34.3038063  23.7263374  72.4671402  35.6150589  24.3284836  74.0546875
  36.3699760  24.3253174  73.2684402  35.6541862  25.2715034  74.5999298
  35.8048210  23.0805035  74.9880447  35.8992500  22.1528969  74.4234772
  36.7933273  23.2416439  75.4181519  34.7825203  22.9336338  76.1105423
  33.7880478  22.8145676  75.6804886  35.0419579  22.0598869  76.7083359
  34.7093239  24.1211357  76.9896622  35.6154747  24.4279785  77.3134537
  34.2620049  24.8632851  76.4708023  34.0951118  23.8350410  77.7386627
  34.6557350  26.3222504  71.7928696  35.6583061  26.9640846  72.0394669
  34.2015190  26.2379227  70.5428772  33.3791046  25.6949406  70.3217239
  34.9950829  26.9660339  69.5547028  36.0800209  26.8966446  69.6334152
  34.5050812  26.6092396  68.0973282  33.4478531  26.3646317  68.1999817
  34.5656090  27.8277626  67.1180496  34.9037094  27.5810013  66.1116180
  33.5827026  28.2967930  67.0733414  35.2665405  28.6151028  67.3953400
  35.2759285  25.4198532  67.5633469  36.3235779  25.7166653  67.5140839
  35.3106499  24.6031132  68.2843399  34.6453018  24.8213959  66.2884064
  33.7971420  24.2943592  66.7253952  34.3675156  25.5208225  65.4999084
  35.3901405  24.1300621  65.8942413  34.8491287  28.4664497  69.7116547
  35.8326912  29.2127953  69.7660294  33.5432243  28.9159870  69.9468613
  32.7918587  28.2412491  69.9302444  33.2365341  30.3128052  70.2984314
  33.5028267  31.0724926  69.5635452  31.7475739  30.5224800  70.5255356
  31.4902077  29.7732944  71.2742538  31.2256565  31.8207321  71.1306076
  30.2117901  31.5571442  71.4317703  31.7923717  32.2126312  71.9752045
  31.1978321  32.6428337  70.4154358  30.9904728  30.1968784  69.1657104
  31.0232143  31.0738564  68.5192261  31.3838234  29.2905064  68.7054214
  29.5196819  29.8363571  69.3582153  28.9330235  30.7211285  69.6054230
  29.0856400  29.5002556  68.4165421  29.4230270  29.0843887  70.1413498
  33.9014053  30.7680340  71.6162949  34.2987709  31.8972683  71.7425919
  34.0224686  29.9292183  72.6111298  33.5233612  29.0626087  72.4697876
  34.5396271  30.3350525  73.9418869  34.2998886  31.3807240  74.1347580
  33.8479729  29.4210243  74.9659500  32.8047409  29.7366848  74.9550018
  33.8168259  28.3591156  74.7220535  34.2923126  29.4405479  76.4338760
  33.9712677  28.6475258  77.1092606  35.3813515  29.4228134  76.4762115
  33.8323784  30.7147923  77.0787354  33.7643280  31.8397446  76.5130081
  33.4703484  30.7604847  78.2567444  36.0350571  30.3275337  74.1389771
  36.5411835  31.1705475  74.8692551  36.7595673  29.4672890  73.3442001
  36.3533020  28.6565475  72.8995132  38.2151985  29.4603691  73.2600098
  38.5827522  29.5619583  74.2811279  38.7916794  28.1456566  72.6423492
  38.4570007  27.9596806  71.6218033  39.8698235  28.3043156  72.6653748
  38.4031982  27.0000801  73.4933701  37.3326950  27.0403824  73.6946335
  38.8047523  26.0772820  73.0746918  39.1481972  26.9854431  74.9246445
  39.9605103  27.8814793  75.1846466  38.8730621  26.0985546  75.7112427
  38.6863213  30.6857033  72.4631958  39.7257576  31.2775002  72.6991272
  37.9004822  31.1274776  71.4553528  37.0903816  30.6008186  71.1612930
  38.2760162  32.2956772  70.6215744  39.2892647  32.6306381  70.8434448
  38.2826271  31.9089642  69.1250610  37.2715263  31.6657295  68.7985382
  38.5167084  32.7666321  68.4944153  39.1342201  30.6676083  68.7629471
  40.3671112  30.7795677  68.7044296  38.5476112  29.4830952  68.6569824
  39.1321640  28.7560463  68.2699432  37.6267700  29.3177814  69.0375443
  37.2747498  33.5028152  70.8307571  37.3846931  34.5168762  70.1180954
  36.4271774  33.5276108  71.8634338  36.5056992  32.8153839  72.5752411
  35.7038918  34.7457008  72.3280945  34.9919853  34.3236961  73.0374680
  36.5917702  35.8132858  73.0089188  37.2241173  35.1768456  73.6279373
  37.1549225  36.3074913  72.2172623  35.8713913  36.8202209  73.9482346
  35.1615448  36.5574989  75.0493851  35.0342216  35.6311226  75.4311142
  34.5332718  37.7784157  75.4554367  33.8653641  37.9902191  76.2772903
  34.9315262  38.7119865  74.5704498  34.6103172  39.6694984  74.5607605
  35.6875153  38.0846825  73.5664215  35.8495979  38.5510864  72.6059036
  34.8694992  35.3445930  71.2297516  34.6668777  36.5662689  71.1788330
  34.3062897  34.5099640  70.3704834  34.4200172  33.5193100  70.5310059
  33.4562531  34.8783684  69.1891861  33.9783325  35.5874443  68.5467377
  33.3118744  33.6179428  68.3224182  33.0247383  32.6907539  68.8183746
  32.3752975  33.7680893  67.1779938  31.3516979  33.9115181  67.5240784
  32.5310478  34.6787949  66.5996704  32.4478455  32.9131241  66.5057755
  34.5031853  33.3477020  67.6351471  35.0788727  34.1154137  67.6635056
  32.1077347  35.4517784  69.5820847  31.6219349  35.0974236  70.6624069
  31.5645256  36.3378372  68.7407608  32.2610435  36.6982803  68.1043320
  30.1175575  36.7063370  68.6173019  29.5510101  35.9276695  69.1279831
  29.9211044  38.1584892  69.1901169  28.8801746  38.4643669  69.2950363
  30.3023281  38.2265167  70.2090073  30.7104282  39.2808075  68.4548187
  31.7194939  38.8897591  68.3245544  30.2588577  39.5080452  67.4891281
  30.8145313  40.6607246  69.3245773  29.8246307  41.1169930  69.3282242
  31.0807037  40.3578529  70.3372650  31.8624363  41.6512413  68.7642288
  31.9422398  42.6216431  69.2541809  32.8620834  41.2536278  68.9394608
  31.6082039  41.9688873  67.3716812  30.6317196  41.8171959  67.1629486
  31.8371201  42.9175415  67.1113663  32.0902214  41.2550011  66.8442993
  29.5225143  36.5471115  67.2171021  30.2723598  36.6841393  66.2042084
  28.1959019  36.3124046  67.0405807  27.1391602  36.1484947  68.0560684
  27.2782211  36.9703293  68.7584610  27.3212872  35.2115021  68.5823517
  25.8620319  36.0093422  67.3167496  25.3919315  36.9821205  67.1725006
  25.1935196  35.3702393  67.8935852  26.2227020  35.4295273  65.9865112
  25.6174698  35.9058495  65.2152100  26.0648251  34.3521156  66.0350952
  27.7207413  35.8346863  65.6999054  28.2536736  34.9380951  65.3833466
  27.9058819  36.8711510  64.4702377  28.2047768  36.4786835  63.3258629
  27.7768021  38.1950798  64.8239059  27.2005386  38.4241104  65.6211319
  27.9099483  39.1804085  63.8003922  27.1041107  38.9703636  63.0971031
  27.6663113  40.5565147  64.3823929  27.6423244  41.2980156  63.5838318
  26.6622028  40.6533127  64.7953110  28.6309242  41.0141411  65.4139023
  28.4777012  40.4425125  66.3292542  29.6515427  40.8929443  65.0509262
  28.4250336  42.4932518  65.7201309  27.5445747  43.1466980  65.1627121
  29.1079388  42.9442520  66.6729965  29.2980766  39.0949593  63.1480713
  29.4557133  39.6643600  62.1035652  30.3880787  38.4580612  63.6922798
  30.2493820  37.9923477  64.5777054  31.7336006  38.3523483  63.1202126
  31.8512154  39.1982117  62.4428673  32.7404213  38.3786392  64.2524872
  32.6109772  37.6182861  65.0226898  33.7564430  38.2698402  63.8730659
  32.7459221  39.7566032  64.8791733  32.5850716  40.8023376  64.1715088
  32.8399277  39.8870926  66.0957336  31.9476223  37.0789833  62.2215576
  33.0227699  36.8953667  61.6571846  30.8849316  36.1931381  62.1799927
  29.9976540  36.4335594  62.5983620  30.9842854  34.9133034  61.3938484
  32.0089836  34.5884628  61.2133713  30.1653004  33.7956352  62.0719566
  29.1253948  34.1129303  62.1495705  30.3479443  32.4601860  61.3591805
  31.4075375  32.2328110  61.2422943  29.9259853  31.7322159  62.0520782
  29.7194290  32.4066734  60.4702454  30.6399651  33.6930962  63.5636024
  31.7229347  33.7995071  63.6264420  30.0851803  34.4235077  64.1525116
  30.5492821  32.6493607  63.8644257  30.3871880  35.1718521  60.0166359
  29.1528187  35.3635139  59.8188171  31.2591648  34.9498940  58.9889603
  32.1771927  34.7007332  59.3284378  31.1768818  34.9399681  57.4974976
  30.6343880  35.8028030  57.1110687  32.5139618  34.6636581  56.7922859
  32.8138123  33.6586494  57.0891914  32.3378143  34.6395187  55.2629242
  31.7402496  33.7661705  55.0016060  32.0160217  35.6468010  54.9984779
  33.2935524  34.5334511  54.7496872  33.5736122  35.7108421  57.2195892
  33.1661987  36.7176132  57.3119049  33.9728203  35.4420052  58.1975784
  34.5227165  35.6673851  56.6853561  30.1648750  33.7898216  57.1173248
  29.2379093  34.1160316  56.4375534  30.3929443  32.5674591  57.6852264
  31.2599659  32.5300941  58.2019272  29.6762466  31.3130054  57.5192337
  28.6417561  31.5244255  57.7898483  29.8032074  30.9013138  56.0344582
  29.2223091  30.0009575  55.8344231  29.4437046  31.6111641  55.2894936
  31.2640533  30.5452766  55.6621361  31.9268398  31.1781979  56.2522430
  31.3249187  29.4887486  55.9231758  31.7592125  30.7140121  54.2166252
  31.5196075  31.7158737  53.4852753  32.6577301  29.8124790  53.7994766
  33.0120316  29.1468925  54.4714661  32.9658623  29.8563251  52.8386269
  30.2302876  30.1982841  58.3498573  31.3762741  30.2662468  58.7999191
  29.4885387  29.0473251  58.5223808  28.5495834  29.0555782  58.1503601
  29.9637680  27.7630672  59.0908775  31.0312023  27.7712803  59.3113708
  29.3034344  27.5709190  60.4814987  28.2496910  27.2921257  60.4802628
  29.7328949  26.7035580  60.9828529  29.5213223  28.7837925  61.3855667
  30.5933533  28.9796028  61.3630829  28.9395485  29.6459579  61.0595131
  29.1491451  28.5655422  63.1694489  27.3694458  28.0692234  63.3625183
  27.2413235  27.6996689  64.3799210  26.7098541  28.9047279  63.1280632
  27.1113873  27.1928024  62.7680473  29.5951328  26.5371799  58.1959190
  28.4096851  26.1845093  58.0774002  30.5848408  26.0001831  57.5155640
  31.4993534  26.4179440  57.6116867  30.4812927  24.6639328  56.9326973
  29.4712582  24.4593830  56.5775948  31.4735298  24.7073383  55.7654305
  31.1530876  25.4948769  55.0833740  32.4599724  24.9937782  56.1301003
  31.6378460  23.3352909  54.9633942  32.0942955  22.5684032  55.5892029
  30.3783150  23.0394497  54.2258263  30.5537033  22.3421593  53.4066010
  29.7914944  22.5816784  55.0221863  29.8142452  23.9235020  53.9285469
  32.6802177  23.5928478  53.8890190  32.8528290  22.7489128  53.2211266
  32.3789864  24.4973583  53.3606148  33.6182594  23.6980801  54.4341011
  30.7984295  23.5766811  57.8763580  31.8812027  23.4542332  58.4260178
  29.7772980  22.7309399  58.2672081  28.8657436  22.7867012  57.8358612
  29.9985771  21.4553394  58.9224854  30.5745220  21.5444431  59.8435974
  28.6191978  20.9634094  59.4576988  27.7557240  21.1740932  58.8267250
  28.5319424  19.8773823  59.4897842  28.2798214  21.3254147  60.9075661
  29.0331230  21.0820599  61.6568413  27.9666691  22.8249378  61.1299896
  27.2148933  23.1883736  60.4293823  27.6613503  22.9457684  62.1693535
  28.9903488  23.1635246  60.9701767  27.0792923  20.3882599  61.2940636
  26.3089256  20.5458107  60.5392036  27.5260639  19.3945713  61.3269424
  26.7504005  20.7130280  62.2812080  30.5344105  20.4389439  57.9565125
  30.3208199  20.5384731  56.7604752  31.0376358  19.3114510  58.5020447
  31.1902580  19.3297615  59.5002785  31.2157822  18.0798569  57.7381248
  30.4154911  18.0235882  57.0002441  32.5151443  18.2506428  57.0524139
  32.4640350  19.0755482  56.3417702  33.2992744  18.4500313  57.7828140
  32.8605499  17.0937786  56.3431969  33.8134079  17.1412563  56.2363777
  31.0272350  16.8303757  58.6232986  31.4341202  16.7843304  59.8293839
  30.4585896  15.7714968  58.1118774  30.2488937  15.7706156  57.1238861
  30.3151455  14.5389442  58.8485413  31.0408974  14.5982246  59.6596336
  28.9266949  14.3328447  59.4471245  28.0872021  14.4812450  58.7679062
  28.7853870  13.2787313  59.6858215  28.8385010  14.9945812  60.3087654
  30.6802998  13.2807140  58.0156326  30.4608479  13.2480764  56.7679749
  31.2190304  12.2186365  58.6076508  31.3993473  12.2892609  59.5989113
  31.4841328  10.8543348  58.0906525  32.2861328  10.9529209  57.3590927
  32.0179863  10.0135860  59.2089882  32.1078224   8.9632645  58.9317589
  33.3724976  10.5187101  59.5659103  33.7773056   9.8074274  60.2858467
  34.0674629  10.5949364  58.7296638  33.2944527  11.4665422  60.0984802
  31.2986317  10.0706406  60.3773308  30.7216835   9.3067360  60.3053627
  30.3378639  10.1637039  57.4064064  29.1879921  10.3410072  57.7940636
  30.6200314   9.3327169  56.3781013  31.9413052   9.1025352  55.7904396
  32.4514427   8.2982759  56.3205605  32.5328598  10.0099897  55.6692314
  31.6852493   8.5880461  54.4101944  32.4009933   7.8417125  54.0655251
  31.6245022   9.4483290  53.7436218  30.4289265   7.7688661  54.6473579
  30.7026577   6.8436675  55.1544876  29.8709888   7.5193887  53.7448235
  29.6000595   8.6291380  55.5778885  29.0666828   9.4079037  55.0327873
  28.6612530   7.6295948  56.3045235  27.8304043   6.9793062  55.6803017
  28.7029953   7.5418291  57.5905380  29.2791786   8.1903296  58.1077995
  27.9743576   6.4994907  58.4035339  27.4412174   5.8192153  57.7393837
  28.9666653   5.7535095  59.2769623  28.4392681   5.2225747  60.0694656
  29.5152874   4.9969263  58.7159843  29.9744911   6.6122780  60.0295334
  30.7277699   6.0930429  60.8579941  29.8718586   7.8027802  59.8691635
  26.9858303   7.0675693  59.4020462  26.0903034   6.3868151  59.8943138
  27.1252899   8.3149385  59.7314491  27.8982964   8.8324184  59.3380356
  26.0629196   9.1224937  60.4297676  25.5905571   8.5561419  61.2324028
  26.6777477  10.4161949  61.2148476  26.9733028  11.1202269  60.4369736
  25.8867836  10.9814596  61.7077484  27.8077049  10.1021585  62.1270828
  28.4020176   9.4022255  61.5397263  28.6673298  11.3224401  62.4139748
  27.9957180  12.1472778  62.6520538  29.3561707  11.2013350  63.2499962
  29.2655258  11.6169863  61.5517082  27.3081398   9.3454847  63.3594627
  27.0372429  10.0575342  64.1390152  26.3692303   8.8228273  63.1767693
  28.0164375   8.5737982  63.6609840  24.9400578   9.5655451  59.4781609
  25.1725044  10.2685289  58.4786797  23.6851044   9.2502251  59.8561554
  23.5783901   8.7532358  60.7289162  22.3856525   9.4412975  59.0650139
  22.6636448  10.2397795  58.3770866  22.0587177   8.2701502  58.1564445
  21.6583595   7.5312586  58.8506012  21.3143978   8.4853792  57.3897896
  23.1542206   7.6508508  57.3904190  24.0273647   8.2072659  56.4772835
  23.8968067   9.1719208  56.2080307  24.8234673   7.2138233  55.9671783
  25.4178162   7.2024059  55.0655022  24.4839573   6.1250362  56.6544800
  24.7902966   5.1918216  56.4191818  23.4468384   6.3475051  57.5356941
  22.9880199   5.5546656  58.1077881  21.1989346   9.9206944  59.8365631
  20.2977867  10.3264303  59.1228294  21.2318306   9.9503984  61.1648483
  22.0809155   9.6198120  61.6005859  20.0139885  10.1964064  61.9289932
  19.3441257   9.4324417  61.5343552  20.3143864   9.8806648  63.4365120
  21.1731319  10.4854918  63.7277832  19.5463486  10.2746725  64.1020737
  20.5114918   8.8087301  63.4509048  19.4098606  11.5717049  61.8598633
  18.1326599  11.7136364  62.0656662  20.2542038  12.6216421  61.6647949
  21.2046299  12.3264189  61.4926529  19.9335232  13.9560251  61.4438400
  19.0507622  14.0041142  60.8062477  19.5812569  14.5754976  62.7937317
  18.7642212  14.0127087  63.2451973  20.7612133  14.6143780  63.7881088
  20.4985695  15.2116947  64.6612244  20.9763603  13.6056709  64.1407013
  21.6454487  15.0380392  63.3119316  19.0405979  15.9880466  62.8539925
  18.1471367  16.1526279  62.2517242  18.8343239  16.4035072  63.8403740
  19.7036228  16.7296200  62.4083824  21.0596504  14.6830864  60.7011108
  22.2320805  14.2311516  60.5969238  20.7748051  15.8035460  60.1501579
  19.8511200  16.1390934  60.3832169  21.8480434  16.8134308  59.9904976
  22.6708336  16.3572826  59.4400024  21.2472725  17.9094620  59.0845604
  20.2431049  18.1208038  59.4520912  21.7996922  18.8490753  59.0767326
  21.2555637  17.5191441  57.5711098  20.0257816  17.2788773  56.9535980
  19.1069145  17.2225552  57.5183182  19.9728947  17.0454922  55.5046616
  19.0238190  16.7920513  55.0558662  21.1951923  16.9212723  54.8203659
  21.1743565  16.7841263  53.7493095  22.4150448  17.1722565  55.4486694
  23.3465099  17.3295288  54.9251823  22.4721851  17.4165154  56.9020042
  23.3482113  17.7342453  57.4479218  22.3774395  17.4725056  61.2968140
  21.5674419  18.1709290  61.8942337  23.6425552  17.3044987  61.7853012
  24.6190300  16.2749577  61.4100189  24.6983814  16.1614323  60.3288574
  24.3840294  15.3273964  61.8947945  25.9140320  16.8124905  61.7875175
  26.3561363  17.4911690  61.0581055  26.5094700  15.9366722  62.0453911
  25.6146278  17.5675602  63.1293030  26.3598156  18.3602753  63.1956062
  25.6492443  16.8735638  63.9691124  24.1609020  18.0586014  62.9689217
  23.5634537  17.7327671  63.8203850  24.0315304  19.5935726  62.8882294
  24.0036106  20.1799450  63.9788208  23.9286118  20.3033886  61.8092880
  23.9505577  19.8487015  60.9076920  23.7557659  21.7954082  61.8180199
  24.6429043  22.2279053  62.2806587  23.6792641  22.2164745  60.2924156
  22.8119526  21.7045689  59.8754845  23.6066170  23.3040485  60.2895126
  24.6491718  22.0499363  59.8237572  22.5874653  22.3408890  62.5894394
  22.6767063  23.4431591  63.2044907  21.4780540  21.5847778  62.5651817
  21.5665112  20.8011951  61.9340935  20.3130932  21.9370480  63.4631233
  19.8081741  22.8516617  63.1522560  19.2586136  20.8192444  63.3538399
  19.1119995  20.7350140  62.2770348  19.6941051  19.8547611  63.6150322
  17.9210358  21.0585995  64.1428299  18.1609592  21.3667297  65.1604767
  17.4801731  21.9380436  63.6734467  16.8400478  19.9288025  64.0586929
  17.1461658  19.0934811  64.6884766  15.8687782  20.3166027  64.3658524
  16.6100674  19.3840580  62.6258888  17.5344944  18.9808617  62.2124062
  15.9080009  18.5579948  62.7391243  16.1418934  20.5198021  61.7237473
  16.2274399  20.2928333  60.7433052  15.1412210  20.5999718  61.8348122
  16.6934891  21.3652439  61.6910400  20.6179504  22.2661800  64.9670258
  19.9443588  23.1680775  65.4674911  21.5969582  21.6783581  65.5803909
  22.1424065  21.0225964  65.0394897  22.1546993  22.0153217  66.8530884
  21.4902439  21.5942688  67.6076202  23.5398712  21.3157711  66.9641724
  24.0651169  21.4510384  67.9096527  23.3871822  20.2395802  66.8829498
  24.2152786  21.5870094  66.1527786  22.3746052  23.5534916  67.1358032
  22.2441769  24.0596123  68.2742233  22.7214146  24.2691231  66.0767899
  22.8677502  23.8335800  65.1773529  22.9361458  25.7582130  66.1464615
  23.6591339  25.8997517  66.9498062  23.5536461  26.3375835  64.8512115
  24.3051929  25.6121845  64.5396423  22.5091896  26.6368389  63.6967812
  21.7064991  25.9000835  63.7280464  22.0317974  27.6120033  63.7929802
  23.0645561  26.5476646  62.7631226  24.2694340  27.7096424  65.0016403
  23.5658188  28.5198288  65.1929932  24.9347992  27.5870800  65.8562546
  24.7940006  28.0340042  64.1029053  21.6739140  26.4822636  66.5220261
  21.7799034  27.6512833  66.8915939  20.4757385  25.9298916  66.5696182
  20.3679028  24.9844360  66.2311096  19.2688465  26.5652866  67.0877304
  19.2191849  27.4550972  66.4601288  18.0106335  25.6846275  66.7624283
  17.0770912  26.2416821  66.8417511  18.0617886  25.4431248  65.7007523
  17.9555187  24.4747200  67.6860504  18.9670277  24.1286373  67.8986130
  17.6185207  24.8056965  68.6683960  16.9493542  23.5018291  67.3202286
  15.9714613  23.9708748  67.2114868  17.2325020  23.0079384  66.3907166
  16.8779812  22.4814167  68.3479462  17.2030544  22.8398285  69.2344894
  16.2787666  21.2715607  68.3268661  15.8074436  20.6506443  67.2533340
  15.8446102  21.1839294  66.3964005  15.1603146  19.8847694  67.3748169
  16.2802677  20.5410843  69.3770294  15.8771877  19.6170902  69.3148804
  16.6360760  20.8276615  70.2777863  19.3460426  26.9225140  68.5958405
  18.6278553  27.8383846  68.9755630  20.2569542  26.4083290  69.3504028
  20.7270241  25.5788422  69.0171051  20.3526554  26.6433659  70.7720184
  19.3251648  26.6444416  71.1358414  21.1262589  25.4362297  71.5180283
  22.1547222  25.4750538  71.1590652  21.1546497  25.6705475  72.5821686
  20.4562626  24.0640373  71.4022598  20.6430378  23.7070084  70.3894653
  20.8331013  23.4676247  72.2331543  18.9199028  24.0503597  71.4765625
  18.4613628  24.7359982  72.4379120  18.2674809  23.3756371  70.6456528
  20.9938183  28.0118828  71.1105347  20.7332039  28.6586590  72.0620422
  21.8487339  28.5941620  70.2206497  21.9853001  28.1161594  69.3414688
  22.8468285  29.6500912  70.3613892  23.1388569  29.7460976  71.4071503
  24.1456089  29.2851048  69.6576767  23.9370804  29.1881332  68.5922089
  24.7955418  30.1465874  69.8111038  24.8346100  28.0424042  70.1550217
  24.2939110  27.1451473  69.8538971  26.2018929  27.8665600  69.5081558
  26.9017315  28.5734100  69.9539108  26.6818352  26.9287262  69.7878418
  26.1938076  28.0554314  68.4346695  25.0298233  27.9444981  71.6251678
  25.5236816  28.8099232  72.0670319  24.1140022  27.8109016  72.2009506
  25.6582890  27.0847702  71.8575363  22.2802658  31.0247784  69.9452362
  21.7875557  31.2589512  68.8993378  22.3023739  31.9749794  70.8250580
  22.7553978  31.6959362  71.6835480  21.5833168  33.2853394  70.8783188
  20.5617714  33.0088997  70.6173096  21.5531654  33.8180199  72.2757950
  21.1671581  33.1287346  73.0267792  22.6073208  33.8334846  72.5525894
  20.9479599  35.0240860  72.5262451  21.0984039  35.2373695  73.4500809
  22.2407265  34.2359009  69.8417053  23.4891968  34.5453377  69.9613037
  21.5045090  34.8403893  68.9297791  20.5061874  34.7082367  69.0071793
  21.8861980  35.8344765  68.0003738  21.0112038  36.4577103  67.8158112
  22.6531506  36.5063858  68.3856277  22.3559933  35.2481232  66.6303177
  22.4028816  35.8949852  65.6635971  22.8369846  34.0287628  66.6663513
  22.6776295  33.4782219  67.4979782  23.3391075  33.2760124  65.4107361
  24.1608982  33.8491364  64.9814453  23.8588829  31.9129639  65.8861389
  23.0027084  31.4663486  66.3917084  24.1134052  31.3355446  64.9973755
  25.0666695  31.9764271  66.7720108  25.1218338  32.3626404  68.0576782
  24.2327232  32.6739235  68.5858688  26.3664455  32.2604027  68.6223602
  26.5937119  32.5652924  69.5580368  27.2578239  32.1671371  67.5935364
  28.6311264  32.3782883  67.4971542  29.2585278  32.8431473  68.2432556
  29.2955399  32.0085220  66.3216705  30.3696976  32.1205063  66.3149796
  28.6521988  31.4070759  65.2570801  29.2067776  30.9535122  64.4489212
  27.2272568  31.3464642  65.2731934  26.7311878  30.8232307  64.4691162
  26.4933281  31.7356415  66.4397049  22.2948265  32.9693680  64.2933273
  22.6743622  32.5616417  63.1972275  21.0467930  33.3018570  64.4774933
  20.6913834  33.6069145  65.3723221  20.0032406  32.8919334  63.5132942
  20.0153027  31.8020611  63.5247040  18.7244987  33.3633804  64.0515900
  18.6990433  34.4511604  64.1162872  18.0041199  33.0788460  63.2846451
  18.2341518  32.7318039  65.3008423  17.1666203  32.6526451  65.0953903
  18.4911480  31.6820621  65.4426041  18.4994545  33.4325562  66.6101151
  19.2976151  34.3786049  66.7052612  17.9007282  33.0774879  67.6664276
  17.4542847  32.1717453  67.6869278  18.2046146  33.5705109  68.4938812
  20.1564960  33.4817314  62.0726204  19.3995762  32.9882736  61.2530708
  21.0387402  34.4710770  61.8253098  21.6899853  34.6488190  62.5765648
  21.3951855  35.1424141  60.5462112  20.5390415  34.8807755  59.9243889
  21.5500488  36.6696091  60.6936722  22.5087471  36.9332733  61.1403046
  21.4621487  37.1463356  59.7173996  20.4546242  37.3871841  61.5716743
  19.1003952  37.2401390  61.2465363  18.8629246  36.6784744  60.3551636
  18.0958786  37.7538261  62.0494690  17.0729465  37.4716301  61.8485374
  18.4947414  38.4542542  63.2297058  17.5958652  38.9277306  64.1370239
  16.8198605  38.3664665  64.0706787  19.8089027  38.6185493  63.4981346
  20.0908413  39.2992325  64.2878036  20.8064613  38.0909195  62.7239494
  21.8603306  38.2469940  62.9011841  22.7017193  34.5675964  59.9081306
  22.8236809  34.6922379  58.6428223  23.5630913  33.8793869  60.6156502
  23.4432087  33.8559189  61.6182365  24.6993065  33.2176666  60.0220261
  25.2550201  34.0613365  59.6127548  25.5293484  32.5585747  61.1836472
  24.8777676  31.7945251  61.6076355  26.7700348  31.8592281  60.7067223
  27.2121201  31.2944012  61.5274734  26.5836945  31.1953564  59.8625336
  27.3894367  32.6753845  60.3348007  25.9479084  33.4266281  62.3186874
  25.0720806  33.7529106  62.8795547  26.6100407  32.8802567  62.9903717
  26.4227047  34.3233109  61.9204063  24.2585278  32.1292534  59.0044441
  23.4482880  31.2858849  59.3535080  24.8842278  32.0903168  57.7909813
  26.0081787  32.9143028  57.4002457  26.8578529  32.4043312  57.8542061
  25.9944668  33.9557495  57.7216530  26.1167450  32.7988281  55.9082794
  27.1690636  32.8511658  55.6290207  25.4753017  33.6067467  55.5562668
  25.4744263  31.4744854  55.5929489  26.2322178  30.7478142  55.3000336
  24.7552490  31.6125908  54.7855988  24.7847881  30.9724884  56.8804245
  23.7278652  30.8162346  56.6645432  25.4918442  29.6571331  57.3398705
  26.6406574  29.6894703  57.7500153  24.7783432  28.5475025  57.1787109
  23.8159561  28.5760212  56.8735886  25.2731056  27.2412529  57.7260170
  26.3578625  27.1870918  57.8180428  24.7315922  26.8142357  59.1106796
  23.6727352  26.5581017  59.0744019  25.4153233  25.5186729  59.7371826
  26.4623451  25.6654835  60.0023003  24.9560032  25.2256813  60.6812592
  25.2407360  24.6359730  59.1219864  24.8165359  27.8973026  60.2352715
  25.8549213  28.1815300  60.4057884  24.3475380  28.7966576  59.8361397
  24.4408875  27.4760590  61.1677628  24.9088192  26.0861530  56.7337112
  23.8766575  26.1963997  56.0635567  25.7881546  25.1014767  56.5431442
  26.4983063  24.9369316  57.2422218  25.5494442  23.8832893  55.6401291
  24.6169758  23.3951149  55.9234810  25.4812584  24.4641743  54.2297516
  24.6699257  25.1776199  54.0854149  26.7188988  25.1031380  53.7108345
  26.4421844  25.5621433  52.7617035  26.8619652  25.8851948  54.4565048
  27.5899982  24.4588814  53.5915947  25.3066711  23.3878460  53.3035851
  24.3641720  23.2347107  53.4028091  26.6037807  22.7602787  55.8809738
  27.4069557  23.0001469  56.7622414  26.5484200  21.6170883  55.2444382
  25.8519535  21.5739117  54.5142555  27.3722076  20.4497681  55.6455460
  28.2217636  20.7947750  56.2348862  26.5659027  19.5839577  56.6357422
  26.3288746  20.2854595  57.4356232  25.6909084  19.2207661  56.0966911
  27.5514565  18.2782269  57.2905731  27.4405060  17.4183979  56.2740669
  27.7288017  19.6363983  54.4809227  26.8609238  19.0457706  53.9055023
  29.0335789  19.4008846  54.2241745  29.7400417  19.8599815  54.7811699
  29.4913235  18.3188591  53.3176193  28.7457504  18.0976639  52.5538864
  30.7660751  18.8262634  52.6443748  31.0190239  18.2374649  51.7626534
  30.5178795  19.8072395  52.2391739  31.9858265  18.9138279  53.5027809
  31.7501030  19.4642887  54.4135666  32.4534416  17.9576588  53.7376785
  33.3134575  19.8584061  52.6814117  34.5126915  19.7039242  53.9947128
  34.6728935  18.6271744  54.0498772  35.4028397  20.2777557  53.7369347
  33.9952354  19.9852085  54.9118958  29.6091938  16.9434013  54.0447693
  29.3267250  16.7437229  55.2123146  30.1900311  16.0282822  53.2087746
  30.3518810  16.3202820  52.2555466  30.6425457  14.6853533  53.6328468
  30.3182220  14.4404631  54.6442528  29.9682693  13.7595139  52.5864372
  28.9306469  13.9101686  52.2885323  30.6166515  13.8824987  51.7189293
  30.1504021  12.2688599  52.9044533  30.3309689  11.7110128  51.9855957
  31.0503216  12.1732445  53.5119934  29.0015984  11.6804447  53.6757317
  28.1766186  11.0253763  53.0705109  28.7794247  11.9301300  54.9300041
  29.4592667  12.3744040  55.5304527  27.9645348  11.5241852  55.3673363
  32.2142220  14.7390833  53.7121277  32.8266106  15.1154327  52.7264709
  32.8041115  14.3540525  54.8567543  32.2441711  13.9394732  55.5879784
  34.3107872  14.2114277  54.7582321  34.5587540  15.1499386  54.2624397
  34.9763412  14.1946020  56.0886688  34.2860641  14.4398699  56.8958015
  35.2285233  13.1489305  56.2649536  36.3111343  14.8998556  56.1470833
  36.9298744  14.4502335  56.9236794  36.8273888  14.6348543  55.2243958
  36.3680305  16.4420071  56.2240410  37.4947281  16.9392872  56.4542389
  35.3498077  17.0538330  56.2075233  34.5731621  12.9781933  53.8514557
  33.7800026  12.0297995  53.7402420  35.7951088  13.0073786  53.2506790
  36.4227524  13.7902298  53.3660469  36.2028542  11.9098263  52.3576431
  35.4934006  11.9042301  51.5301514  37.6153297  12.3063326  51.7637177
  37.6653442  13.3843012  51.6101456  38.4683838  12.1796732  52.4303169
  37.9447632  11.4072428  50.6052856  37.8795090  10.3831835  50.9729118
  37.1397552  11.6728001  49.9200592  39.5019226  11.7658367  49.7385101
  39.7425041  10.0987329  49.0568848  40.5552902   9.4929705  49.4575539
  38.8884468   9.5456953  49.4478302  39.6676445  10.1869459  47.9730415
  36.2263374  10.5160694  53.0497131  36.7297249  10.3070068  54.1578293
  35.7406807   9.4718485  52.3269424  35.2996712   9.8436089  51.4978409
  35.8771896   8.0366135  52.5872498  35.6229668   7.8237891  53.6256027
  34.9243279   7.2262273  51.7326736  33.9270630   7.5647535  52.0136757
  35.1021957   7.5011258  50.6930122  34.9814911   5.7522678  51.9135933
  34.7636070   5.0328469  50.9200974  35.3389549   5.2903085  53.0174751
  37.3145561   7.6020756  52.4827042  37.9259071   7.6287403  51.3820152
  37.9128876   7.3025289  53.6114006  37.4465027   7.4759316  54.4903297
  39.3317566   6.8314524  53.7222710  39.6298103   6.5488849  52.7126083
  40.2345963   7.9085360  54.3770676  39.7663460   8.3091993  55.2761307
  41.6119270   7.4635110  54.9117355  42.0980034   8.2688961  55.4623604
  41.5057144   6.6570892  55.6373405  42.3059120   7.0945883  54.1565018
  40.3832664   9.1557646  53.3928299  40.3167648   8.7897263  52.3682861
  39.4367828   9.6601362  53.5874596  41.2866936   9.6807852  53.7031097
  39.3313103   5.5629930  54.4730186  38.5736923   5.3435550  55.4049568
  40.2077942   4.6774421  54.0755310  40.8346291   4.9885383  53.3472481
  40.5060387   3.3668175  54.8418007  39.5721016   2.8185983  54.9655685
  41.5525360   2.4993672  54.1549339  42.4661942   3.0932114  54.1288109
  41.8573112   1.2162538  54.8514519  40.9435081   0.6513073  55.0355759
  42.5102615   0.5775091  54.2566719  42.4728584   1.4222156  55.7271042
  41.1212082   2.2491679  52.9005318  41.9842377   1.9959338  52.5648956
  41.0979843   3.6505308  56.1815300  42.1355896   4.3007259  56.2656326
  40.4317703   3.1878068  57.2829018  39.6499214   2.5850739  57.0695381
  40.7277336   3.5735366  58.7070236  40.1398201   2.9005077  59.3311195
  41.8127365   3.5801289  58.8110695  40.3487549   5.0308104  59.0152931
  40.7747231   5.5614285  60.0380974  39.5120316   5.6857371  58.1710587
  39.1435738   5.2197137  57.3542595  38.9252853   7.0247903  58.6214790
  39.7890396   7.6688948  58.7862968  38.2674789   7.5689802  57.9437981
  38.1490402   6.8864532  59.9523430  37.3257713   6.0176373  60.1483650
  38.4250336   7.8738852  60.8456955  39.0165443   8.6488771  60.5818672
  37.7844925   7.8845868  62.1655159  38.0863953   6.9803085  62.6939430
  38.3780251   9.0530005  62.9355545  39.3709946   8.7437916  63.2618942
  38.4157410   9.9476061  62.3139725  37.5342255   9.2481546  64.2428055
  36.4676361   9.4196882  64.0977020  37.7748032   8.1195087  65.1664429
  38.8221245   7.9185348  65.3918839  37.0769501   8.1729708  66.0020523
  37.5176201   7.2057796  64.6306686  38.1487122  10.5514793  64.8434601
  37.8936577  10.9007187  65.8439941  39.2375679  10.5015821  64.8407516
  37.7233963  11.3021679  64.1773682  36.2403069   7.8608527  62.1297112
  35.6222305   8.8618202  61.7501335  35.6007080   6.6786389  62.3051414
  36.2038689   5.9173365  62.5821228  34.1210976   6.4811521  62.2453651
  33.7113876   6.7760758  61.2793121  33.7479515   4.9842420  62.4095078
  34.1266747   4.6500888  63.3754311  32.6659203   4.8632169  62.3579369
  34.3870735   4.1596394  61.2585144  33.8675308   4.4275098  60.3385010
  35.4531250   4.3700404  61.1726723  34.0971146   2.6677568  61.4680252
  34.4985504   2.3097725  62.4160767  33.0266418   2.4760432  61.3943367
  34.7173920   1.8347850  60.2772293  34.4819069   2.3122501  59.3260841
  35.7967033   1.6834340  60.2605438  34.2226067   0.4001296  60.2519073
  34.9080811  -0.0256935  59.6445351  34.1740990   0.0397907  61.1941948
  33.3022728   0.3884492  59.8360329  33.3705597   7.3711486  63.2473450
  33.9629745   7.7854409  64.2560043  32.1120071   7.5769105  62.9315910
  31.7267780   7.0537071  62.1583138  31.1971836   8.2989464  63.7566071
  30.3563576   8.4933929  63.0907974  30.6292019   7.5194907  64.9579468
  31.4566708   7.3973875  65.6568604  29.8585205   8.1699839  65.3714828
  29.9913235   6.2063122  64.4564819  29.3147316   6.4217858  63.6295052
  30.7378864   5.4667687  64.1669693  29.2660294   5.5788975  65.7153625
  30.0053177   5.3644915  66.4871063  28.4299202   6.1704106  66.0883713
  28.4005375   4.3477159  65.4815216  27.9402237   4.0467143  66.4225922
  27.6318684   4.5478725  64.7350769  29.1738300   3.1802106  65.0347900
  29.4859390   3.3553932  64.0903320  29.9815731   3.0128260  65.6175766
  28.6293774   2.3295522  65.0420074  31.7071247   9.7056799  64.1320114
  31.6403408  10.0095272  65.3061371  32.2691803  10.4670382  63.1868858
  32.2235565  10.1616192  62.2252502  32.9144135  11.7802620  63.4682884
  32.7930565  11.8673820  64.5480042  34.3993607  11.5951967  63.0477219
  34.7273293  10.9543104  63.8661346  34.6491661  11.0791073  62.1207123
  35.3377228  13.0536747  63.0814400  35.1069794  13.5662470  64.2934265
  32.1812096  12.9807444  62.8203964  31.6852970  12.8889065  61.6891327
  32.1019516  14.0262661  63.6299019  32.6778755  13.9898844  64.4588089
  31.5397587  15.3560762  63.2813873  30.9875317  15.4384813  62.3452454
  30.5071163  15.6868896  64.3661804  31.0474052  15.4670115  65.2869644
  30.0143566  17.0996170  64.4713669  29.8345280  17.5872173  63.5132370
  29.1594601  17.1981640  65.1403503  30.8067493  17.6470261  64.9818115
  29.3947353  14.5894375  64.1973267  29.0724239  14.4387007  63.1670418
  29.8520756  13.6224861  64.4069595  28.2022457  14.7139750  65.0751190
  27.5966854  15.5090227  64.6400299  27.6571960  13.7796106  64.9410172
  28.4462433  14.7637167  66.1362915  32.7194023  16.3681984  63.1996422
  33.5863571  16.4155807  64.1205063  32.6450729  17.1518154  62.1710052
  31.8501148  17.0303764  61.5599442  33.6816597  18.1734219  61.8559494
  34.3021431  18.3410683  62.7362900  34.5278854  17.6572647  60.6390533
  33.9044228  17.7004128  59.7460060  35.2916069  18.4016953  60.4139977
  35.3805580  16.3443375  60.8465004  36.1114197  16.4591846  61.6469727
  34.6951027  15.5301809  61.0818787  36.0863113  16.0680275  59.5255585
  35.4591179  15.7304306  58.7004814  36.6462898  16.9818306  59.3268356
  37.1678696  15.1020136  59.7441292  38.0288010  15.5236073  60.0621796
  37.1237335  13.8114614  59.8725967  36.0386848  13.1111231  59.6676292
  35.2442245  13.6136961  59.2983665  36.0794258  12.1024370  59.6361237
  38.1473923  13.0278339  60.0928879  39.0531502  13.4405499  60.2642555
  38.0856476  12.0295792  60.2335129  33.0783234  19.5301189  61.6035652
  31.9189205  19.5593128  61.2188110  33.7577171  20.6550865  61.7930183
  34.7199326  20.6070576  62.0962257  33.2570381  22.0173626  61.4633141
  32.5857124  21.8877773  60.6144180  32.4092331  22.6051693  62.5835266
  31.7262115  21.8746738  63.0170822  33.3270760  22.9248962  63.7414131
  32.7655487  23.1859741  64.6384277  33.8858948  22.0281429  64.0091019
  33.9399605  23.8017540  63.5326157  31.6091061  23.8217163  62.1954002
  31.5046082  23.8151340  61.1104469  30.6636543  23.8949394  62.7328568
  32.1249275  24.7727184  62.3281555  34.4088745  22.9452896  61.0376472
  35.5831566  22.7718754  61.3768768  34.1356125  23.9279804  60.1597633
  33.1613426  23.9275913  59.8934898  34.9800034  24.7435665  59.2703667
  35.9276237  24.9848175  59.7519417  35.1415558  24.0342464  57.8835678
  35.6406746  23.0798264  58.0510864  34.1966438  23.7430210  57.4248428
  36.0164871  24.7490616  56.8666039  35.9429359  24.2014561  55.9270210
  35.4306679  25.6285210  56.5992622  37.7386971  25.0226879  57.2907753
  37.7324982  26.6608391  58.1896057  37.4026756  27.4635963  57.5301285
  37.0246162  26.6286221  59.0178337  38.7209854  26.9385872  58.5554657
  34.3062134  26.1124687  59.2213402  33.7374687  26.4914875  58.2013321
  34.3315201  26.8144302  60.3067551  34.7856903  26.4677010  61.1395874
  33.9497299  28.2238350  60.4614220  33.0126495  28.3335266  59.9155807
  33.7683144  28.4770393  61.9783058  32.7968445  28.0784225  62.2706337
  34.6506462  28.1100025  62.5025864  33.7108383  29.9041920  62.5141754
  34.6321144  30.4852161  62.4721794  33.0367851  30.5085640  61.9071426
  32.9801407  30.1124401  64.1611786  34.3515358  30.8724346  65.0206680
  34.0467758  31.1405811  66.0322571  35.2474709  30.2587547  65.1144333
  34.6318817  31.8363686  64.5960083  34.9413185  29.1872711  59.9258690
  36.1321831  29.0683231  60.0871468  34.4993858  30.2917099  59.4255638
  33.4934158  30.3210564  59.3403282  35.3113823  31.4862881  59.0287895
  36.3594513  31.3545151  59.2976494  35.2934723  31.6664143  57.5132065
  34.2671471  31.9118671  57.2402534  36.1584740  32.8390694  57.1042213
  36.2496681  32.8834190  56.0189438  35.7055206  33.7729111  57.4372025
  37.1870193  32.7752724  57.4593582  35.6689453  30.5204048  56.8235092
  36.6188087  30.3823853  56.8409576  34.7973633  32.6982307  59.7339096
  33.6585121  32.9685287  59.6668091  35.6773529  33.4686470  60.3773689
  36.6329002  33.1415138  60.3745346  35.3653488  34.6190720  61.2457275
  34.4357872  34.9992180  60.8220482  35.2186699  34.2199440  62.7009697
  34.6264801  33.3049545  62.7154541  36.6206360  33.8262711  63.2980347
  36.9974098  34.8234024  63.5258064  36.6537552  33.3580475  64.2817841
  37.2126465  33.2821159  62.5621567  34.4653473  35.0244751  63.7775421
  34.3366776  34.4333916  64.6842728  35.0532990  35.9136391  64.0051498
  33.4854927  35.2886620  63.3798065  36.4075127  35.7328148  60.9838791
  37.5887108  35.3765373  60.7224197  35.9814949  36.9514046  61.2573051
  35.0077133  37.1049614  61.4770012  36.9280472  38.0778084  61.4309731
  37.7703934  37.8808289  60.7678337  36.3453102  39.4563255  61.0456657
  37.1301346  40.2122650  61.0722313  36.0461617  39.4435425  59.9975967
  35.1251259  39.8849945  61.7277603  34.3324280  39.1760063  61.4888725
  35.2634926  39.8215981  62.8070793  34.7910042  41.3549309  61.3965187
  35.1857109  41.9076462  60.3539124  34.0185394  42.0092621  62.1901436
  33.5733757  41.5636673  62.9796867  33.6273613  42.9166870  61.9811821
  37.5738640  38.0574417  62.8491974  36.8863640  37.9021606  63.8541260
  38.9581108  38.1356010  62.9364662  39.5428123  38.2830429  62.1262283
  39.6365471  38.0742683  64.1764908  39.1583252  38.7926865  64.8422852
  39.5732841  36.6451721  64.8104858  38.5204697  36.5611343  65.0799866
  39.9794121  35.4675560  63.9049110  39.6223373  34.5179405  64.3034363
  39.5004120  35.4484367  62.9259872  41.0485268  35.2646790  63.9676247
  40.3497353  36.4953461  65.9802017  39.8122826  35.9351654  66.5449524
  41.1177063  38.5141716  64.1202393  41.8409042  38.1054726  63.2496796
  41.4893417  39.5424614  64.8553467  40.8753204  39.7493095  65.6301346
  42.8628044  40.0789261  64.8732986  43.2084541  40.1804352  63.8445511
  42.8567352  41.5529060  65.3972855  43.9011993  41.8437309  65.2849426
  42.2033195  42.1461220  64.7575684  42.3028984  41.7472191  66.7945786
  41.5441895  40.9375534  67.2145386  42.6060524  42.7984848  67.4320297
  43.9300575  39.1498642  65.5158081  45.1080284  39.5168877  65.5672684
  43.5513191  37.9321671  65.9872742  42.6137428  37.6315079  65.7621994
  44.5015411  36.8981361  66.5007401  45.2178574  37.4995804  67.0604324
  43.8196220  35.8796616  67.4101028  42.9847908  35.4445724  66.8606796
  44.7761688  34.8854637  68.0746994  45.4382019  35.4118690  68.7622299
  44.3450699  34.0592422  68.6400452  45.3608170  34.5088272  67.2353897
  43.1455574  36.5682526  68.6236115  42.6218185  35.7464752  69.1119614
  43.8625641  36.9654045  69.3421326  42.4268265  37.3275032  68.3152924
  45.3955345  36.1963730  65.4341736  45.0585899  35.9186745  64.2515106
  46.7005997  36.0835495  65.7483368  47.4299469  36.7351303  66.8026428
  47.4466476  36.2515297  67.7793503  47.1307602  37.7768631  66.9183197
  48.8710556  36.8151207  66.2548981  49.6070099  36.8486023  67.0582352
  48.9479942  37.7220116  65.6551285  49.1103363  35.6296310  65.4030991
  49.3533936  34.7954521  66.0612564  49.8699684  35.7840691  64.6368027
  47.6728821  35.4740219  64.8276215  47.5814629  36.1212082  63.9553299
  47.3883362  34.0008926  64.5947647  46.8229065  33.3213921  65.4581604
  47.6743889  33.6139107  63.3915558  48.0859413  34.3561516  62.8440170
  47.4199409  32.3007355  62.7613144  46.3517456  32.1905975  62.5744057
  48.2181511  32.2178612  61.4328384  48.0998497  33.1574135  60.8930702
  49.2853699  32.0146523  61.5214233  47.5781136  31.0655556  60.5888710
  47.7109337  30.1039982  61.0847168  46.4923630  31.0499859  60.4939575
  48.2761230  30.8597088  59.1872749  49.4556198  30.8917847  59.0365181
  47.5106010  30.8809471  58.1217384  46.5299149  31.1222706  58.1109848
  48.0083427  30.7630367  57.2508469  47.8171883  31.1984100  63.7446785
  47.0001755  30.3182240  64.0214386  49.0394554  31.2608910  64.2643204
  49.7591934  31.8821087  63.9234924  49.5650139  30.3145142  65.1950836
  49.5040207  29.2971325  64.8086624  51.0725670  30.4812775  65.4259720
  51.2982445  29.7305584  66.1833344  51.5447044  30.2382984  64.4740524
  51.6793633  31.8548241  65.8481750  51.1562500  32.8984299  65.3325729
  52.7335091  31.8671589  66.5405121  48.8825073  30.3625660  66.5574112
  48.8114433  29.3247108  67.1578445  48.4183846  31.5176430  66.9926910
  48.2987366  32.3026505  66.3685532  47.8544044  31.6240616  68.3834610
  48.2500954  30.8419609  69.0314178  48.1685867  32.9655151  69.0722504
  47.5498734  33.6916389  68.5449600  47.8951149  32.9187660  70.1263504
  49.6650658  33.4093323  68.9477921  50.3407555  32.6009750  69.2272491
  49.9827614  33.6049042  67.9236221  49.9926567  34.6784286  69.8049927
  49.0938225  35.4484138  70.1751938  51.2013512  34.8515892  70.2453308
  51.8697548  34.1362228  69.9971771  51.2037163  35.5092278  71.0118866
  46.3163719  31.3580952  68.4220047  45.6550980  31.7082119  69.4031372
  45.7475319  30.9268799  67.2859802  46.2363548  31.0022545  66.4053726
  44.2797165  30.6253834  67.1496964  43.7315788  31.2709637  67.8359070
  43.6556740  30.9602032  65.7958374  44.2462387  30.5695438  64.9671478
  42.1756592  30.2849636  65.5675888  41.8915100  30.5098114  64.5395813
  42.2424889  29.2091312  65.7295151  41.5508194  30.8382034  66.2687378
  43.5684967  32.4924011  65.5861053  42.7894859  32.8063011  66.2808762
  44.4978180  32.9082680  65.9753647  43.4353294  33.0569839  64.0720978
  43.3426208  34.1388283  63.9766159  44.1757927  32.6523895  63.3820763
  42.4891205  32.6658554  63.6981926  43.9162598  29.3195705  67.6549301
  44.7402954  28.3932800  67.4441833  42.7346802  29.1603336  68.3633423
  42.0933037  29.9388256  68.4151230  42.3624306  27.9481373  69.0910568
  43.2685394  27.3701916  69.2728424  41.7854424  28.2296352  70.4727173
  41.0298538  29.0131645  70.4155655  41.3109245  27.3824844  70.9679642
  42.9043541  28.7235870  71.4160461  43.6930389  27.9713726  71.4318466
  43.2974701  29.6380043  70.9717484  42.4247932  29.0454426  72.8144836
  41.6168861  29.7472248  72.6073837  41.9869728  28.1561394  73.2678757
  43.4904861  29.5609512  73.7325516  44.4384995  29.6540203  73.3968277
  43.2508659  29.7997913  74.9875412  42.1534996  29.4812984  75.6221161
  41.9672089  29.5658665  76.6111832  41.4203415  28.9121170  75.2238617
  44.0170250  30.5608921  75.7807846  43.7105026  30.8555813  76.6969223
  44.7930069  31.0304813  75.3364487  41.4407883  27.1178589  68.1430817
  40.4867821  27.6504917  67.5932922  41.7886925  25.7966671  67.9643173
  42.5880814  25.4251881  68.4573517  40.9521027  24.8712158  67.1476746
  40.0425377  25.3554096  66.7922211  41.8139381  24.4940777  65.9468842
  42.6330070  23.8842144  66.3280640  41.2619133  23.7560883  65.3648682
  42.3030167  25.6537151  65.1886520  41.4958572  26.3634853  64.3072433
  42.3418236  27.3141804  63.8120804  42.1569710  28.0868626  63.0805092
  43.5517540  27.2801285  64.3820801  44.4012222  27.7484455  64.1006851
  43.5267220  26.2782936  65.2949600  44.2935448  25.9883118  65.9980164
  40.4951477  23.6739426  67.9934006  41.3535919  23.1074696  68.6425171
  39.2356033  23.2494316  68.0410461  38.5527229  23.6279240  67.4003220
  38.7810936  22.4783649  69.1637344  39.4523315  22.4207153  70.0205994
  37.5793381  23.2449055  69.8586655  36.9141045  23.4398270  69.0174942
  36.8049240  22.4646416  70.9557343  36.4131775  21.5239658  70.5687561
  37.5510368  22.2114029  71.7089233  36.1030731  23.1298962  71.4586716
  37.9269753  24.5781193  70.4885635  38.9293327  24.4435673  70.8951111
  38.1840401  25.3705978  69.7857132  37.2483253  25.0062180  71.2263031
  38.4296341  21.0302296  68.7398376  37.7034035  20.8327694  67.7699127
  39.0925751  20.1130829  69.4779434  39.6024780  20.4627209  70.2765961
  39.0799904  18.6852226  69.2389145  38.3739510  18.4710979  68.4365692
  40.4265175  18.1749344  68.7049713  41.1480560  18.6624870  69.3605423
  40.3583145  17.0897541  68.7813263  40.7074509  18.4932785  67.2521744
  41.1911697  19.7770901  66.9673538  41.2277298  20.5063496  67.7631226
  41.2081757  20.2390747  65.6159058  41.5918083  21.2224903  65.3875961
  40.9451256  19.3153019  64.6005249  40.7353821  19.6609344  63.3041916
  40.8125000  18.9340401  62.6818733  40.6652145  17.9852791  64.9023590
  40.3974266  17.2770844  64.1322021  40.5299759  17.5599976  66.2606735
  40.1722908  16.5511494  66.4045105  38.5931931  17.8965759  70.4504089
  39.1247063  17.9811325  71.4839401  37.4071579  17.2377243  70.3146515
  36.9659004  17.2694016  69.4066925  36.6729507  16.5250645  71.4485245
  37.3026657  16.7324810  72.3137054  35.2718163  17.2037582  71.6540298
  34.7027016  16.9218235  70.7681885  34.8446922  16.7121620  72.5280991
  35.3059578  18.7303772  71.8158112  35.5705757  19.2202244  70.8787308
  33.8764610  19.2013111  72.1326981  33.1826973  18.9745274  71.3231583
  33.5223351  18.8088818  73.0859528  33.8463554  20.2901211  72.1738434
  36.0979996  19.1458645  73.0452652  35.7005119  18.7079163  73.9608612
  37.1274185  18.7881908  73.0235214  36.0221748  20.2271690  73.1598663
  36.6750870  15.0107679  71.1635208  37.0099449  14.4968643  70.0647659
  36.1947975  14.3144846  72.1940460  35.7518311  14.8559685  72.9225159
  36.0243187  12.8388081  72.2570190  36.0006218  12.6153507  73.3236084
  34.6570015  12.4922132  71.6371002  34.6710281  12.8220015  70.5982819
  34.5785217  11.4050741  71.6287537  33.4029694  13.1913414  72.2316742
  33.5028992  14.2745457  72.1625290  32.5449791  12.9748974  71.5951920
  33.0407181  12.7247162  73.6699524  32.3967171  11.6458731  73.9126511
  33.6189957  13.3398609  74.5885773  37.2546196  12.0611763  71.7068100
  38.3790855  12.3873234  72.0098038  37.0027733  11.2153654  70.7158356
  36.0846825  11.0489044  70.3291779  37.9788895  10.3545666  70.0740814
  38.7132301  10.2703943  70.8751755  37.4385910   8.9716492  69.7464371
  36.8247604   8.8879509  68.8496017  38.2957764   8.3291931  69.5449829
  36.6764565   8.3212881  70.8868790  37.2620773   8.4661970  71.7947083
  35.7136154   8.8127689  71.0264664  36.2108574   6.8440065  70.5540390
  35.2817802   6.8428445  69.9840317  37.0721970   6.2860723  70.1867447
  35.8112564   5.9903569  71.8463898  35.8185692   4.9345417  71.5756531
  36.6171684   6.0209212  72.5796509  34.5017433   6.4649239  72.4204483
  33.7262497   6.5075936  71.7747726  34.2514153   5.8715925  73.1985168
  34.4271355   7.4065509  72.7780380  38.6300964  11.0419331  68.8237076
  39.6602783  10.5714083  68.3456345  38.1332092  12.1783609  68.4197311
  37.3351326  12.5763245  68.8938599  38.8496742  13.1470308  67.5253143
  39.1271706  12.5667973  66.6453018  37.8742981  14.1708393  66.9665070
  38.4070129  14.5510111  66.0948486  36.8686066  13.8347673  66.7140350
  37.7462273  14.9973545  67.6654816  40.1926765  13.7651272  68.0323410
  41.1113853  14.0099859  67.2811966  40.3485451  13.7519722  69.3859177
  39.6078758  13.6412811  70.0635986  41.6377335  14.1423883  70.0240326
  41.8892021  15.1307650  69.6393509  41.6512489  14.1806726  71.5748520
  40.6617203  14.4807701  71.9196320  41.7662926  12.6845980  72.1144485
  41.2797928  12.5867472  73.0849380  41.3313942  12.0484877  71.3435287
  42.7851524  12.3233318  72.2541275  42.8370094  14.9434338  72.1860352
  43.0460472  14.6799545  73.2228470  43.7811470  14.8848991  71.6444855
  42.5451355  15.9917727  72.1236191  42.7887573  13.3233624  69.4203796
  43.9334373  13.7306061  69.3605347  42.5700989  12.0626583  68.9552994
  41.5885239  11.8330984  68.8926926  43.6079407  11.0820904  68.5864487
  44.4486771  11.1794796  69.2733154  43.0803947   9.6689653  68.3833313
  42.3267365   9.7233286  67.5977402  44.1957550   8.6461735  68.1705780
  44.8364792   8.4916887  69.0387344  43.6776428   7.7060866  67.9811096
  44.7155266   8.9229307  67.2533264  42.4095192   9.2599421  69.7380829
  41.4566078   9.7883110  69.7680054  42.2370300   8.1962194  69.5742416
  42.8730316   9.4919090  70.6969604  44.2421875  11.6164541  67.2492905
  45.3992081  11.2164230  66.9695206  43.6114426  12.5821581  66.6186371
  42.6791801  12.6562567  67.0000763  44.0883980  13.1926270  65.3037415
  44.4983864  12.4490595  64.6202774  42.8768196  13.8490229  64.6298294
  42.5487709  14.6353664  65.3096466  43.1483765  14.2263365  63.6439285
  41.7496376  12.8784904  64.4120560  41.4377975  12.3533401  65.3148651
  40.5270462  13.5045576  63.8609238  40.6614761  13.8990793  62.8537598
  39.6632233  12.8439484  63.7867317  40.2382240  14.3014975  64.5461731
  42.1076813  11.8662262  63.3084030  42.9426270  11.2495937  63.6411705
  41.3077507  11.1278820  63.2530823  42.1934700  12.3321171  62.3267288
  45.1715126  14.2609606  65.4712448  45.9358673  14.5908861  64.5242081
  45.2352371  14.9433060  66.6004868  44.7048836  14.6668663  67.4143677
  45.8811874  16.2859154  66.7238846  46.5105553  16.4971180  65.8593750
  44.8273125  17.3785915  66.7707367  44.2681541  17.0837841  67.6587296
  45.3275070  18.3182068  67.0053329  44.0666618  17.5853329  65.4873428
  43.5080223  16.6545639  65.3888855  43.2343216  18.2599354  65.6878967
  44.6680641  17.9915600  64.1601334  45.4185944  17.2144146  64.0157318
  44.0851555  17.9387665  63.2406082  45.5104294  19.2283611  64.2723694
  46.4349480  19.2343540  64.6789780  45.1012611  20.4746170  63.9955940
  43.9595070  20.6675587  63.4936523  43.9017601  21.6393566  63.2246170
  43.5226974  19.9738026  62.9037323  45.8343849  21.4733791  64.3141098
  45.4113312  22.3889656  64.3673325  46.8295288  21.3455582  64.4300919
  47.0303726  16.3753433  67.8196487  46.7958565  17.1334743  68.7448044
  48.0766449  15.5443144  67.7528610  48.4321594  14.7039680  66.6058121
  48.4669952  15.2903957  65.6876602  47.7464943  13.8651590  66.4859619
  49.8511696  14.1879864  66.9594803  50.5487404  14.7682352  66.3554840
  49.9753036  13.1155758  66.8090515  49.9624405  14.4291830  68.4436035
  51.0163727  14.4293270  68.7216873  49.3374367  13.7333765  69.0033646
  49.1814461  15.7286110  68.6796112  48.8394012  15.8136110  69.7110596
  50.1196861  16.9335670  68.4397964  51.0228615  17.1162910  69.2575912
  49.9217834  17.8103333  67.4598923  49.2347679  17.5298691  66.7747269
  50.3548889  19.2349167  67.4404755  51.4289894  19.3214359  67.6045685
  50.1589661  19.6977081  65.9672623  50.5223389  20.7252846  65.9792786
  50.7492638  19.0739670  65.2959976  48.7221375  19.8108311  65.4565506
  47.8416138  18.9622250  65.7662582  48.4010620  20.7775841  64.7460632
  49.6256409  20.1507568  68.4678116  49.9895706  21.2650795  68.7569504
  48.5063515  19.6793423  69.0232925  48.2183838  18.7446747  68.7711639
  47.5916519  20.4711475  69.8558578  47.9825668  21.4678154  70.0606537
  46.2425880  20.6369534  69.0857773  45.9516907  19.6332874  68.7757263
  45.4214211  20.8875084  69.7573471  46.2084007  21.5638885  67.8876801
  46.7745323  21.2124062  67.0250931  44.7619209  21.5514259  67.3565445
  44.6614151  22.3014297  66.5720062  44.4898109  20.5341053  67.0752640
  44.0702744  21.8345985  68.1499786  46.6794090  23.0124779  68.3048859
  47.7679710  22.9566784  68.3020554  46.3408546  23.7186165  67.5466919
  46.2822456  23.2560215  69.2902985  47.3922119  19.8341618  71.2660446
  47.4698181  20.4657898  72.2995148  47.1887360  18.5104523  71.2935333
  47.1343994  18.1294022  70.3597488  47.1208572  17.6509724  72.5527267
  46.5416679  18.1943779  73.2992935  46.5056152  16.2230453  72.4165421
  45.4585800  16.3215141  72.1299591  47.1519623  15.6688004  71.7359924
  46.5845718  15.4950075  73.5976028  46.0581932  15.9543219  74.2560577
  48.4860497  17.6236858  73.2439880  49.4301033  17.0728893  72.6306915
  48.5508232  18.2011967  74.4080200  47.7028923  18.5743294  74.8103714
  49.8076973  18.3001957  75.1954193  49.3909531  18.6858482  76.1258469
  50.3524284  16.9448013  75.6223984  50.7464218  16.4917297  74.7126770
  51.2522659  17.0397415  76.2301636  49.3653488  15.9096775  76.2217026
  48.5449257  15.7268801  75.5277328  49.9547348  14.5602207  76.3159409
  50.6930923  14.5132132  77.1163864  49.1567039  13.8386726  76.4909134
  50.4017105  14.2708807  75.3648376  48.9387245  16.3332119  77.5950546
  49.8608818  16.2450829  78.1694717  48.3930016  17.2654095  77.4491272
  48.2791977  15.6048403  78.0668564  50.7909317  19.3808746  74.6928329
  51.9926300  19.4384155  75.0165939  50.2795601  20.3061733  73.8553772
  49.2739868  20.4002419  73.8469238  51.1044998  21.4254761  73.4772034
  52.0207024  21.0447769  73.0258179  50.3940277  22.3135967  72.4812469
  49.9801331  21.5497818  71.8229294  49.2542076  23.2060547  72.8997498
  48.6418381  22.8060284  73.7078934  49.7028122  24.0652542  73.3983765
  48.5870590  23.2817841  72.0410919  51.3444214  23.1714630  71.9091339
  51.0348930  23.3221321  71.0129776  51.6554451  22.3003960  74.6701660
  51.0324936  22.5311050  75.6938324  52.8801270  22.7733192  74.5126038
  53.2625160  22.4150772  73.6491623  53.5410995  23.7311897  75.3789444
  53.1631088  23.6045170  76.3934250  55.0472298  23.2555332  75.4600067
  55.4533501  22.9693279  74.4898224  55.7266426  24.0499649  75.7688446
  55.1958809  21.9478321  76.2820740  54.9356918  22.1095924  77.3281250
  54.5010262  21.2427826  75.8257980  56.7220573  21.5096130  76.3026733
  57.0500641  21.1770039  75.3178482  57.2819138  22.3871918  76.6259613
  57.0555038  20.4980679  77.3843307  56.5364876  20.7246819  78.3156509
  56.7528419  19.5500317  76.9396667  58.5265388  20.3729763  77.6076279
  59.0203896  20.6292896  76.7647095  58.8105087  21.1389828  78.2015152
  58.8481445  19.4692039  77.9236450  53.4608421  25.2046471  74.9948044
  53.9738274  26.0852623  75.6904984  52.7439804  25.5386696  73.9255142
  52.2011452  24.8229961  73.4637299  52.3827553  26.9667664  73.6361923
  53.3240280  27.5163803  73.6309662  51.9701691  27.0444527  72.1181030
  52.7289658  26.5973129  71.4759293  50.9751587  26.6106739  72.0186386
  51.8103600  28.5138130  71.7271576  52.0308228  29.5055828  72.4527206
  51.3410835  28.8158493  70.5698853  51.0983391  28.0639629  69.9407272
  51.5317039  29.7522449  70.2428894  51.4558411  27.6193295  74.5855560
  50.2846375  27.1786861  74.5807190  51.9030457  28.6664982  75.2299652
  52.8391380  29.0240669  75.1035843  51.0670967  29.2500744  76.3165054
  50.5344658  28.4134388  76.7686615  51.8899803  29.9361916  77.3755112
  51.3047791  30.3919392  78.1742249  53.0326233  29.1361980  77.9909744
  53.6281128  28.6993141  77.1893463  53.6191101  29.7442875  78.6797180
  52.6196060  28.3263378  78.5923462  52.5373726  31.1238022  76.8285828
  51.9216652  31.7944126  76.5239716  49.8759079  30.1316662  75.9726868
  49.1106873  30.4722462  76.8967590  49.7387619  30.5210896  74.6756516
  50.4950104  30.3525639  74.0277405  48.6123581  31.3579998  74.2487259
  48.3174057  32.0483971  75.0389557  49.0870514  32.1537552  73.0520477
  48.8490791  31.5944862  72.1472321  48.3810577  32.9818878  72.9898453
  50.4339294  32.8302460  73.0850830  51.2375603  32.1324997  72.8496628
  50.3802452  33.6553116  72.3748093  50.6253891  33.4394989  74.4977341
  51.5100365  33.0439034  75.2710571  49.9412956  34.4300041  74.8823547
  47.3568001  30.4338837  73.9285049  46.2502289  30.9011097  73.7470551
  47.6155281  29.0990124  73.7916718  48.5712547  28.7891998  73.8951187
  46.6722832  28.0178452  73.4793015  45.8028679  28.4390831  72.9745407
  47.2188454  26.8711681  72.6054306  47.9286842  26.2859936  73.1900711
  46.3892975  26.2097435  72.3554916  47.9056664  27.2988911  71.3346176
  48.7820511  27.9093513  71.5523071  48.3824997  26.0127373  70.6624374
  48.8843307  26.1903210  69.7112579  49.0970879  25.6190491  71.3852615
  47.5621490  25.3191261  70.4779434  47.0384178  28.1341324  70.3602982
  46.7602806  29.1606503  70.5990448  47.4498825  28.2938099  69.3636551
  46.1375656  27.5281677  70.2635117  46.1376915  27.3688545  74.7800369
  46.9406738  27.1984291  75.7627716  45.0014915  26.9419727  74.7264252
  31.0367527  47.6299515  56.5866508  30.3247147  47.1942978  57.1552544
  31.7862911  47.9732933  57.1701012  30.5202999  48.3599701  56.1171303
  31.5958347  46.6219292  55.5810356  30.7345600  46.3757401  54.9599838
  32.7522469  47.2347984  54.7273407  32.3713722  48.1141167  54.2078819
  33.4915085  47.6186333  55.4303818  33.4012260  46.2970734  53.7303619
  34.0350952  46.9129372  53.0923805  33.8078499  45.4420776  54.2704811
  32.2017288  45.7562904  52.6260529  32.5867462  46.8488083  51.2545090
  33.6147842  46.6815987  50.9331322  31.9632969  46.7770805  50.3632927
  32.5856895  47.8689003  51.6385880  32.0904617  45.3057327  56.2467155
  32.9164085  45.3829956  57.1998138  31.8773193  44.1265831  55.6479721
  31.2858047  44.0485344  54.8330383  32.3382530  42.8025780  56.1222839
  33.3739662  42.8725471  56.4547119  31.5112801  42.2972412  57.3558693
  30.6278286  42.9100838  57.5348511  31.0509872  41.3163223  57.2374001
  32.3997879  42.3459969  58.6044159  33.4482002  42.2540321  58.3207359
  32.2856712  43.3385887  59.0401268  31.9935112  41.0533447  59.8507271
  32.7638206  39.5321808  59.1725311  32.7098389  38.6902695  59.8627281
  32.3935509  39.3474579  58.1641273  33.8253670  39.7581215  59.0716858
  32.3161736  41.7932320  54.9558487  31.5666618  41.9915657  53.9642982
  33.1826439  40.8123703  55.0462952  33.8677444  40.9293633  55.7791328
  33.1395798  39.6511841  54.2018700  32.8499298  39.9359589  53.1903839
  34.5142708  39.0164185  54.0096588  35.0662613  38.9833374  54.9489708
  34.3172226  37.5752373  53.4790077  35.1772041  37.2209473  52.9106636
  34.1513748  36.9246025  54.3376503  33.4527855  37.4446373  52.8280144
  35.3606071  39.7818184  52.9512482  35.0958939  39.3683014  51.9780922
  35.2368622  40.8503914  53.1271591  36.8453217  39.4779739  53.2249260
  37.3037415  40.0866127  54.0043526  37.0573616  38.4230537  53.3989677
  37.2840958  39.8062363  52.2826843  32.0922470  38.6748276  54.8067551
  32.2107925  38.4779510  56.0110741  31.0827827  38.2498627  54.0129471
  31.1219673  38.4769173  53.0295792  30.0401440  37.3447304  54.5297508
  30.3849182  36.7365303  55.3660049  28.8024483  38.1566315  54.9764671
  28.2613621  38.7523499  54.2413177  28.0248318  37.4653091  55.3012657
  29.0995216  39.1083603  56.0973473  29.5485115  38.5733185  56.9341469
  29.8059444  39.8827972  55.7984848  27.8093758  39.7680206  56.5622444
  27.2767773  40.3000488  55.7739677  27.0798759  39.0299263  56.8956337
  28.0506840  40.7494125  57.6387291  27.8250065  41.7162590  57.4533195
  28.4621792  40.4426460  58.8727722  28.7853088  39.1692009  59.1719246
  29.3343830  38.9634209  59.9942818  28.4745483  38.4615555  58.5217209
  28.5849857  41.2878494  59.8682175  28.0243340  42.1012230  59.6580009
  28.7928238  40.9240227  60.7872047  29.6258087  36.2515450  53.4812050
  30.0837002  36.3120346  52.3353424  28.7659378  35.3094177  53.8797112
  28.5562820  35.2240372  54.8640137  28.2717571  34.2334595  53.0447388
  28.8826923  34.2034149  52.1425438  28.3825722  33.2956085  53.5890388
  26.8503895  34.5220451  52.6128120  26.0012722  34.9090691  53.4735031
  26.5220432  34.3211632  51.3845711  27.2422066  34.0314713  50.7383957
  25.1687298  34.1667633  50.8324928  24.4438934  34.5122566  51.5696144
  24.9291859  35.0876312  49.5852623  25.6096878  34.8760071  48.7605019
  23.4867859  34.9184608  49.1268501  23.0984192  35.6689034  48.4382935
  23.1346779  34.0189667  48.6218491  22.8173866  35.0375595  49.9788055
  25.1812210  36.5447426  49.9150887  24.4834671  36.7959633  50.7139206
  26.2360172  36.6070099  50.1827354  25.0561619  37.5298119  48.7482262
  24.0022850  37.5070038  48.4708633  25.3521023  38.5147934  49.1092377
  25.6944294  37.2845383  47.8993721  24.8946362  32.6696587  50.4165993
  25.7804317  31.8895950  50.0301781  23.6198654  32.2138672  50.4687386
  22.9816895  32.8982964  50.8487206  23.0905132  30.8353672  50.3882446
  23.8178082  30.2188358  49.8600082  22.8106728  30.1810322  51.7236748
  22.4326077  30.9156265  52.4346886  22.0301857  29.4583683  51.4855614
  24.0368118  29.5180302  52.3216438  24.5832634  28.9834156  51.5446739
  24.7346382  30.2937374  52.6369476  23.9230022  28.3820915  53.4385605
  24.8665543  28.1787510  53.9449844  23.2066822  28.7535343  54.1713753
  23.4874878  27.1851978  52.8259811  24.1313496  26.7957649  52.1522713
  22.3650055  26.6051350  52.9978104  21.5094433  26.7581177  53.9445801
  21.6214886  27.4401417  54.6810532  20.6584110  26.2153625  53.9800682
  22.1192646  25.6646404  52.1379204  22.8797665  25.4592667  51.5058098
  21.2826653  25.1111240  52.2554893  21.8713398  30.8050003  49.4790344
  21.1979294  31.8378582  49.2750015  21.5415154  29.5625668  49.0703163
  22.2745552  28.9067860  49.2999001  20.3559933  29.0949898  48.3916512
  19.5217342  29.2090130  49.0838280  20.2168159  29.7730217  47.5496292
  20.4613800  27.6773376  47.9775772  21.5445633  27.1464939  47.9495316
  19.3083248  27.1641636  47.4609795  18.4370155  27.6610146  47.5795479
  19.1244926  25.8050804  46.9974480  19.9129448  25.5525703  46.2884407
  19.1879139  24.9299603  48.2858238  18.3929081  25.2599411  48.9545441
  19.1183434  23.9102497  47.9070740  20.1897583  25.0122070  48.7073021
  17.9123859  25.5371552  46.2110405  17.0608025  26.3816814  46.0050011
  17.9366207  24.4044514  45.5698662  18.7818012  23.8656235  45.6940994
  16.9909286  23.9393635  44.5173874  15.9548311  24.1368313  44.7923775
  17.3277683  24.6344090  43.1659813  17.3776417  25.7128487  43.3162842
  18.6055374  24.1750431  42.4955864  18.6078587  24.5568256  41.4746361
  19.5482311  24.5562859  42.8881187  18.7170048  23.0957184  42.3919716
  16.2565079  24.5291519  42.2053719  16.4457378  25.3071861  41.6757889
  17.0180225  22.4059849  44.3096466  17.8785095  21.7884617  44.8258095
  15.9945745  21.8392220  43.6485901  15.3537149  22.4894581  43.2166214
  15.8837910  20.4188824  43.2709503  16.8220921  19.9233437  43.5202179
  14.7693138  19.7647495  44.1797752  14.4324312  18.8482399  43.6954002
  15.2474861  19.4934464  45.6353455  14.5044832  18.9025974  46.1710205
  16.1279163  18.8560390  45.5537720  15.6277180  20.3228073  46.2317429
  13.6900597  20.5660934  44.2787285  13.1009378  20.3813152  43.5436134
  15.6327963  20.1074066  41.8207779  14.8881130  20.8230724  41.1270180
  16.1346951  18.9174271  41.3835220  16.7115955  18.4072380  42.0369682
  15.8155918  18.3033504  40.0588074  15.2140017  19.0540676  39.5463524
  17.0011616  17.9367046  39.2257042  16.6673737  17.5882416  38.2483292
  18.0813904  19.0808544  39.1095581  18.8967094  18.8000717  38.4428329
  17.6100941  19.9285736  38.6122131  18.5646839  19.3674965  40.0435638
  17.7553368  16.7748852  39.8685760  17.1702423  15.8554096  39.8867416
  18.6023769  16.5358200  39.2255592  17.9882011  17.1197395  40.8760262
  14.9050579  17.0777893  40.2040367  14.6327562  16.5921993  41.3285980
  14.3060675  16.6185856  39.1034393  14.7023096  17.0346413  38.2727814
  13.4947491  15.4318285  39.1232376  13.2783842  15.0700941  40.1284409
  12.1206160  15.7550774  38.5369759  12.2829571  16.0227146  37.4928894
  11.3711109  14.9647074  38.4962692  11.4593525  17.0187454  39.1583824
  12.1810017  17.8321075  39.0824509  10.5147085  17.1504421  38.6307297
  11.0922222  16.8854504  40.6915436  11.0679741  15.7200594  41.2729073
  10.7027807  17.9434032  41.1963196  14.1187859  14.3023157  38.3423119
  13.8172188  13.1235399  38.5999908  15.0461941  14.6368637  37.4165535
  14.9473057  15.5770044  37.0609474  16.0182629  13.7097187  36.7150764
  15.9116526  12.7243881  37.1687927  15.6383514  13.5931940  35.1849518
  15.6168623  14.6176996  34.8134308  16.3588810  12.9918089  34.6306305
  14.3394852  12.8739595  34.8171921  14.2969828  11.8197994  35.0911293
  13.5542459  13.2946129  35.4453316  14.0796432  13.0447588  33.3059731
  14.7921543  12.4312525  32.7545738  13.1163836  12.6112738  33.0370483
  14.0008640  14.4695415  32.9021492  13.7462568  15.1161165  33.6351013
  14.2361774  15.0669298  31.7432117  14.5692711  14.3966084  30.6653042
  14.7878256  13.4208479  30.8075371  14.5729780  14.9127522  29.7971554
  14.1859055  16.3934116  31.7057171  14.0595827  16.8417377  32.6019020
  14.5158663  16.8845654  30.8871861  17.4583321  14.0798693  36.8741379
  17.8583221  15.2351942  36.9044724  18.2584705  13.0157490  37.0218544
  17.8602619  12.0988026  37.1658630  19.6855316  13.1136837  36.9014702
  19.9356709  13.9985209  37.4867859  20.3099918  11.9544668  37.6855431
  19.7825146  11.8430576  38.6328888  20.0681763  11.0147133  37.1890678
  21.7814922  12.0507603  37.9449539  22.5264359  13.0372219  37.7271423
  22.1655350  11.0006962  38.3803215  20.1264076  13.2101421  35.4378242
  20.3226871  12.1832018  34.8180199  20.1554070  14.4435110  34.8995667
  19.7944794  15.1641760  35.5082321  20.4790840  14.8442192  33.4836693
  21.2988701  14.2225571  33.1236877  19.2610073  14.6727667  32.5912628
  18.8995972  13.6444368  32.5867538  18.0870342  15.5493088  32.9859314
  17.6389656  15.4343433  33.9729042  18.2250729  16.5990353  32.7268562
  17.4213924  15.2591686  32.1730042  19.6172333  14.9451256  31.3239861
  20.0868607  14.1743965  30.9968376  20.9764290  16.3509731  33.4527206
  20.5041828  17.1422272  34.2404175  21.7418785  16.7474346  32.4720764
  22.1020947  16.0560627  31.8299351  22.3487835  18.0700378  32.3106079
  22.7880306  18.4585533  33.2294197  23.3276196  18.0311413  31.1406841
  24.0503750  17.2440224  31.3555546  22.6958828  17.8340778  30.2745571
  24.1125412  19.2782116  30.8001461  23.4585228  20.1445942  30.7014503
  24.7749119  19.6202145  31.5953865  24.9208317  19.1589317  29.4704094
  24.7501431  19.9596367  28.4989986  25.7447014  18.2178822  29.3984032
  21.3057747  19.1356525  31.9469090  21.5499535  20.2842293  32.3944626
  20.1875935  18.7488251  31.2628593  20.0737133  17.7826557  30.9914799
  18.9586906  19.6242142  30.9266644  19.1605797  20.5214424  30.3415737
  18.1117859  18.7419300  30.0800495  18.5146675  18.7148571  29.0676003
  18.1295719  17.7012444  30.4037075  16.7000847  19.1620522  29.8930378
  16.1935558  19.1400719  30.8579445  16.7097130  20.2145691  29.6098137
  15.9712238  18.2552509  28.8592854  16.3748741  18.2413940  27.6524162
  14.9697790  17.5966873  29.2383232  18.3335533  20.1137943  32.1819153
  17.6430531  21.1308918  32.2722588  18.6203804  19.4091949  33.2904778
  19.1635475  18.5596199  33.2331009  18.1199818  19.9328957  34.5299187
  17.5537338  20.8639336  34.5047340  17.2635345  18.8968410  35.3214111
  17.8536873  18.0448627  35.6589851  16.8781815  19.4322472  36.1891365
  16.0866089  18.4070549  34.4210739  15.4544868  19.2664356  34.1974869
  16.4261532  17.9839535  33.4756660  15.1279736  17.3941212  35.1943626
  15.0641241  17.2944984  36.4306946  14.3193808  16.7902012  34.4000854
  19.2081585  20.3980236  35.4507179  19.1478405  21.5250645  35.8695335
  20.2320881  19.5951214  35.6784744  20.2008133  18.6597786  35.2986641
  21.2567940  19.9199543  36.7137032  20.7266121  19.9226456  37.6660690
  22.3930073  18.8894863  36.8881531  22.8696175  18.6750984  35.9316063
  23.5246887  19.2287903  37.8745346  23.2193260  19.3545971  38.9132919
  24.2584343  18.4227390  37.8758698  24.0311985  20.1471577  37.5776100
  21.8637447  17.4516964  37.3338089  21.7153625  17.4294224  38.4134293
  20.8715916  17.2436543  36.9332466  22.7834873  16.3483505  36.7663002
  23.7554321  16.3898258  37.2579346  22.2745953  15.4075689  36.9762115
  22.8204613  16.4502983  35.6817093  21.8944664  21.2280827  36.3450203
  22.0744991  22.0875301  37.2036285  22.2970810  21.5079308  35.0819664
  22.0158787  20.9522781  34.2868118  23.1294804  22.6531296  34.8021088
  23.9412899  22.7856598  35.5173073  23.7974205  22.4213257  33.4640808
  24.2935905  21.4616299  33.6086578  22.9884033  22.4312344  32.7336731
  24.9044571  23.3794155  33.1155243  25.6248608  23.4556217  33.9299660
  25.7959595  22.9019985  31.9786129  26.2819118  22.0168419  32.3890457
  25.3345776  22.7736130  30.9994583  26.5991650  23.6317215  31.8763218
  24.4678364  24.8253269  32.7202263  23.7522430  25.2789345  33.4059906
  25.3595085  25.4510746  32.7584839  24.0526047  24.8793526  31.7138634
  22.1570511  23.9002285  34.9179764  22.3790226  24.8924541  35.5727692
  21.0515251  23.7268372  34.1696548  20.9091930  22.8016815  33.7902756
  19.8964443  24.6499176  33.9776878  20.2277012  25.5184822  33.4085121
  18.7410488  24.0407944  33.1466408  19.1031780  23.8793259  32.1313133
  18.4135895  23.1173820  33.6243210  17.4485607  24.9114571  33.0012627
  16.8511505  24.9323997  33.9127235  17.7933655  25.9102287  32.7335472
  16.4697227  24.4878273  31.8739815  15.4501638  25.1632233  31.6182861
  16.7680130  23.5044498  31.0659809  17.5395565  22.9004517  31.3109589
  16.2133446  23.3492413  30.2363091  19.4146461  25.2050762  35.3337517
  19.5762749  26.3710728  35.5809517  19.0062294  24.3706093  36.2147598
  18.9858818  23.3890972  35.9774437  18.6419926  24.6945705  37.6152458
  17.8246441  25.4156933  37.6201096  17.9878521  23.4746819  38.3176537
  18.7663364  22.7226582  38.4461937  17.6468792  23.7521248  39.3150826
  16.8419628  22.8249931  37.5248909  17.0456619  22.8082294  36.4542236
  16.8051224  21.7779427  37.8256035  15.5166302  23.4864044  37.6780701
  15.1921711  23.5851650  38.7139664  15.6774311  24.4892521  37.2824211
  14.3691692  22.7451038  36.9537849  14.6921358  22.5996914  35.9229355
  14.3402119  21.7097473  37.2933426  13.0777016  23.2976513  37.1276360
  12.9248009  24.1208000  36.5627022  12.2712030  22.7049370  36.9921646
  12.9990492  23.7640419  38.0200462  19.7874794  25.2379093  38.4576187
  19.4932442  26.0409088  39.3441277  21.0642853  24.7840652  38.3420792
  21.3330040  24.2094269  37.5561523  22.1697903  25.4902210  39.1075516
  21.7887363  25.6143932  40.1211967  23.4424076  24.5798683  39.1297340
  23.7625370  24.4349194  38.0979347  24.5600338  25.1406269  39.9708786
  24.3050537  25.3068695  41.0175171  25.3191719  24.3607159  40.0304642
  24.9041557  26.0325432  39.4472694  23.1452866  23.2416248  39.6229095
  22.6395760  22.7912292  38.9424667  22.4274616  26.9099998  38.5209656
  22.6011715  27.8390007  39.3536644  22.3129349  27.1454430  37.1965179
  22.1910152  26.3586636  36.5750542  22.3328686  28.4754620  36.5991020
  23.1733742  29.0127296  37.0384140  22.3301964  28.3505573  35.0513191
  23.1426468  27.6713982  34.7929153  21.4043274  27.8696098  34.7357941
  22.6055164  29.7595577  34.3757744  21.8000412  30.4871254  34.4755554
  23.5195522  30.1601658  34.8141289  22.7938023  29.5744362  32.8840981
  23.4006100  30.3918819  32.4946556  23.2643127  28.6272202  32.6204643
  21.4436588  29.4661388  32.1149063  20.7719479  28.8193684  32.6793442
  20.9923058  30.4354935  32.3264160  21.5918255  29.2817020  30.6907806
  22.2327938  28.5270538  30.4913387  20.7408791  29.1460514  30.1639137
  21.8688622  30.1583977  30.2727432  21.2004967  29.3354034  37.1873055
  21.4393826  30.4567165  37.5062904  19.9434757  28.8281212  37.1661682
  19.7820892  28.0098457  36.5965385  18.7493935  29.6363564  37.4446793
  18.7320290  30.5131264  36.7973175  17.4673824  28.8031940  37.0205727
  17.7274456  27.7621975  37.2123985  16.6199112  29.1331863  37.6213989
  17.0784702  28.8997574  35.5319214  16.9058838  29.9453545  35.2768936
  17.9460163  28.4999962  35.0068893  15.8863392  28.0054741  35.1507301
  15.8676796  26.7849178  35.2521286  14.9291792  28.4630356  34.3666229
  14.9678078  29.3419952  33.8705940  14.2058620  27.7866611  34.1680527
  18.7342625  30.0876236  38.9374352  18.5000896  31.2383766  39.1772766
  19.1056633  29.1192493  39.7696266  19.0293865  28.1422253  39.5252762
  19.3134270  29.3824482  41.1839981  18.3820171  29.6993313  41.6532097
  20.0280781  28.1829548  41.8193626  19.3582878  27.3277397  41.7294159
  20.8916492  27.7526379  41.3122368  20.2639351  28.3946934  43.3662376
  21.0478439  29.1465359  43.4575157  19.1614552  28.9021664  44.3018417
  18.7106514  29.7807789  43.8404121  18.3420734  28.1859455  44.2406502
  19.6267052  29.0580120  45.2751656  20.6949921  27.0625553  43.9663773
  19.8780804  26.3413067  43.9900322  21.4733944  26.5461483  43.4046707
  21.0640621  27.2741795  44.9699211  20.4376259  30.5187283  41.3897552
  20.3156853  31.3156948  42.3406754  21.5459118  30.4249115  40.6371040
  21.6687584  29.6955414  39.9493332  22.5289326  31.4834309  40.7137527
  22.7377567  31.6344776  41.7728500  23.8638973  31.0999241  40.1025963
  23.6151810  30.7949276  39.0861206  24.4775600  31.9945126  39.9966240
  24.5921612  29.9550285  40.8448753  23.8764400  29.1720543  41.0954628
  25.5399818  29.2404270  39.9567070  25.0029278  28.9229412  39.0629082
  26.3287678  29.7874851  39.4403343  25.9408016  28.3933105  40.5133400
  25.2741928  30.6501141  42.0610313  25.9080791  31.4636288  41.7082214
  24.4863091  30.9118443  42.7673149  25.9249973  29.9946022  42.6397057
  22.0457935  32.8520508  40.1945076  22.3041592  33.8285179  40.8362846
  21.3544598  32.9070168  39.0130539  21.2748165  32.0619431  38.4656868
  20.7662277  34.1621857  38.5822830  21.5300083  34.9139977  38.3834801
  20.1209011  33.8996201  37.1540070  19.4872341  33.0142555  37.2059593
  19.4733410  34.7318535  36.8780365  21.0079784  33.7523804  35.8684120
  21.6807079  32.9322357  36.1192093  20.3026733  33.3299217  35.1527481
  21.7529182  35.0513077  35.4316521  21.8760471  35.3263626  34.2187881
  22.0986214  35.9119072  36.3046875  19.8329105  34.7416573  39.6756821
  19.8215485  35.9865494  39.7327538  19.1817303  33.8591194  40.4634132
  19.2816181  32.8814621  40.2303658  18.2146683  34.3039665  41.4899673
  17.6323853  35.1334839  41.0887833  17.2988930  33.1366425  41.7986679
  16.9832439  32.6472969  40.8772507  17.9304771  32.5126228  42.4309616
  16.1542454  33.5510445  42.7301216  15.4350624  32.7719536  42.9829025
  16.6148987  34.0001373  43.6100159  15.0731821  34.5609322  42.2929649
  14.3743038  34.6597900  43.1235657  15.5771055  35.4800377  41.9939651
  14.4078388  34.0397263  41.0538712  15.0925159  33.6356125  40.3082123
  13.6289272  33.3212395  41.3091698  13.6782370  35.1541595  40.4388046
  12.8514013  34.9702415  39.8886948  13.3269567  35.7568130  41.1692238
  14.3378744  35.7620277  39.9746094  18.9038315  34.8810577  42.7233047
  18.5078678  36.0011406  43.0890388  19.8871708  34.2095222  43.3071556
  20.0390739  33.2674637  42.9761658  20.8548946  34.7538223  44.2499352
  20.3025856  34.8488960  45.1848221  21.9243984  33.6925163  44.5632477
  22.2848358  33.4489899  43.5638084  23.1322021  34.2339401  45.2947235
  22.8502293  34.5975037  46.2828598  23.7935753  33.3731194  45.3930817
  23.5507908  35.0405312  44.6928215  21.4387474  32.4010849  45.3909264
  21.2937298  32.7839317  46.4011230  20.4412594  32.1343384  45.0416870
  22.3707962  31.1739063  45.3799400  22.6218872  30.8878593  44.3585548
  23.2802696  31.2964115  45.9681091  21.8429966  30.3310375  45.8261528
  21.4009037  36.1552582  43.7888832  21.4144936  37.0254784  44.6291504
  21.7913094  36.2573128  42.5794868  21.7372036  35.4377098  41.9917564
  22.4365826  37.4487419  42.0578651  23.1277199  37.7730484  42.8358459
  23.1115303  37.1385574  40.6781578  22.5519066  36.4581490  40.0363121
  23.2960243  38.3267136  39.7507744  23.7040844  39.1966743  40.2653160
  24.0624161  38.1219063  39.0032463  22.3550014  38.6629181  39.3154144
  24.5030918  36.5062714  40.9066200  25.2400322  37.2850227  41.1029968
  24.4631023  35.8827705  41.7997894  25.0096684  35.6898575  39.7132835
  25.8204727  35.0003510  39.9483910  24.1767998  35.1355743  39.2806129
  25.4187870  36.3760948  38.9717979  21.3900623  38.5796165  42.0275879
  21.7048702  39.6439743  42.5557480  20.1926594  38.2337990  41.5401611
  20.1182137  37.3770065  41.0105705  19.0497322  39.1463509  41.3633919
  19.3439713  39.9769669  40.7218323  17.8502045  38.3892670  40.7724533
  18.1711750  38.0174103  39.7994194  17.6308956  37.4208946  41.2221909
  16.5450935  39.1989174  40.5623093  15.8206739  38.5608711  40.0561371
  16.0405979  39.4067497  41.5059166  16.8079872  40.2625084  39.6630592
  17.5548115  40.0062294  38.6442642  16.4032974  41.4399185  39.7959404
  18.6121845  39.8134880  42.7171097  18.4287777  41.0488625  42.7917290
  18.5327568  39.0559578  43.7604370  18.7113400  38.0777969  43.5832138
  18.1052036  39.5105629  45.0872803  17.3089104  40.2181931  44.8564606
  17.4803829  38.4054718  45.9966660  18.1560783  37.5587845  46.1177292
  17.2588921  38.8423233  46.9704208  16.2341957  37.7279282  45.3722115
  16.5574570  37.1977654  44.4763680  15.9411459  36.9349632  46.0602760
  15.1219301  38.7592621  45.1424866  15.0479259  39.7934952  45.8487129
  14.3734741  38.5467834  44.1617889  19.2176723  40.3555565  45.7938271
  18.9173241  41.4306145  46.3544693  20.4478836  39.9289703  45.6165619
  20.5808392  39.0399475  45.1560631  21.5940552  40.4569893  46.3541641
  21.2769184  41.0611992  47.2041359  22.3991966  39.3380165  46.9662170
  22.7852478  38.7223167  46.1538277  23.2009983  39.8839111  47.4634247
  21.4993515  38.5790901  47.9403114  21.2683773  38.9821167  49.0854530
  21.0389462  37.4420776  47.4969177  20.4688587  36.9101791  48.1389351
  21.2848072  37.0951653  46.5807800  22.4031944  41.4655075  45.4996338
  23.4620457  41.8067932  45.9707527  22.0356922  41.8703232  44.2212563
  21.1968517  41.4383125  43.8609619  22.6931324  42.9440727  43.4953232
  22.2674541  42.9279366  42.4920082  22.3599033  44.3234215  44.1508789
  22.8269711  44.4374809  45.1291122  22.8935699  45.1284370  43.6456604
  20.8182068  44.5374222  43.9796829  20.0494232  44.6753616  42.8260002
  20.4274940  44.5386658  41.8994637  18.7731819  44.7827148  43.1895485
  17.9689693  44.8326187  42.4704170  18.6518612  44.7281876  44.5636597
  17.7696514  44.8213615  45.0464897  19.9309006  44.6844559  45.0409927
  20.1188450  44.5647278  46.0977516  24.2446175  42.6865349  43.3486633
  25.0774975  43.5791702  43.3619881  24.6420479  41.4435959  43.2926407
  23.9259071  40.7722893  43.5305367  26.0166588  40.8567963  43.4258995
  26.5416889  41.4847374  44.1457138  25.9749203  39.4882545  44.0822296
  25.4579487  38.7613106  43.4558144  27.4098969  38.9296761  44.5056763
  27.8727360  39.6166306  45.2141724  27.3852959  37.9418602  44.9658012
  28.0602646  38.8579445  43.6339073  25.2481232  39.4694061  45.3014870
  25.7992382  39.8079453  46.0108948  26.8215981  40.8102455  42.1900978
  26.1555843  40.6005325  41.1867752  28.1406612  40.9240685  42.1538239
  28.5599098  41.0574265  43.0629692  29.0338879  40.8460846  40.9330292
  28.5843029  40.1516533  40.2232857  28.9282246  42.2301712  40.2307816
  29.3488941  42.0990334  39.2338181  27.8600235  42.4325027  40.1526413
  29.6149502  43.3826447  40.9816399  29.5195656  43.3016891  42.0644379
  30.7008171  43.4180946  40.8936844  28.9278984  44.7592354  40.7405624
  28.9266624  45.0429039  39.6881218  27.9300842  44.7508698  41.1791916
  29.8052444  45.8579483  41.4440765  30.8382969  45.6981583  41.1352539
  29.5432434  46.8277473  41.0210571  29.7354527  45.7996826  42.9546700
  30.1402874  46.5689659  43.4688797  28.8199043  45.6248817  43.3436699
  30.4144058  45.0889435  43.1869965  30.4796314  40.4682579  41.1752701
  30.8731365  40.6075363  42.2991409  31.2630348  39.8815727  40.2064590
  30.7416954  39.6811943  38.8549042  30.7094135  40.5829124  38.2433777
  29.7303734  39.2746124  38.8498955  31.6950359  38.7036743  38.1961708
  31.8692169  39.0598335  37.1808357  31.1412411  37.7688370  38.1096306
  32.9008827  38.6845894  39.1412849  33.6067963  39.3955536  38.7119598
  33.3967705  37.7143288  39.1694298  32.5378494  39.2015839  40.5025024
  32.4058952  38.3149834  41.1226845  33.6407700  39.9502296  41.1176071
  34.4307899  39.3615913  41.8366966  33.5441017  41.2195740  40.9476776
  32.7623672  41.5975914  40.4318237  34.4490585  42.1931725  41.5552025
  35.4531898  42.0222626  41.1671219  33.9867783  43.5792046  41.0768280
  33.7975006  43.5977592  40.0035477  33.0358047  43.8341293  41.5445557
  34.8894386  44.7041359  41.4809418  34.2440910  45.5572701  41.2716751
  34.9102287  44.7107506  42.5707245  36.2193527  44.9924240  40.7466583
  37.0841789  44.0544891  40.6501579  36.4246368  46.1670303  40.4222603
  34.5833931  41.9993248  43.0656319  35.7319336  42.1559143  43.5867462
  33.4920692  41.6654320  43.7466278  32.6558914  41.5000038  43.2048340
  33.4087524  41.4806442  45.2008781  34.2628441  41.9551315  45.6840858
  32.1380234  42.2011909  45.6580200  31.3595982  41.6725082  45.1078835
  31.9630680  42.0374489  46.7213554  32.0462837  43.6866913  45.3594666
  32.7995110  44.5174751  45.9576683  31.2358532  44.0908356  44.4977493
  33.3710670  40.0629005  45.7604332  33.5458260  39.8180618  46.9661026
  33.1981583  39.0917053  44.9094543  33.1652794  39.4074249  43.9506340
  33.0077095  37.6410484  45.2798538  32.4784775  37.5322037  46.2265129
  32.0706978  36.9603043  44.2416077  32.4975891  37.2401428  43.2785110
  32.1160011  35.4480629  44.3783875  31.4456921  35.0971527  43.5937538
  33.1310005  35.0509872  44.3641129  31.6744576  35.2460632  45.3542671
  30.6249485  37.5823936  44.3960762  29.9209881  37.1421165  43.6898880
  30.2902508  37.3451233  45.4059181  30.6174202  38.6663704  44.2818832
  34.3571625  36.9695930  45.4468002  35.1717873  36.8668633  44.5199089
  34.5954056  36.4766159  46.6386948  33.7736359  36.3926544  47.2198563
  35.7633781  35.6789474  47.0670700  36.7364578  36.1017876  46.8172150
  35.6225662  35.4049950  48.5462990  34.7411995  34.8254814  48.8209953
  36.8364525  34.5345726  49.1329002  36.6397133  34.3583450  50.1904182
  36.9444313  33.5895081  48.6006470  37.7343521  35.1472549  49.0522957
  35.5924416  36.7427025  49.2980614  35.6733322  36.6332626  50.3795357
  36.3510017  37.4305000  48.9244080  34.5775719  37.1253662  49.1898613
  35.7048531  34.2995224  46.3254776  36.7376022  33.8692169  45.6748619
  34.5888557  33.5746613  46.4695244  33.7894363  33.8654976  47.0139885
  34.4814796  32.2379112  45.9613495  34.9252663  32.1130333  44.9736481
  35.2766190  31.2949715  46.9554520  35.1557808  30.2797756  46.5774574
  36.3325081  31.5654373  46.9486427  34.7237930  31.3679008  48.3639069
  34.4561462  32.4017181  48.5822792  33.8574333  30.7078686  48.4072838
  35.7292976  30.8410568  49.4230537  36.7304230  30.2118893  49.1698494
  35.3572655  31.0170383  50.6795502  35.8698235  30.6094646  51.4484901
  34.4199448  31.3829937  50.7667847  33.0548859  31.5988941  45.8234406
  32.1069183  32.1176834  46.4483604  32.8899956  30.5379200  45.0308762
  33.6361771  30.0634327  44.5428429  31.6223259  29.8368225  44.8626213
  30.9405613  30.2831726  45.5865479  31.1723633  29.9842796  43.3898468
  31.3154964  30.9965305  43.0117455  31.9235878  29.3404713  42.9323807
  29.7692089  29.4355392  43.0114822  29.7521935  29.4092579  41.9219322
  29.6659966  28.4166584  43.3847504  28.3826141  30.4969711  43.6530914
  28.4826546  31.9411488  42.6191025  27.6026573  32.5482826  42.8314514
  29.4022446  32.4480820  42.9114647  28.5293541  31.6092186  41.5819206
  31.8192024  28.3294926  45.3675880  32.5800056  27.4871445  44.8445625
  31.1332855  27.9068890  46.4353409  30.4155922  28.5284805  46.7797852
  30.9883175  26.5048122  46.8876762  31.8028469  25.8391361  46.6021614
  31.0592346  26.4236393  48.4304161  30.1571827  26.8348122  48.8835602
  31.1461639  25.3723946  48.7050591  32.2340469  27.1824856  49.0459023
  32.1083374  28.2366581  48.7988815  32.0758476  27.1536198  50.5522614
  32.7061844  26.3457584  50.9239349  32.4158592  28.1084347  50.9532890
  31.0384750  26.9734211  50.8341942  33.5993843  26.7280025  48.5978432
  33.8281631  25.8015003  49.1244888  33.7418213  26.5961704  47.5252609
  34.3680687  27.4456787  48.8844872  29.6850986  25.9372616  46.3135719
  28.6765594  26.5901356  46.4408607  29.6788635  24.7089672  45.8051987
  30.5185490  24.2168903  45.5352249  28.4562607  24.0131264  45.4641342
  27.5824394  24.6372204  45.6513214  28.3840752  23.7520676  43.9582901
  29.3961906  23.3960514  43.7660027  27.6814098  22.9501820  43.7317085
  28.2062550  25.0100174  43.0869484  28.8048229  25.8164730  43.5105591
  28.7620010  24.7716370  41.6797142  28.2235546  25.2552280  40.8646622
  29.8066959  25.0727139  41.6018295  28.6731796  23.6941967  41.5406494
  26.7581825  25.4569130  42.9574051  26.6664810  26.3610229  42.3555107
  26.1914902  24.6801014  42.4440613  26.2789097  25.6987190  43.9060555
  28.4413147  22.7589264  46.3135719  29.4741230  22.0732250  46.3232574
  27.3504829  22.2849941  46.8425369  26.4888916  22.7928371  46.7016182
  27.1747322  20.9270592  47.4534149  27.9006729  20.2899418  46.9482498
  27.2013531  20.9697132  48.9924736  27.2792130  19.9089985  49.2310753
  28.1064224  21.4547138  49.3581581  26.0836010  21.6278515  49.5553055
  26.1851578  21.5503254  50.5067635  25.8395329  20.2962990  46.8917465
  24.8141212  20.9645271  46.8600502  25.9112530  19.0209351  46.5267868
  26.7559586  18.4936810  46.6958351  24.9516106  18.2393513  45.8107758
  23.9594212  18.6823807  45.8967056  25.3894634  18.1010609  44.2848167
  25.4012871  19.0276451  43.7108803  26.4064026  17.7168827  44.2052040
  24.7411366  17.3520336  43.8301315  24.6942043  16.8010025  46.4458427
  25.5762978  16.1870975  47.0401993  23.4267712  16.3405457  46.3470840
  22.7965488  16.9713631  45.8727570  22.9433727  15.1129484  47.0211029
  23.3277435  15.2662754  48.0294952  21.3721390  15.1458683  47.0072441
  20.8732681  14.2691851  47.4203568  20.9152699  16.2924118  47.9583244
  21.4884109  16.2920799  48.8854752  21.0795021  17.2255840  47.4195099
  19.8763065  16.1649628  48.2623062  20.7986431  15.4480219  45.7886086
  20.7086067  14.6223192  45.3072472  23.6931877  13.8753576  46.4659348
  23.9278011  13.7733631  45.2801361  23.9020386  12.7809324  47.2305984
  23.7271538  12.8738890  48.6315880  22.7505932  13.2269535  48.9629173
  24.6062412  13.4414921  48.9367676  23.8849850  11.4284344  49.1246910
  22.9173889  10.9280310  49.0865173  24.2362537  11.2927170  50.1475754
  24.8528461  10.7129726  48.0791283  24.6915550   9.6380711  47.9974442
  25.8993454  10.8130779  48.3670769  24.5472546  11.4850531  46.7934990
  25.4867687  11.7485685  46.3077240  23.7068539  10.7197304  45.7673798
  24.2457066   9.7344303  45.2212067  22.4751148  11.0738335  45.4429665
  22.0700092  11.7618504  46.0615349  21.5931549  10.5429077  44.3731880
  21.8214626   9.4858446  44.2368279  20.0817146  10.6394701  44.7777176
  19.5188198  10.3554678  43.8885651  20.0045490   9.8338909  45.5079155
  19.7406006  12.0149345  45.3784866  20.2239304  13.0768833  44.9845390
  18.8570824  12.0124855  46.2782593  21.8937302  11.2185020  42.9725075
  21.3771286  10.6930752  41.9207191  22.6763401  12.2329073  42.9146919
  23.2001057  12.5387230  43.7223167  22.9304905  12.9934626  41.6539497
  22.2457962  12.6198359  40.8925743  22.7021770  14.5219173  41.8437042
  23.3222179  14.7924404  42.6983795  22.9791641  14.9859676  40.8971138
  21.2579575  14.8989000  42.1591225  20.9924641  14.5714340  43.1642990
  21.1643906  16.4131756  42.3859253  20.1549206  16.6346378  42.7323647
  21.8760815  16.6800537  43.1671906  21.4827766  17.0103970  41.5314903
  20.1216030  14.4431219  41.1855202  20.0368347  13.3678293  41.0284538
  19.1851635  14.9249735  41.4665947  20.3956852  14.8315058  40.2046356
  24.3318653  12.5723791  41.0685806  25.3020306  12.9986124  41.7107124
  24.3790455  11.8890839  39.9257355  23.5460491  11.7481670  39.3722343
  25.6382427  11.3822813  39.3382301  26.4881382  11.7839146  39.8900223
  25.7989960   9.8995676  39.5413818  25.0551510   9.2175541  39.1294937
  26.6224651   9.5779362  38.9037590  25.9636860   9.3718634  40.9591026
  27.0590916   8.7800217  41.4389648  27.8650608   8.5413074  40.8790283
  26.8103580   8.2821598  42.6690102  27.4547691   7.7125239  43.3221931
  25.5563145   8.5748415  42.9775658  25.1367645   8.3853893  43.8765564
  24.9958954   9.3194284  41.9401741  23.9951191   9.6989927  41.7960320
  25.9979496  11.8252068  37.8637161  27.1998959  11.8919764  37.5155678
  25.0578899  12.1210861  37.0013809  24.1431007  12.2177238  37.4184227
  25.2977867  12.5962095  35.6226692  25.6268215  11.6713276  35.1489296
  23.9372196  12.9519758  35.0160446  23.3029308  12.0823479  35.1878700
  23.5053139  13.8176556  35.5181961  24.0010109  13.2076263  33.9583778
  26.3461056  13.7070665  35.4820023  27.1143074  13.6097698  34.5339203
  26.3948193  14.7154093  36.3249588  25.8521004  14.5856609  37.1668167
  27.1666298  15.9570456  36.0334091  28.0583057  15.6686392  35.4767761
  26.1719894  16.8540516  35.2002068  25.2126656  16.8703423  35.7174416
  26.6010647  18.3329792  35.0464783  26.0085831  18.8644447  34.3017540
  26.5139980  18.8937378  35.9771042  27.6254196  18.2876968  34.6766853
  25.8341846  16.4564686  33.7547112  26.6431580  15.8064241  33.4213905
  24.9992752  15.7561207  33.7779160  25.6423969  17.3628960  33.1805077
  27.5868721  16.8104000  37.2244492  26.8603649  16.8841343  38.2165070
  28.8692131  17.3559456  37.2522736  29.4435673  17.1693001  36.4427147
  29.3218575  18.3722286  38.2012978  29.2549858  17.9179077  39.1898422
  30.7961597  18.7438068  38.0076370  30.8692436  19.2099400  37.0250511
  31.1360359  19.4786072  38.7374687  31.7204189  17.5467396  38.1511078
  32.1529121  17.1153641  39.3854103  31.7197227  17.4771385  40.3062096
  32.8559914  15.9912014  39.5111923  33.0495529  15.5425377  40.4743271
  33.5510674  15.5135193  38.3611145  34.2399101  14.6819878  38.3823814
  33.3147545  16.0229282  37.1059227  33.9400864  15.7025547  36.2857285
  32.4029999  17.0297909  36.9894371  32.2890587  17.5257969  36.0368652
  28.4141121  19.6413231  38.0737152  28.3546085  20.2050591  36.9560394
  27.7359657  20.0556984  39.1209946  27.5599480  19.4626236  40.4184570
  28.4871197  19.1671391  40.9095192  26.9261951  18.5893993  40.2637444
  26.9431286  20.5616055  41.2943230  27.6957169  21.2434292  41.6903381
  26.4294395  20.1591892  42.1674156  26.0334911  21.3492241  40.2892723
  25.8897781  22.3888988  40.5834236  25.0871029  20.8468456  40.0890923
  26.8883839  21.2420673  39.0189781  26.2097092  21.1507397  38.1709442
  27.6999416  22.5449524  38.7130737  27.0993443  23.4075146  38.0218124
  28.9788666  22.6770878  39.1298828  29.2348042  21.8226280  39.6036949
  29.9651966  23.7643566  38.7280312  29.6751709  24.7101517  39.1856956
  31.3915424  23.3806095  39.2179413  32.1447906  24.0426979  38.7909050
  31.3706989  23.3790989  40.3077393  31.5392246  22.3441544  38.9145393
  30.0455952  24.0936298  37.2446938  30.3586445  25.2105255  36.9084091
  29.5576763  23.2410889  36.3117676  29.3150139  22.3041649  36.6005402
  29.4319649  23.6359329  34.8932304  30.4307804  23.8233948  34.4991188
  28.9110451  22.3561153  34.2313080  28.0442848  21.9846745  34.7779846
  28.5205212  22.6122780  33.2464333  29.8891048  21.1645355  34.0671196
  30.7998257  21.6447449  33.7092285  30.1275959  20.6249866  34.9836960
  29.2315655  20.2095509  33.0686646  28.2744713  19.9837265  33.5388489
  28.8950386  20.6973629  32.1538429  29.9785004  18.9333210  32.8433762
  30.2865086  18.5046196  33.7970238  29.3210106  18.2414074  32.3170090
  31.1938992  19.1009102  32.0744438  31.7205238  18.2490387  31.9437447
  30.9196301  19.2389851  31.1122475  31.9216499  19.7477608  32.3428841
  28.7399178  24.9207096  34.6420479  29.0570030  25.6858826  33.7591019
  27.6968880  25.1911011  35.4318695  27.3755760  24.4449654  36.0319824
  26.8540134  26.3618774  35.3986397  26.4115753  26.5671177  34.4238434
  25.6852913  26.2411194  36.3703232  25.1505013  25.3164711  36.1532478
  26.1041126  26.2998753  37.3749313  24.9922104  27.0823879  36.3729668
  27.6054726  27.6643162  35.6212845  27.1423454  28.6910610  35.1399727
  28.8029270  27.6851006  36.2300262  29.1661243  26.7841759  36.5066490
  29.5401497  28.8620930  36.6005707  28.8719769  29.7079525  36.7623253
  30.3130913  28.8876266  37.9192772  31.1818905  28.2394981  37.8042755
  30.7353573  30.3080616  38.3766403  31.5199738  30.2721062  39.1324081
  31.2402935  30.6822834  37.4860802  29.9176350  30.9423866  38.7187881
  29.4793549  28.2063351  39.0131378  29.7293320  28.2839527  40.0712433
  28.5227242  28.7262020  38.9612312  29.3863907  27.1318817  38.8549881
  30.3571949  29.3458672  35.3958664  30.3631134  30.5396156  35.0465508
  30.9910488  28.3836308  34.7490425  30.7504387  27.4465847  35.0391312
  31.7780209  28.5615520  33.4499702  32.6726952  29.1496506  33.6544151
  32.2624550  27.1751194  33.0705872  31.3398666  26.6171570  32.9105606
  32.7836761  27.2580051  32.1168785  33.3615265  26.5979366  34.0051613
  34.1459885  27.2999763  34.2877541  32.8196068  26.2293682  34.8761253
  34.0402107  25.3740177  33.3457489  33.3139648  24.6013298  33.0935135
  34.3995552  25.6994953  32.3695145  35.2236786  24.8343353  34.0453796
  35.6188011  25.3493137  34.8191833  35.8299675  23.7312927  33.6974144
  35.4915009  23.0195026  32.6845741  34.8542557  23.4440403  32.0259476
  35.8998909  22.1022987  32.5747719  36.8467178  23.2870350  34.4729919
  37.3096046  22.4108257  34.2778015  37.1594467  23.7160378  35.3322105
  30.9625454  29.1780014  32.3073158  31.4558487  29.9041309  31.4812279
  29.6686077  28.8506050  32.3628693  29.3014297  28.1673489  33.0097389
  28.6114120  29.4552555  31.5121765  28.9669037  29.4138203  30.4826069
  27.2530022  28.6772938  31.5025578  27.3769321  27.7187996  30.9985447
  26.9949074  28.5633812  32.5554161  26.0356865  29.3928833  30.9066792
  25.1272888  28.7907276  30.9247417  25.8324032  30.3513565  31.3842850
  26.2505341  29.6488514  29.4007092  25.7277374  30.6609764  28.8860950
  26.8213348  28.7998009  28.6931858  28.3117218  30.9355373  31.8025093
  28.2744579  31.7245808  30.8620834  27.9986897  31.2780743  33.0585785
  28.0550117  30.6086979  33.8128090  27.6561394  32.6490479  33.4884834
  26.7477570  32.8812828  32.9325981  27.4049301  32.5940514  35.0288162
  28.2576580  32.1166725  35.5115852  27.2964745  33.5985107  35.4379578
  26.0647411  31.8618793  35.3988342  25.9156971  30.9716854  34.7877350
  26.1314697  31.5308018  36.9114761  26.9940491  30.8911343  37.0982475
  26.2612152  32.4746742  37.4409790  25.2405834  30.9697647  37.1937218
  24.8607273  32.8415146  35.2526970  23.9315853  32.3181725  35.4783363
  25.0541954  33.6766968  35.9258537  24.8066216  33.3389702  34.2843437
  28.7324886  33.7156219  33.1767769  29.9406433  33.6901283  33.5711136
  28.3295879  34.7208023  32.4073524  27.3573532  34.7898636  32.1426086
  29.1915665  35.6987114  31.7932434  29.9052792  35.1776047  31.1551437
  28.4229603  36.6634789  30.8030701  27.8049717  37.3567162  31.3736973
  29.1601086  37.2904739  30.3014870  27.6921959  36.0207710  29.7767105
  26.9211922  35.6520119  30.2139435  30.0097637  36.5164223  32.8105049
  29.4359055  37.0315475  33.7187309  31.3192825  36.4232140  32.7089157
  31.6735649  35.8761826  31.9373322  32.2375450  37.1090889  33.5643311
  33.1636810  37.3632812  33.0488129  31.7835903  38.0576324  33.8512077
  32.5072250  36.3466721  34.8880692  33.4043312  36.7185745  35.6570930
  31.7145596  35.3246880  35.1711922  30.9395428  35.0325966  34.5931511
  31.8221779  34.4947243  36.3299255  32.0736198  35.1209106  37.1859436
  30.4126358  33.9929390  36.7840118  29.8361053  33.4991150  36.0018044
  30.5119801  33.2117310  37.5376358  29.5421181  35.0688248  37.3715286
  28.7316818  35.8016663  36.6349869  28.6489773  35.7185516  35.5613708
  28.1470337  36.7285309  37.4352570  27.5644608  37.4430733  37.0227776
  28.4665947  36.5481567  38.7142830  27.9777927  37.1186371  39.9477882
  27.3717365  38.0112190  39.9967422  28.3795280  36.6111832  41.2305412
  27.9278698  36.9846992  42.1376724  29.2469883  35.4499283  41.2111053
  29.6170845  35.1122704  42.1678810  29.6530037  34.8944855  39.9671593
  30.2962875  34.0273666  39.9934578  29.2530746  35.3972282  38.7271461
  32.8428497  33.3415260  36.2645035  33.2473259  32.8170776  37.2984734
  33.3515587  32.9481087  35.0739021  32.9375687  33.3631248  34.2514229
  34.4555511  32.0137329  35.0541077  34.1610832  31.0245800  35.4047699
  35.0159225  31.9450150  33.6139107  35.6851501  31.1144428  33.3894386
  34.1716805  31.7015934  32.9688454  35.5120544  33.2856827  33.0882874
  34.7124214  34.0193253  33.1905403  36.4375725  33.6315231  33.5486298
  35.7341919  33.2122765  31.5606823  36.0932732  32.2032967  31.0322933
  35.7253189  34.3502083  30.9428387  35.1331711  35.0645599  31.3418026
  35.9056892  34.4102936  29.9508915  35.7419243  32.2913513  35.9657516
  36.4564362  31.4174538  36.4259720  36.0309334  33.5741615  36.1813927
  35.4873314  34.2517014  35.6660919  37.1303558  34.0187607  37.1227875
  37.9875183  33.4309006  36.7944717  37.5093079  35.5323372  36.8904800
  36.6865005  36.0928726  37.3342018  38.4351692  35.8405609  37.3761444
  37.6248741  35.8209152  35.4044533  38.7506905  35.3141479  34.7002754
  39.5895271  34.9095268  35.2471161  38.8458900  35.4521332  33.3207283
  39.6503983  35.0163574  32.7469101  37.7886963  36.1244392  32.6488075
  37.8602180  36.2908707  31.3200741  38.7257233  35.9589653  31.0703926
  36.6702728  36.7331696  33.3056755  35.8270912  37.2028046  32.8210220
  36.6259117  36.5273361  34.6689034  35.7154732  36.7788200  35.1926041
  36.8692474  33.7753258  38.6098137  37.7899246  33.7587852  39.4240112
  35.6394882  33.6133003  39.0575333  34.8937798  33.4151649  38.4057922
  35.3638000  33.3141708  40.5009766  35.9433098  34.0395966  41.0719643
  33.8966331  33.6126785  40.8362732  33.2252884  33.0372353  40.1988907
  33.5530548  33.1370544  42.2649422  32.4903603  33.3122368  42.4325752
  33.6999054  32.0569992  42.2690926  34.1154785  33.6872101  43.0193329
  33.6630974  35.1369820  40.8970757  32.6940994  35.3757057  41.3354263
  34.4493370  35.4939232  41.5623016  33.7366486  35.4581184  39.8580589
  35.8094292  31.8315487  40.7693939  35.3839149  30.9787807  40.0006561
  36.6293678  31.5138550  41.7437172  37.2609940  32.3731194  42.7131920
  36.5449104  33.1049461  43.0870247  38.1303291  32.7987099  42.2119522
  37.9153709  31.4673805  43.7799606  37.2540169  31.2791595  44.6257019
  38.8049316  31.9185772  44.2195168  38.2172661  30.2109013  42.9599533
  38.2856903  29.3475857  43.6218491  39.1227379  30.3639545  42.3727646
  37.0776329  30.1160927  41.9236755  37.4061546  29.7835312  40.9390030
  36.0069046  29.2072983  42.4767723  35.4440918  29.5083771  43.5221977
  35.5024757  28.2018261  41.7588730  36.0168915  27.9647560  40.9226494
  34.3788071  27.2655640  41.9713478  33.7249413  27.6891232  42.7336845
  33.4200974  27.2464428  40.7661209  33.2656212  28.2334023  40.3300591
  34.0859337  26.3580723  39.6055298  35.1424217  26.6034451  39.4971962
  34.0146637  25.2889996  39.8057823  33.5540924  26.6106949  38.6882362
  32.0781555  26.6713142  41.0356674  31.5462189  27.0023060  41.9276237
  31.5312824  26.8644314  40.1127701  32.0892334  25.5866299  41.1425858
  34.8714561  25.9489403  42.5465736  36.0048103  25.6110077  42.3175163
  34.0091095  25.2380447  43.2989197  33.1542397  25.7009735  43.5727654
  34.2429695  23.7939148  43.5678215  34.7919884  23.4029751  42.7111740
  35.2624130  23.5989227  44.6993256  36.2528152  23.9087200  44.3658180
  34.9424477  24.2055759  46.1128502  35.8704605  24.0678005  46.6677437
  34.7820930  25.2630939  45.9029846  34.0389175  23.7501469  46.5182114
  35.3385925  22.1791363  44.9361649  35.1124954  22.1581154  45.8689232
  32.9168472  23.0731659  43.8613930  32.0835991  23.6796093  44.4847450
  32.8558998  21.7492027  43.5735016  33.6286354  21.2625542  43.1420517
  31.7209206  20.9241505  44.0352631  30.7883415  21.4721489  44.1697769
  31.4078388  19.9518967  42.9366875  32.2766724  19.3350258  42.7071190
  30.6043415  19.3153515  43.3072395  30.8572311  20.7305584  41.5120277
  31.9599991  21.4189205  41.2038765  32.2168350  20.0068188  45.2170677
  33.4211197  19.6582680  45.3262939  31.2558823  19.5547638  45.9855309
  30.2914314  19.7288475  45.7413406  31.3795223  18.5635490  47.1236229
  32.1681213  17.8271961  46.9687119  31.7665215  19.1876183  48.4723053
  31.8882999  18.3576508  49.1683121  32.7329178  19.6734314  48.3375282
  30.7663784  20.2136021  49.0399437  30.4017467  20.7251377  48.1491699
  29.8548584  19.6965084  49.3396873  31.3384838  21.4623623  50.2485695
  32.4821777  22.4273281  49.2295036  33.1761742  21.7091789  48.7927780
  31.9295101  22.8882370  48.4108315  32.9514618  23.2422180  49.7807083
  30.1076527  17.7426891  47.2509918  28.9789810  18.2189465  46.8836746
  30.1999817  16.4829369  47.7302475  31.1032085  16.0508347  47.8627930
  28.9899807  15.6958351  48.2150536  28.2043571  15.9266691  47.4956017
  29.2430859  14.1226339  48.1467400  30.0845757  13.8867636  48.7981682
  28.4625530  13.5094032  48.5970917  29.5241432  13.7214966  46.7085457
  28.7565498  14.1861544  46.0896797  30.5221004  14.0775499  46.4527969
  29.2954197  12.2325621  46.5457611  29.8448753  11.3926573  47.2894974
  28.4592228  11.7125053  45.6663437  28.1426926  10.7574368  45.7543907
  27.8822403  12.3266754  45.1095810  28.3412991  16.1997528  49.4913902
  28.9669800  16.7518711  50.3800545  27.0221252  15.9479866  49.5600967
  26.7017822  15.5100393  48.7082253  26.1482449  15.9438057  50.7454605
  26.5991249  16.5644188  51.5198288  24.8272800  16.6249313  50.3629799
  25.1121368  17.6446037  50.1036949  24.2249603  16.1687984  49.5773277
  23.9537601  16.7256966  51.5909882  23.5694237  15.7533875  51.8992157
  24.6211891  17.1008377  52.3668137  22.8011475  17.6886635  51.5625267
  21.5951023  17.3356953  51.4751930  23.0705357  18.8881378  51.8097115
  26.0575714  14.5266590  51.3864326  26.0258846  13.4985933  50.7821770
  25.8815136  14.5198135  52.6856384  25.6914730  15.4458628  53.0411911
  25.6238937  13.3702326  53.5514984  26.3818455  12.6296062  53.2963867
  25.6470623  13.5752974  55.0926208  25.2364445  12.6776886  55.5550003
  26.7142944  13.6998348  55.2759438  24.9545231  14.8387747  55.6602707
  25.2199936  15.5881329  54.9145584  23.8941746  14.5946779  55.5956345
  25.5379467  15.4665117  57.2095375  24.8976250  14.1598921  58.1808929
  23.8517399  14.3451395  57.9361420  25.1003380  13.0992775  58.0322075
  25.0156460  14.4005661  59.2374191  24.3033352  12.8620367  53.1398735
  23.3657837  13.6213017  53.0812073  24.1653633  11.5872650  53.0246964
  24.9595108  11.0757198  53.3821182  22.8234005  10.9362898  53.1608505
  22.0686779  11.4284220  52.5474167  22.7915573   9.4604845  52.7231216
  23.2737827   9.3305788  51.7542648  23.3519936   8.7698441  53.3532257
  21.3145313   8.9154530  52.6748428  20.5028133   9.6205959  52.0386772
  21.0863476   7.7184963  53.1140785  22.2484589  11.0155687  54.6560936
  22.9679909  10.6180735  55.5951157  20.9636593  11.2948608  54.7433243
  20.4250374  11.4589891  53.9048424  20.2478600  11.6021099  56.0493431
  20.7499866  10.9957619  56.8032074  20.4303379  13.0967989  56.4998207
  20.3715649  13.7542334  55.6323967  19.3539658  13.6406708  57.4493675
  18.4891701  13.8721809  56.8275642  19.1677284  12.9459991  58.2684212
  19.5731373  14.6269646  57.8583755  21.6816406  13.3051844  57.2952576
  21.7136574  12.8231258  58.2723427  22.6042824  13.0755463  56.7622490
  21.7575512  14.3565197  57.5727997  18.7767944  11.3112564  55.9862137
  18.0598125  11.6712837  55.0533791  18.2735004  10.5806675  57.0281525
  18.8536167  10.2966738  57.8046265  16.8164635  10.3141651  57.1627922
  16.5503235   9.5891190  56.3936501  16.4476738   9.5366030  58.4432220
  15.3778381   9.3339348  58.4929886  17.1756001   8.2153883  58.4833145
  16.8641586   7.6127586  57.6301193  18.2446785   8.4278469  58.4777222
  16.9210796   7.6899085  59.4037437  16.7375469  10.2493753  59.5982437
  16.2070751  11.0489178  59.6287842  16.0683994  11.6559334  57.0831108
  16.4146214  12.6200809  57.7349777  15.0932188  11.6610661  56.2225342
  14.8433075  10.7866220  55.7832260  14.1367693  12.7887383  55.9906120
  13.2951279  12.5280113  55.3489227  13.7507915  13.2066784  56.9203720
  14.7638712  14.0227203  55.2398415  14.0650959  15.0035257  54.9024391
  16.1355152  14.0772638  55.0805740  16.6470222  13.2146721  55.2005577
  16.8681450  14.9442568  54.1256981  16.7058544  15.9487438  54.5165596
  17.9337826  14.7150974  54.1250877  16.1206303  14.9734144  52.7400475
  15.4256678  14.1098824  52.2912140  16.2647018  16.1329784  52.0612679
  16.8408833  16.8437634  52.4889336  15.7023811  16.3242435  50.7405586
  14.7163000  15.8600311  50.7246742  15.4018641  17.8155231  50.5775604
  14.8607607  18.1757755  51.4525032  16.3367252  18.3716946  50.5081902
  14.6559086  18.2083397  49.2695503  15.1537571  17.9582138  48.3326950
  13.2796497  17.5917015  49.1606140  12.7976360  17.9168930  48.2386513
  13.3026495  16.5126877  49.0079613  12.5722046  17.8288708  49.9552078
  14.4381285  19.7213211  49.3166313  13.9416275  19.9939861  50.2478905
  15.4180679  20.1977634  49.2879562  13.7800531  20.0935326  48.5314560
  16.4806423  15.6197634  49.6527252  17.6683750  15.8952332  49.5124512
  15.8545065  14.7278900  48.8492889  14.8797398  14.6013498  49.0814857
  16.5399170  14.0726147  47.6929436  17.6088905  13.9016552  47.8200951
  15.8062496  12.8428907  47.2309265  14.7472773  13.0462904  47.0718498
  16.1780128  12.3775978  46.3180199  15.9934416  11.7559929  48.3113899
  17.0613365  11.6064835  48.4706001  15.5853987  12.1066179  49.2593689
  15.3453712  10.4020052  48.0261154  15.4157066   9.8736362  48.9768944
  14.2906094  10.5701504  47.8086128  15.9633198   9.6545324  46.8448334
  15.4088430   8.7619610  46.5550537  15.8645124  10.4281778  46.0833817
  17.4316673   9.3740664  47.0646172  17.8832512   8.7552757  46.4063873
  17.8965855  10.2706985  47.0628090  17.6509323   8.9450293  47.9522858
  16.6897430  15.0302219  46.4999809  15.9449482  16.0194969  46.4093666
  17.6126461  14.6589336  45.5844803  18.0541306  13.7642126  45.7415314
  17.8456192  15.3325891  44.3058815  18.7958622  14.9304838  43.9545250
  16.6607037  14.9913378  43.3767242  15.7075062  15.4299746  43.6718712
  16.8382664  15.4437971  42.4010925  16.4141922  13.5438995  43.2107315
  17.4039631  13.0960722  43.1218338  16.0426884  13.1075497  44.1379242
  15.4532261  13.3474770  41.9637909  14.5555401  13.9627495  42.0246506
  16.0041046  13.5463600  41.0445099  14.9582109  11.8642359  42.1416817
  15.8177910  11.2082539  42.2792053  14.3540573  11.7445450  43.0410004
  14.1816893  11.5692759  40.9629555  14.7130995  11.6382132  40.1068268
  13.8615236  10.6209860  41.0983963  13.3321619  12.1131582  40.9120102
  18.0816936  16.8866043  44.4357109  17.6801243  17.6114311  43.5635605
  18.7251301  17.4486752  45.4595490  19.2052994  16.7504025  46.0090485
  18.9674377  18.8335743  45.6217842  18.2943974  19.5059776  45.0898170
  18.6792011  19.0912228  47.1028023  17.6453934  18.8546829  47.3545761
  19.3212376  18.4963741  47.7524529  18.9262028  20.8817635  47.6041489
  18.1977787  21.4071636  46.6150856  20.3761120  19.3611546  45.2928619
  21.4095573  18.6416588  45.4060669  20.5649357  20.5351887  44.7200050
  19.7655430  21.0894299  44.4481812  21.8562851  21.2681942  44.6466064
  22.7132645  20.7181282  45.0353394  22.2171288  21.5348244  43.1471367
  21.5313492  22.2567883  42.7037697  23.6223011  22.2117214  43.1248322
  23.6372776  23.1539059  43.6727028  24.3265190  21.5043831  43.5628433
  23.9302559  22.4769611  42.1134415  22.4036598  20.2594509  42.3419876
  23.1895752  20.3065510  41.5881920  22.5795307  19.3928394  42.9792900
  21.1689453  20.0107632  41.4208488  21.5202141  19.2425213  40.7319984
  20.2434006  19.7815056  41.9489632  20.8830090  20.8615189  40.8023338
  21.7095604  22.5587177  45.4666367  20.7211571  23.3041840  45.3379021
  22.7494984  23.0082645  46.2290039  23.6021271  22.4848633  46.0905304
  22.9040737  24.2319851  47.0455284  22.0688877  24.9079323  46.8620453
  23.0850792  23.8266792  48.5729027  24.1236382  23.5825596  48.7962837
  22.9397373  24.7330761  49.1606255  22.2767563  22.6107960  49.0122871
  21.2158756  22.7623672  48.8131256  22.6115265  21.7356167  48.4554291
  22.3957634  22.4323692  50.5139465  23.4821091  22.4204102  50.6023369
  21.9373589  23.2926292  51.0017204  21.8233929  21.1382484  50.9755096
  22.4111862  20.3438816  51.1842690  20.5949688  20.9736576  51.4020424
  19.6884441  21.9080791  51.6490402  18.7698898  21.6601295  51.9879799
  20.0965176  22.8236599  51.7726784  20.0966892  19.7637463  51.5639153
  19.1211700  19.7056160  51.8190422  20.6788254  18.9482441  51.4367447
  24.1595917  25.0803432  46.7172928  25.1417294  24.5829811  46.1410751
  24.1383018  26.4071503  47.0474510  23.3317680  26.7774010  47.5296516
  25.3206329  27.3220692  46.9032745  26.1679440  26.7811852  46.4818344
  24.8797951  28.4423161  45.8995667  23.8112450  28.5964298  46.0497360
  25.6300468  29.7936401  45.9816170  25.5911808  30.1652088  47.0055923
  26.6986027  29.6465530  45.8246193  25.2532501  30.4703808  45.2147102
  24.9323406  27.9996185  44.4374733  24.4009876  28.7659245  43.8730774
  25.9474049  27.8264408  44.0800400  24.3627071  27.1054478  44.1843376
  25.8405609  27.9004345  48.2342110  24.9151096  28.3323116  48.9918938
  27.1345863  28.0269108  48.5040207  27.8133202  27.7466106  47.8105850
  27.5733109  29.0258770  49.4860229  26.7624073  29.7215519  49.7018242
  27.9203396  28.3898106  50.8423920  27.1300468  27.6938457  51.1237640
  28.8318310  27.8133202  50.6844406  27.9748249  29.3730526  52.0690308
  28.8445473  30.0254879  51.9915161  27.0463982  29.9436455  52.0924416
  28.0216827  28.4998283  53.7345047  29.6593266  27.6887875  53.5131226
  30.3569584  28.4825268  53.2459488  29.9435520  27.0660515  54.3613663
  29.6779613  27.0949364  52.5992889  28.6294842  29.9751301  48.9895744
  29.8071823  29.6551800  48.9317207  28.1992493  31.1587200  48.5568771
  27.2496948  31.4396172  48.7557297  28.9879093  32.2144966  47.9525681
  29.7289391  31.7536259  47.2994385  28.1144714  32.9132996  46.8737831
  27.9296036  32.0449295  46.2414436  27.1454601  33.3309898  47.1470070
  28.7589970  33.9919624  46.0373917  28.9147129  34.8920021  46.6321869
  29.7463264  33.6215286  45.7616043  27.8990993  34.7322693  44.6199074
  26.4041042  35.3199883  45.3287621  26.6027241  35.7127151  46.3259659
  26.0078983  36.1516685  44.7461586  25.7315521  34.4623222  45.3148651
  29.5352974  33.1801796  48.9789276  28.7596321  33.9749908  49.5198517
  30.8074741  33.1380005  49.2102242  31.3188953  32.6091576  48.5182190
  31.5050049  34.1782684  50.0489807  30.8336887  34.5200653  50.8367729
  32.7386055  33.5337715  50.6514626  33.3708992  33.4651871  49.7662506
  33.4108276  34.3583908  51.8139000  33.7304878  35.2792320  51.3260765
  32.6221123  34.5152702  52.5497131  34.3402443  33.8980484  52.1491127
  32.6523552  32.2432404  51.1491203  32.3868637  32.2488251  52.0716629
  31.8758125  35.3937607  49.2092361  32.3313141  35.2908783  48.0705948
  31.7590656  36.6081772  49.7992516  31.5032082  36.6682434  50.7744598
  31.6908512  37.9025574  49.1753883  32.3530388  38.0728569  48.3264999
  30.2411957  38.0139122  48.5864792  30.3121967  37.2209320  47.8419991
  29.0132275  37.8646889  49.4663506  29.0653172  36.9415169  50.0435333
  28.9088306  38.7381096  50.1100426  28.1271820  37.7128754  48.8499260
  30.0086308  39.2455826  47.8203773  29.0238247  39.2223129  47.3537674
  29.9637871  40.1203880  48.4690742  30.7622261  39.4423180  47.0578232
  31.8626213  39.0352440  50.1563263  31.3974152  38.9319801  51.2890015
  32.5299377  40.1046028  49.6761246  32.8056526  40.1387825  48.7050858
  32.4465027  41.3996658  50.3635178  32.7039223  41.2493591  51.4119682
  33.3577576  42.3597603  49.6233521  34.3817787  42.0081978  49.7494011
  33.0941162  42.3575134  48.5657158  33.5144958  43.7006187  50.2837105
  32.5415306  44.1919594  50.2786140  34.0160904  43.5105972  51.2326050
  34.5544815  44.5450783  49.5250092  35.5077858  45.0502090  50.1228676
  34.4762955  44.7721138  48.2287483  35.1106491  45.4713135  47.8698311
  33.6037788  44.5894623  47.7539330  31.0289650  42.0249672  50.3216782
  30.5220299  42.2713547  49.2380905  30.4281731  42.4680328  51.4394760
  30.8205585  42.2258530  52.3380775  29.0728283  42.9811668  51.5240822
  28.8552532  43.6021004  50.6550560  28.0230503  41.8717422  51.6156464
  27.8478870  41.3339081  50.6838989  28.2561226  40.9025803  52.7815132
  27.9111805  41.3467674  53.7152214  27.7602444  39.9748039  52.4961243
  29.3018322  40.6952515  53.0086784  26.7607212  42.5465584  51.8438797
  26.2601204  42.7638664  51.0540848  28.9975777  44.0209236  52.6895027
  29.3922787  43.7823753  53.8691330  28.4076271  45.1944962  52.3869705
  28.2550373  45.3674507  51.4036598  28.1768208  46.1878777  53.4903641
  29.0161304  46.1190109  54.1824036  28.2137051  47.6444244  52.8978157
  29.1637154  47.6184006  52.3640518  27.3238850  47.7875671  52.2847633
  28.3952427  48.6920319  53.9741440  29.3740749  48.6620750  54.7392082
  27.4842834  49.5399933  54.1962204  26.8150215  46.0304909  54.1567116
  26.5079803  46.8017120  55.0613556  25.9709797  45.1003380  53.7025185
  26.3458462  44.4028854  53.0755157  24.5595531  44.8483849  54.1849136
  24.0729828  45.8195419  54.2755165  23.8682251  44.1322060  53.0656166
  24.5057850  43.3188286  52.7191429  22.4962006  43.5950775  53.2902336
  22.5990562  43.0032959  54.1998100  21.7479839  44.3696060  53.4586792
  22.1201591  42.9811287  52.4718437  23.6502304  45.1380882  51.8395233
  24.6592731  45.4786835  51.6072731  23.2336025  44.5682259  51.0089951
  23.0428619  45.9937401  52.1345863  24.4991531  44.0138969  55.4641113
  25.2369747  43.0272827  55.4649010  23.8134823  44.4949875  56.5741234
  22.9658718  45.6658745  56.6704903  21.9980431  45.5101013  56.1938934
  23.3284760  46.4524307  56.0087128  22.9117470  46.0193825  58.0701561
  21.9824181  46.4998245  58.3761406  23.8336487  46.5007629  58.3964539
  22.9185257  44.6135712  58.7225533  21.9090557  44.2056618  58.6707611
  23.1760426  44.7608833  59.7714005  23.8608780  43.7882843  57.8370361
  24.8703804  43.7371635  58.2449455  23.3489285  42.2763252  57.7468948
  22.5132999  42.0075188  56.8622513  23.6865730  41.4096375  58.7164383
  24.2251148  41.7451172  59.5022659  23.5986233  39.9750481  58.6724319
  24.1560383  39.6193924  57.8058891  24.1493778  39.5272369  60.0273056
  24.8742733  40.1486778  60.5530815  23.2883186  39.2725410  60.6452179
  24.9754887  38.2519150  59.7679214  24.3403492  37.5017281  59.2968369
  25.8733177  38.4818916  59.1942329  25.5545406  37.6893120  61.0690269
  24.9785080  37.8201141  62.1458817  26.6519146  36.9990997  61.0352287
  27.0754604  36.5558472  61.8378716  27.0779648  36.8541451  60.1310349
  22.1287251  39.5389137  58.4019661  21.7977314  38.6354523  57.5979347
  21.1561584  40.1493416  59.1415939  21.4252625  40.8569984  59.8101006
  19.6835003  39.9742279  59.0391312  19.4269867  38.9513855  59.3149796
  18.9340515  40.9106979  59.9041176  19.2508812  40.9034615  60.9470329
  19.1004982  41.9022827  59.4832115  17.4044628  40.7717285  59.9615707
  16.8090706  39.8323708  59.4086876  16.8211880  41.6977043  60.5824280
  19.1887455  40.1723938  57.6235695  18.4734974  39.3605881  57.0701408
  19.7123528  41.1788101  56.9056091  20.4678040  41.7097092  57.3149300
  19.1209774  41.8655586  55.7671432  18.0393562  41.7823906  55.8733635
  19.5169849  43.3083725  55.8755264  20.5998898  43.4043884  55.7968140
  19.0801945  43.8031235  55.0080376  18.8435898  43.9184265  57.0982590
  17.8643436  43.4579773  57.2292595  19.4829159  43.7664413  57.9678955
  18.7057285  45.4291000  56.8802986  19.6007423  46.2259102  56.9260368
  17.4932175  45.7753601  56.5601997  16.7258015  45.1228218  56.4869347
  17.3128605  46.7690811  56.5505753  19.4729614  41.2199669  54.3227196
  18.8779163  41.5381126  53.2605629  20.3123207  40.2078133  54.3018456
  20.7566509  40.0775795  55.1994591  20.7386036  39.4475670  53.0972366
  20.9498444  40.1283150  52.2725792  22.0610886  38.7040596  53.4298058
  21.9863510  38.4040298  54.4750328  22.3177242  37.4358330  52.6536331
  23.3405285  37.1054802  52.8348389  21.7292404  36.6272926  53.0872803
  22.1531410  37.5404587  51.5812225  23.2741623  39.6740189  53.5476532
  23.5877018  40.0181084  52.5620575  22.9687519  40.5700989  54.0879021
  24.5761890  39.2274628  54.2142372  25.2693768  40.0343742  53.9765472
  24.4262867  39.2144852  55.2938042  24.9202614  38.2906456  53.7759590
  19.5643234  38.4954720  52.6395798  18.7295723  38.0859032  53.4830627
  19.4792271  38.2108688  51.3466988  20.1973553  38.6083832  50.7581635
  18.4110432  37.4456787  50.7191200  17.7021065  37.1975899  51.5090294
  17.7554855  38.2306938  49.5572929  18.4615517  38.3045959  48.7301826
  16.8853378  37.6798134  49.2002525  17.2321148  39.6095734  49.9473686
  18.1228123  40.2340889  50.0161896  16.5600262  39.9407578  49.1557159
  16.3767166  39.6714973  51.2259712  16.8908291  39.5788841  52.1826363
  16.0131092  40.6977921  51.2771912  15.2102280  38.7628784  51.0684967
  14.6048985  38.9620323  50.2849045  14.8404808  37.7691383  51.8696060
  15.3325491  37.4691467  52.9815598  14.9431028  36.6843719  53.4841194
  16.0121403  38.0708313  53.4245415  13.7982979  37.1089516  51.4666901
  13.4649973  36.3824844  52.0841560  13.4048195  37.4025116  50.5840225
  18.8027534  36.0712471  50.2197456  19.1329632  35.9334373  49.0061111
  18.9507084  35.0968361  51.0988884  18.5591545  35.2052345  52.0235710
  19.2299137  33.7405128  50.6602821  20.0072937  33.6912880  49.8978157
  19.7032757  32.8887672  51.8600845  18.8675785  32.6775169  52.5272217
  20.0040436  31.9196243  51.4620819  20.7832317  33.4536781  52.7884140
  22.1623783  33.6727715  52.5407791  22.7106495  34.1649551  53.6630936
  23.6492405  34.6984406  53.6920166  21.7361679  34.4412727  54.5595398
  21.8167667  34.8561707  55.4768524  20.5564804  34.0484047  54.0381012
  19.5838814  34.0420341  54.5075912  17.9168148  33.1352310  50.0835457
  16.8999748  33.0843315  50.8212242  17.8535137  32.7815170  48.7997856
  18.6904335  32.7296829  48.2367706  16.6472092  32.4260635  47.9662514
  15.8008709  32.5437584  48.6429787  16.3786983  33.4917870  46.8759613
  16.1342449  34.4716034  47.2862091  17.6271305  33.6587715  45.9443283
  18.6261177  33.6648178  46.3803253  17.5787792  32.8932457  45.1699066
  17.5657330  34.6402092  45.4741058  15.1286192  33.1449661  46.0702019
  14.3245678  32.9229202  46.7718353  14.8864365  33.8831825  45.3056831
  15.4093361  32.2986755  45.4432335  16.6801491  31.0405865  47.5058136
  17.7443600  30.4427757  47.2863884  15.4799194  30.3598633  47.5266991
  14.7016697  30.7591171  48.0316963  15.4040527  28.9077930  47.2345505
  16.3641109  28.5578651  46.8551483  15.1665993  28.1220150  48.5491982
  14.3118114  28.6101093  49.0173874  14.9454441  27.0798054  48.3189926
  16.2027225  28.0945301  49.6075478  16.6954536  29.2408848  50.2097397
  16.4106407  30.2514286  49.9565964  17.7037106  29.1034069  51.2145157
  18.0924530  29.9755974  51.7190590  18.0590153  27.8622646  51.7076187
  18.9142952  27.7552109  52.7831039  18.7824383  26.9191704  53.2361488
  17.4792671  26.6841125  51.1379814  17.7048283  25.7268124  51.5841827
  16.5865231  26.7853794  50.0688019  16.0648537  25.9027462  49.7293625
  14.3543653  28.7315788  46.1762428  13.4846449  29.5765514  46.0427666
  14.4102907  27.6108055  45.4425926  15.1607342  27.0040913  45.7406425
  13.5677671  27.3703613  44.3090210  12.6257143  27.8907948  44.4816055
  14.2793427  27.7849255  43.0058403  15.2528830  27.2952347  42.9829636
  13.7519207  27.3759232  42.1440773  14.4332314  29.3447685  42.8958168
  13.5486622  29.8195438  43.3203506  15.7702684  29.8614941  43.5011749
  16.2246609  29.1637897  44.2046165  16.3997078  29.8863029  42.6116295
  15.5270205  30.8471622  43.8978958  14.3596745  29.7985935  41.4669266
  14.3673592  30.8871574  41.5223083  15.1217937  29.2993736  40.8685493
  13.3359318  29.5357399  41.2005424  13.1440001  25.8718853  44.2011986
  13.7796392  24.9789104  44.7886620  12.0150137  25.6602726  43.5213470
  11.5528059  26.4826164  43.1604958  11.4376774  24.2813225  43.3356171
  10.5039215  24.4654922  42.8043137  12.4363518  23.4192963  42.4124870
  13.2357273  23.0663471  43.0640450  11.9982834  22.4836483  42.0649796
  13.0406961  24.1275444  41.1618080  13.3679552  25.1331005  41.4261322
  13.8523254  23.5159492  40.7677116  11.9135122  24.4470005  40.1429825
  12.3558645  25.0336514  39.1235085  10.6974363  24.1926460  40.2378845
  11.0072060  23.6522408  44.7098923  10.6273251  24.2979374  45.6855164
  11.1048956  22.3270741  44.8535461  11.3818331  21.8159809  44.0275955
  10.7432709  21.5684395  46.0651703   9.7481966  21.9414177  46.3076859
  10.6721344  20.0403099  45.7953606  11.6789494  19.7236862  45.5230103
  10.3734903  19.6083088  46.7504997   9.6485167  19.5173969  44.8320580
   8.6521425  19.6595173  45.2505531   9.7211428  20.0397606  43.8781395
   9.9293890  18.0312901  44.5676575  10.8578234  17.8708057  44.0196114
   9.9518414  17.5462933  45.5435562   8.7739420  17.6102638  43.6943779
   7.9183021  17.5715618  44.3685303   8.5716438  18.4537582  43.0343056
   8.9505157  16.3071480  43.0120010   9.2346258  15.5752811  43.6474190
   8.0687380  15.9698000  42.6531677   9.6572161  16.4246731  42.3000603
  11.5398035  21.9186668  47.2815857  11.0848875  21.7706032  48.4014130
  12.7257118  22.5868530  47.0860901  13.0805740  22.7178249  46.1495972
  13.5363665  23.3157520  48.1448021  13.4852190  22.6378613  48.9968300
  15.0041227  23.4402580  47.7072487  15.5678864  23.8557892  48.5424728
  15.5271692  22.5249481  47.4302483  15.0382557  24.1061211  46.8449478
  13.0306358  24.6253757  48.7831078  13.5579329  24.9599400  49.8532982
  12.0633259  25.3497486  48.1264305  11.6984606  24.9782887  47.2609901
  11.6278734  26.7084293  48.5452881  12.4729729  27.3966312  48.5283966
  10.4947491  27.1972523  47.6299171  10.8215656  26.9675255  46.6157608
   9.1276474  26.5723152  47.9575729   8.3202381  26.9025440  47.3040161
   9.1477261  25.4825783  47.9446144   8.7787371  26.8236008  48.9591827
  10.4973097  28.7039642  47.5855942   9.8647118  29.0238934  48.4135857
  11.4730730  29.1856461  47.6486015  10.0240326  28.9536476  46.6359787
  11.1696463  26.7791710  50.0721283  11.1400576  27.8511600  50.6038513
  10.7417984  25.6842518  50.6411667  10.7041531  24.8539143  50.0673866
  10.4305458  25.4603138  52.1260872   9.9180117  26.3795700  52.4095879
   9.4409676  24.3183308  52.2795029   9.4895248  24.0221977  53.3273811
   7.9488187  24.7180710  52.1682129   7.6758471  25.3746052  52.9943771
   7.9690361  25.3697300  51.2946930   7.3041892  23.8401108  52.1265411
   9.6666269  23.0674229  51.4371834   9.1386576  22.2176743  51.8699379
   9.1611137  23.2331543  50.4858208  10.6875257  22.7514229  51.2226944
  11.6240292  25.2883091  53.0425034  11.5339680  25.3515205  54.2423668
  12.8790131  25.1931820  52.5732880  13.0262537  25.1261578  51.5763283
  14.1626844  25.1971283  53.3047485  14.0710068  24.7177639  54.2793846
  15.1573706  24.4051285  52.4941406  15.5164385  24.9565582  51.6251793
  16.0294514  24.3868542  53.1477776  14.8108988  22.9780102  51.9828682
  14.0204535  22.9024563  51.2361488  16.0379257  22.3954983  51.3458214
  16.3641014  22.9359226  50.4571991  16.9092484  22.4624157  51.9972992
  15.8325100  21.3806210  51.0053406  14.6000090  22.0471592  53.2033768
  13.6002321  22.2890701  53.5639610  14.6480303  21.0178928  52.8478241
  15.3211250  22.3150444  53.9755974  14.6668301  26.6454906  53.6526337
  15.6676102  26.7949142  54.3792000  14.0817423  27.7053318  53.0285378
  13.2180147  27.4637833  52.5640717  14.4690657  29.1346283  53.1905098
  15.4392633  29.2386150  52.7047081  13.4729662  30.0770931  52.3743820
  13.9069500  31.0768776  52.3604774  13.3939905  29.7385979  51.3412895
  12.0320492  30.1046238  52.9212074  11.5394993  29.1890621  52.5937309
  11.9497852  30.0612297  54.0072327  11.2664671  31.3429222  52.2481956
  11.7587891  32.2646217  52.5583458  11.2807026  31.3305531  51.1583595
   9.8626060  31.3646412  52.6453857   9.5151815  32.0944290  53.2510338
   8.9181538  30.6118183  52.1234665   9.0571165  29.6881084  51.1874542
   9.9582872  29.5667210  50.7478409   8.2144108  29.2046127  50.9114532
   7.6579127  30.7982082  52.4930191   6.9617352  30.1778412  52.1049690
   7.3605776  31.4359474  53.2175713  14.5408907  29.4935093  54.7391701
  13.7253733  29.0085201  55.5526199  15.5819836  30.3890266  55.0500221
  16.8555927  30.4501495  54.3704109  16.7628937  30.8915615  53.3781090
  17.3029728  29.4728317  54.1893005  17.9033451  31.2308598  55.2309456
  18.3778973  31.9035282  54.5165062  18.5289574  30.4819984  55.7166557
  16.9767532  31.9070168  56.2790642  16.6135750  32.8959045  55.9992371
  17.4798031  32.0613518  57.2336464  15.7535601  30.9942875  56.4147301
  16.0158215  30.1882668  57.1000443  14.5481043  31.8290386  57.0057411
  14.2187881  31.8412590  58.1534958  13.8139067  32.5441628  56.0897026
  14.1364050  32.6085129  55.1347389  12.7697983  33.4611130  56.5005875
  13.1310472  34.2633362  57.1440468  12.1582651  34.0611534  55.2228622
  11.8433847  33.2167740  54.6096954  11.3368807  34.7203484  55.5037346
  13.1318884  34.8897400  54.4401703  13.9195719  35.7136574  54.9533806
  13.1182833  34.6839981  53.1739349  11.6000671  32.8492928  57.2771378
  11.0811014  33.4145851  58.2478027  11.3632479  31.5718803  57.0336838
  11.8231230  31.1877880  56.2206116  10.5339174  30.6695042  57.8202934
   9.7087488  31.2719784  58.2000618   9.8620949  29.5354710  56.9632874
  10.6322870  28.9421196  56.4705048   9.3841114  28.8623409  57.6749954
   8.7993526  29.9556732  55.9390335   9.2713308  30.5083542  55.1267052
   8.1011858  28.7774773  55.3163757   7.5771356  28.2959137  56.1419449
   7.4765821  29.1022186  54.4841995   8.9087238  28.2179089  54.8442879
   7.7147312  30.8747311  56.5073204   6.8847075  30.9358292  55.8034554
   7.2966132  30.5021877  57.4424629   8.0497475  31.8999367  56.6648865
  11.2894621  29.9862556  59.0133018  10.5999508  29.6787663  59.9770546
  12.6062298  29.8735790  59.0867882  13.0831747  30.1794014  58.2506714
  13.3903532  29.3808537  60.3070679  12.8811655  28.5469513  60.7902184
  14.7599373  29.0343513  59.8406792  14.5962286  28.4207668  58.9547844
  15.2401266  29.9767246  59.5771408  15.5555029  28.3956432  60.8220749
  15.7525883  29.1037464  61.4396057  13.3181047  30.4412136  61.3507042
  13.1078825  30.1536255  62.5353622  13.4434938  31.7251453  60.9063530
  13.7144413  31.8224621  59.9382515  13.1860027  32.9320259  61.6731758
  13.7802954  32.9243355  62.5868874  13.8193007  33.9742546  60.7899132
  13.6957378  33.7121429  59.7391396  13.2861977  34.8745232  61.0955582
  15.3284340  34.0597878  60.9320755  15.8338623  33.0970840  60.8556442
  15.9058886  35.0161057  59.8233757  15.2792778  35.9077339  59.8019409
  16.9635677  35.2599640  59.9231033  15.8328533  34.4638329  58.8864822
  15.6885290  34.5899963  62.3404274  15.5550470  33.8591347  63.1380005
  16.7711716  34.7153130  62.3571930  15.1227493  35.5041466  62.5202332
  11.6658592  33.1507988  62.0824738  11.3740959  33.6120605  63.1762123
  10.7563190  32.5605850  61.2651672  11.2257729  32.1337967  60.4793167
   9.3560858  32.3892899  61.7030258   8.9768410  33.3532982  62.0421066
   8.3996630  32.1231079  60.4741592   8.5960484  31.1938076  59.9394341
   6.8802295  31.9667282  60.7550964   6.4652171  32.0789490  59.7534599
   6.6323228  30.9779205  61.1409760   6.5256371  32.8093338  61.3487129
   8.5280485  33.1688347  59.5232925   9.4262753  33.1888466  59.1850777
   9.2544727  31.3543053  62.8071671   8.7265377  31.6638718  63.8996887
   9.8921757  30.1425800  62.6601868  10.3824244  29.8815231  61.8166199
   9.8376389  29.0958042  63.6665001   8.8187609  28.8299007  63.9480743
  10.4568729  27.8786545  63.0329247   9.9489965  27.7543907  62.0765114
  11.5012836  28.1225147  62.8383751  10.3674927  26.5968018  63.8475609
  11.1567326  25.8746510  63.6385117  10.5781107  26.9450417  64.8587341
   9.0483446  25.9329128  63.8714905   8.2653732  26.6081867  64.2165451
   8.7832584  25.5848885  62.8731384   9.1057844  24.6267319  64.7252579
   8.3136883  23.9334984  64.4422150   9.9969130  24.0736179  64.4285126
   9.2591810  24.9213600  66.1758804   9.3846951  24.1026516  66.7538605
  10.0829573  25.4657879  66.3882370   8.5522079  25.4839859  66.6272507
  10.5323381  29.6467724  64.9907379  10.2648735  29.1275597  66.0783615
  11.4398031  30.6819324  64.8625870  11.8056011  30.9272175  63.9536705
  12.1858253  31.3292236  66.0275650  12.3502188  30.5074215  66.7245026
  13.5252056  31.9770164  65.5701981  13.3248596  32.8329849  64.9257736
  14.0533600  32.2888145  66.4712677  14.5039454  31.0425587  64.9474640
  15.3173199  31.4576721  64.1362915  14.7013054  29.8750782  65.4819031
  14.2212353  29.5438251  66.3064728  15.3828325  29.2855778  65.0257111
  11.3287821  32.3062210  66.8662186  11.5675097  32.6220703  68.0509186
  10.2453918  32.8047829  66.2689133   9.9243765  32.4608955  65.3751602
   9.2961054  33.6275635  66.9560928   9.9218674  34.2942810  67.5493927
   8.2248631  34.4159584  66.1040115   7.6013889  35.0364342  66.7477493
   8.8556633  35.1876297  64.9331741   9.0989151  34.4940414  64.1282806
   8.1653891  35.8788605  64.4496231   9.7231712  35.7012825  65.3475418
   7.3040113  33.6233368  65.4099503   7.8555779  32.9112282  65.0778809
   8.4699116  32.7883453  67.9237747   7.5889802  33.3196259  68.6249466
   8.6692200  31.4405041  68.0132675   9.2834663  31.0353279  67.3214340
   7.8507328  30.5823879  68.9313049   6.7721038  30.7236767  68.8627701
   8.0144339  29.1195068  68.5164871   9.0793467  28.9213791  68.3947983
   7.6881437  28.5331974  69.3754807   7.2940397  28.7030392  67.1757584
   6.2626572  29.0522575  67.2247162   7.7296290  29.1479454  66.2810898
   7.1738181  27.1938496  67.0352859   6.4060564  26.7025089  66.0963974
   7.6349115  26.3901043  67.8869858   8.3298740  30.8230610  70.3707962
   9.4230700  30.4826946  70.7221680   7.3909149  31.4002800  71.1271515
   6.5543084  31.7963085  70.7229767   7.6958194  31.8438816  72.5345459
   8.6240110  31.3745270  72.8605270   7.9181204  33.3654518  72.5228958
   8.7658043  33.6363182  71.8934860   7.0346866  33.7883568  72.0445633
   8.1144485  33.9590187  73.9101715   7.2544370  33.7622337  74.5503006
   9.4650154  33.4477425  74.4464188   9.4601011  32.3720551  74.6224442
  10.2520771  33.7151260  73.7413330   9.5903063  34.0178452  75.3669510
   8.2512722  35.4615860  73.6748581   7.3647518  35.9472046  73.2669830
   8.5288048  35.8567886  74.6520386   9.0104065  35.6400681  72.9133072
   6.5788679  31.3438816  73.4671555   6.7907810  30.5867310  74.4282913
   5.4790854  31.9033356  73.2493134  37.5840111  20.4793530  37.1334229
  37.0910110  20.0671692  36.2555962  38.5588303  20.9493999  37.0224915
  36.9129295  20.6418209  38.2985687  37.6540260  21.2945080  39.4591866
  37.1686897  21.3128910  40.5989113  38.8629608  21.6377525  39.4157677
  35.5750237  20.2019577  38.4769135  34.4701958  20.8516560  37.6758881
  33.5590248  20.7138824  38.2708473  34.4420586  20.2458115  36.2788773
  34.8216629  19.2394428  36.1156273  33.8718262  20.9228954  35.2784424
  33.4238701  22.3096275  35.4873047  32.7921333  22.7788868  34.7355728
  33.7476997  23.0033684  36.6084404  33.2972832  23.9634304  36.8512039
  34.7434692  22.4171753  37.6083527  35.7529144  22.5384903  37.1966515
  34.4076004  23.0111885  38.9083519  34.4173050  22.2930584  39.5647964
  33.6867676  20.2640190  33.9242363  34.2803268  19.2081680  33.5801926
  33.0423164  20.8477001  33.0547371  42.5735283  15.5677519  61.1432381
  43.2942848  14.7947655  60.8853035  42.9057541  16.3893623  61.7741928
  41.2733879  15.4987946  60.6595764  40.3628159  16.6628723  61.1347237
  40.9141121  17.6801224  61.5464363  39.2057190  16.6982231  60.7539406
  40.7375641  14.5185261  59.9003792  41.0687370  14.5191956  58.4825401
  40.5714149  13.6566505  58.0222397  42.5850143  14.3783636  58.2527695
  43.0393181  13.4255981  58.5161591  43.4119720  15.4320745  57.8957481
  42.7804413  16.7014923  57.6488495  43.3919449  17.5955734  57.5435410
  41.4249916  16.8433952  57.6099510  40.9885559  17.8301105  57.4705124
  40.4261703  15.7577505  57.8927498  39.5066147  16.0591526  58.4092407
  39.8793297  15.4459848  56.6040115  39.0915413  15.9953365  56.4480171
  44.9591026  15.3483763  57.9461937  45.5054359  14.4487276  58.5809021
  45.6257401  16.2613926  57.5622139  17.5015106  23.4161110  55.5576019
  17.0778790  24.4139080  55.6495895  16.9497299  22.7792130  56.2456589
  18.6807060  23.2054749  54.9362946  19.3643036  24.3281212  54.1652336
  19.1006451  25.5383434  54.2903061  20.2062130  23.9831791  53.4029236
  19.3316326  21.9885578  54.9476433  19.5253716  21.2919674  56.2156754
  20.4148884  20.6663113  56.0724831  18.2481213  20.5092697  56.5355377
  17.5444679  20.3511143  55.7210541  17.9199409  20.1043377  57.7487259
  18.7702389  20.5605831  58.8734169  18.8047085  20.1768818  59.8912506
  19.6950188  21.4918423  58.7171059  20.2521076  21.6634808  59.6356468
  19.9565315  22.1855240  57.4046021  19.5021152  23.1838703  57.4061089
  21.3138409  22.3628483  57.3471146  21.4867992  23.2922897  57.1169968
  16.6085815  19.4732590  58.0992737  16.2649250  19.3368244  59.2838936
  15.8808241  19.1264954  57.1350632   1.7520106  67.1044540  77.9536819
  24.5849075  57.6909904  20.2746525  86.5803528  57.1316833   3.9495344
  44.6657753  51.8675842   9.9301834  22.6729069  30.1835670  79.1549683
  79.3110809  41.4551277  48.9033890  83.6786652  34.4116478  14.7108202
  80.8898163  24.4217892  49.7663422  83.2557831  41.3353195  70.4981079
  70.9659348  20.9599590  62.2968597  70.5127411  20.7157097  61.4898949
  71.3727188  21.8031273  62.0973053  38.4611664  30.9206886   6.8795128
  39.1273155  30.5111008   6.3275018  37.9807320  30.1856403   7.2604566
  43.3679123  56.1814919  10.7447405  43.5806313  56.6773491   9.9541016
  43.8946075  56.5892754  11.4321566  65.1589432  54.5429726  46.9304504
  65.5865479  53.9351196  46.3272095  65.6677628  54.4761925  47.7384605
  15.5812607   5.8637724   5.6503086  15.7454824   6.1394548   4.7484980
  15.4187565   6.6793637   6.1242647  67.1404648  32.7720490  30.2384987
  67.7678452  32.1501808  30.6071606  66.9570999  33.3802185  30.9545536
  67.6218719  38.7503090  55.6026230  68.3492661  38.3032837  56.0353966
  67.1154785  38.0465240  55.1970520  28.9192238  45.2115936   2.6215577
  28.9485874  45.9143372   1.9723122  28.2654839  44.5998611   2.2829692
  32.5467377  57.0998154  38.1730461  32.5522270  57.9836082  38.5406227
  32.7732697  56.5325050  38.9099770  35.1811562  44.4424248  45.0281410
  34.3839951  44.4391785  45.5580025  35.1735611  43.5972519  44.5788574
  55.4537888  63.7679634   0.3015970  55.8208313  63.1380005  -0.3186150
  54.9762611  63.2310524   0.9339930  33.4568863  58.9683456  40.5511665
  32.6056442  58.6260223  40.8239937  34.0539513  58.7141800  41.2548294
  70.4578094  36.2459717  43.4714394  71.0248337  36.7711067  44.0362015
  69.6676254  36.7758369  43.3661575  37.0182266   6.5662723  11.7251797
  36.9188766   7.3437061  12.2746868  37.0925980   5.8418179  12.3463612
  46.7413368  29.0924778  77.5669022  47.2588882  29.8560028  77.3111649
  46.7953186  28.5035286  76.8142700  77.5015259  68.0093079  76.8983917
  76.5877228  67.8200150  77.1113815  77.7642212  67.2967300  76.3157730
  72.0614853  31.4854221   9.1430798  72.1485138  30.5346413   9.0747252
  71.1300430  31.6517105   8.9981546  66.2656860  46.8854294  80.6046066
  65.5348511  46.5826759  81.1435394  66.9566269  47.0940094  81.2333527
  86.0505600  12.2999487   6.3091936  86.0856094  12.1999531   5.3578763
  85.1157684  12.3072147   6.5149808  33.9404564   6.8999405   5.7405519
  33.7629166   6.6087179   6.6349239  34.4764824   6.2022986   5.3634553
  30.5641899  45.5300217  20.4642658  31.0566616  46.0233841  21.1202374
  30.7476139  45.9792671  19.6391811  18.8185177  39.6040955  85.9117432
  18.2462673  38.8531418  85.7541504  19.6318741  39.2207108  86.2399216
   6.9346156  47.7327728  50.7910843   6.6115103  48.0130501  51.6473999
   6.3339763  48.1364670  50.1645889  79.0183411  43.5287476  55.0381813
  78.8847961  42.7353401  55.5567398  79.5011978  44.1163216  55.6194191
  38.2350388  49.9900894  45.7977905  38.6073837  49.2326622  46.2493401
  38.9275742  50.2789040  45.2034683  60.7573280  17.5959244  87.1306686
  60.4152184  18.2840157  87.7013855  60.3368607  17.7546654  86.2855377
  12.0750942  66.3420410   9.5431871  12.8632364  65.7992020   9.5629196
  11.3532410  65.7194977   9.6303625  66.9590378  66.1169434   3.4924924
  67.6385956  66.6996613   3.1535566  66.3417130  66.7002258   3.9339983
  62.7243576  60.7147255  64.9898605  63.1608429  59.8720589  64.8648605
  62.4895897  60.7275429  65.9177322  19.3337822   1.8135922   5.7609582
  20.1236534   2.2805185   5.4883490  19.1939278   2.0882614   6.6671753
  85.1502228  69.6977844  86.8506088  85.8113708  70.3350601  86.5804520
  84.4182663  70.2297592  87.1628036  45.6225281  60.9035873  77.7626953
  46.4512291  61.3539124  77.9260788  45.8503876  60.1924210  77.1639023
  11.1489105  22.4562416  58.3043327  10.4798155  22.6483574  58.9613228
  10.7011909  22.5703812  57.4660339  60.0300598  61.8331261  67.3559647
  60.7190514  61.1742287  67.4418716  59.2148666  61.3321686  67.3830261
  53.0801201  43.3376694   1.6057167  52.4811058  42.5910721   1.6083311
  52.5119972  44.1009293   1.7101283  32.7266464  22.3921490  30.9677372
  31.8973904  22.8454514  31.1196671  32.9224510  21.9650745  31.8017044
  31.2319775  57.3765221  41.0668335  30.6963711  57.7940292  41.7414055
  30.8645248  56.4969788  40.9795837  86.8061371  46.7773743  63.6484756
  85.9660263  46.3995056  63.3883629  86.7223511  46.9215393  64.5910416
  73.7635193  25.5215130  40.1959915  73.7340546  25.5328083  41.1526680
  74.6970596  25.5026932  39.9853210  82.9382324  18.4905128  29.6443958
  83.7133408  18.0439110  29.9849758  82.2533875  18.3053017  30.2869797
  29.5883160  43.9140396  47.3444557  29.9887714  43.3663330  48.0196495
  30.0101147  44.7671776  47.4467926  52.1067581  19.9831982  33.2531471
  52.8312378  19.8401318  32.6441345  52.1302223  20.9223042  33.4368935
  35.5213013   9.5456896  84.1901245  36.2354507   9.1287022  84.6721497
  35.7811737  10.4645910  84.1244049  40.0299797  46.8458557  67.3001404
  39.1335449  46.9818268  67.6069794  40.1768112  45.9051437  67.3988037
  76.5127563  25.8487244  29.1928768  76.3750305  26.2198982  28.3213863
  75.9603500  26.3776207  29.7685032   0.3580024  60.1139832  32.2613716
  -0.4362936  60.1561737  32.7938652   1.0271473  59.7747498  32.8558464
  40.3321114  49.6582222  84.7813110  40.5565681  49.7856712  83.8595734
  40.0756111  48.7379189  84.8403244  61.7977180  11.6363392  40.1164017
  61.9058533  12.4937563  40.5279503  61.2314758  11.8021498  39.3626709
  76.8974228  20.4826946  21.6650124  76.4875259  20.2730350  22.5042133
  76.9750748  21.4367352  21.6681023  73.3181992  27.8358917  80.6626587
  72.8391495  28.6348362  80.4425888  72.8147659  27.4435673  81.3760071
  37.4552689  62.6631432  19.2151737  36.5088310  62.5255852  19.2546711
  37.5536346  63.5876770  18.9875851   4.4837775  44.8973427  86.2092209
   4.5004807  44.4089127  85.3861847   3.5863400  45.2234955  86.2760010
  10.8359966  54.2215958  33.0008011  11.7243328  54.5769119  33.0297928
  10.7143192  53.9549255  32.0895844  55.2071648   6.2501311   8.3063879
  54.7376823   6.9075575   7.7929606  54.8486824   5.4136677   8.0096550
  25.1223068  64.7161179  21.9777832  24.2952309  65.1451035  22.1972141
  25.3455772  65.0554962  21.1110630  16.8510590  31.6331882  80.5282593
  17.0939178  32.4644394  80.1204987  16.6670761  31.8584785  81.4402008
  77.9530182  36.2049904  22.5908279  77.2148209  36.5184135  22.0682716
  78.3002090  36.9918327  23.0110264  56.2304878  57.8372231   3.6610756
  57.0972290  57.7336388   3.2683096  56.1449127  58.7792778   3.8074884
  78.2961426  48.5796165  52.5350189  78.2039795  49.3642044  51.9945030
  79.2325592  48.3824120  52.5132408  50.2823296  39.7754173  52.3965530
  49.7202187  40.5043221  52.6591492  49.8199425  38.9945946  52.7010918
  15.0041094   7.8488894  33.0776100  14.9124622   7.0326943  32.5860214
  15.7187262   8.3124990  32.6410065  82.8573074  51.6866455  65.6047668
  82.8424606  51.5126724  66.5459061  83.5611343  52.3252068  65.4903030
  59.0485802  25.0753860  49.2769890  58.7002258  24.4383411  48.6532478
  58.8138466  25.9262486  48.9066353  84.7796936   8.2546501  46.4864807
  84.8695450   7.8207064  45.6380386  84.6725388   9.1812086  46.2714462
  35.6216621  38.6956406   7.8036408  35.4108353  38.5829086   6.8767776
  36.4626884  38.2520142   7.9136453  21.2090340   9.4352293   0.5908962
  22.0367832   9.8795795   0.7742348  21.0234756   9.6428108  -0.3249148
  37.9542961  56.0078773   7.6246486  37.7474022  56.6949081   6.9910769
  38.0833359  56.4745178   8.4503775  84.2649765  37.9009399  34.8255501
  83.5885391  37.7851524  35.4928322  85.0215378  37.4235764  35.1660805
  45.4055405   3.2928488  29.9096413  44.7065506   2.7625043  30.2922363
  45.0262947   4.1681790  29.8309021  56.9857941  53.9898682  78.4535446
  56.3023300  53.6258049  79.0161819  57.4120369  54.6549072  78.9941635
  57.6667747  19.6171417   9.9859791  58.1486397  19.3334980   9.2090731
  56.7497711  19.6193314   9.7115154  23.7773285  69.9311752  25.9807186
  23.9523144  70.8702698  26.0415936  23.7563400  69.7518921  25.0406933
  66.0311661   7.2059207  -0.1308078  65.9127655   8.0239916  -0.6134818
  66.1682663   7.4804692   0.7758663  74.0387268  41.2464828  30.9025326
  74.0449753  41.2731209  31.8593407  74.9638519  41.2313576  30.6573009
  80.6617279  65.3022614  29.1961002  80.9701996  65.3770523  28.2930584
  79.7614441  64.9870453  29.1163406  40.0525246  20.6971836  72.1028214
  40.9047699  20.7819767  72.5302734  39.7515793  19.8201523  72.3404694
  20.1089058   7.9991903  24.5503883  20.1084881   7.0836306  24.8296394
  21.0331039   8.2483559  24.5477066  36.9977875  51.1471939  58.0113449
  36.4541931  50.3667374  58.1191673  36.8186646  51.4423676  57.1185875
   3.3751948  39.2038460  71.6415787   4.0709267  39.1418839  72.2960663
   3.8305051  39.1447029  70.8016815  20.6578827  49.3198128  70.1785583
  20.0478802  48.5859222  70.2529373  20.1297340  50.0353088  69.8245010
  71.0284500  38.1734047  81.5209732  70.2209625  38.4371681  81.0798111
  71.4410858  37.5564804  80.9165192  19.1548672   5.2573404  53.9282417
  18.9105473   5.9005055  53.2627487  19.6474495   5.7596178  54.5773239
  45.9759216  49.0077057  83.3495178  46.0968666  48.8466072  82.4137573
  45.8800812  49.9575844  83.4186020  61.8235703   8.1702156  73.1277847
  61.1529541   8.7643957  72.7909546  61.4601936   7.8400707  73.9494934
  61.5220909  59.2321625  22.2299690  61.1822395  59.1710548  23.1227169
  61.7411575  58.3305206  21.9948444  38.3328438   7.5782399  27.3703785
  39.1653328   7.7186208  26.9192848  38.0172310   8.4594955  27.5704002
  57.9178619  60.0362778   6.6447916  57.8009338  60.9216385   6.9893208
  58.1099815  60.1641998   5.7158365  39.6490631  65.7621689  49.0457764
  38.8927269  65.9957886  49.5839310  40.3852158  66.2140884  49.4581871
   1.0005406  14.8648920  18.9112701   1.3259317  14.6256504  18.0434475
   0.0496855  14.9035692  18.8082638   4.8426552  29.1431465  27.5626183
   5.4346037  29.8943424  27.6017914   4.6041889  29.0740738  26.6381741
  82.5180359  17.8770733  86.9910965  82.7097168  17.8316231  86.0543823
  83.0025177  17.1439209  87.3705597   1.8929710   6.0031042  18.5142307
   1.1575286   6.5361581  18.2122211   1.7162338   5.8555708  19.4433327
  24.7041168   4.8554378  84.9356232  24.7476292   5.3802347  84.1362915
  24.6361523   3.9523194  84.6258011  20.6683693  57.2367172  28.8325939
  20.6835670  56.6760635  28.0569191  20.5721836  58.1234970  28.4853153
  78.3254089  55.0728340  83.9865646  79.0268021  54.5673752  84.3974228
  77.8758011  54.4438286  83.4222641  37.1026306  29.9931583   1.1322410
  37.3880768  29.1664562   1.5212333  37.1387711  30.6220665   1.8529345
  55.0106049  23.7606602  36.4573669  54.1520309  24.1141224  36.2246628
  55.5864754  24.0430832  35.7468452  57.7323723  49.6349792  42.6559830
  56.9723396  49.8746529  42.1257591  58.4171562  49.4367943  42.0172119
   2.0611534  31.2032623  16.7990742   1.8034070  30.8080750  17.6319160
   1.2415340  31.5227661  16.4217491  70.5295181  66.6196899  20.6112404
  69.6835327  66.2306976  20.8330956  70.3111420  67.4810562  20.2554417
   7.9814644  30.9924393   1.7783532   7.9905109  30.6562080   2.6745107
   7.0529094  31.0474529   1.5525415  82.6868210  36.6570663  67.2303619
  82.3219833  37.2512703  67.8861465  83.4900970  36.3234482  67.6299515
  16.3732185  37.7789421  57.6490822  16.4363708  38.5111313  58.2623863
  17.2696819  37.6468735  57.3406258  63.7342529  56.0285912  23.9630451
  64.2720642  55.3164482  23.6168613  63.7993355  55.9375534  24.9136810
  13.1471119  17.3561764  20.2595158  12.8510427  18.0814095  20.8096180
  13.0058823  16.5758152  20.7955418   5.0036602  13.1963005  13.1326542
   4.7726150  12.4551401  12.5727148   5.4337406  13.8164129  12.5438213
  13.4309530  57.4752960  53.0242996  12.8645048  57.4200363  52.2546768
  14.0704708  56.7736855  52.9018745  68.4590454  33.8700867   3.9566343
  69.3325119  34.1559715   4.2241416  67.9888306  34.6820297   3.7672291
  36.6285629  45.3991165  79.0078964  37.1959076  44.7861977  78.5402603
  35.7769165  45.3114510  78.5798264  14.0152407  59.5394402  46.5965538
  14.8173113  59.5507050  46.0742607  14.3189917  59.5875549  47.5030022
  27.7853737  15.0530453  30.7834110  26.9798775  15.2129393  31.2751865
  28.4363022  14.8408976  31.4523773  13.7965269  63.4076385  82.1356354
  13.5284262  62.8435059  81.4103012  13.4063921  63.0031509  82.9104996
  43.9511108   6.2923155  71.4729538  44.2819748   6.3553858  72.3689346
  44.6729431   6.6064229  70.9284134   1.4490263  10.3340178  51.6147232
   1.0656457   9.4666643  51.4845352   0.8283458  10.7870159  52.1854973
  82.6543732   4.0594168  20.4844913  83.4740601   4.2074342  20.0128689
  82.3553925   3.2019455  20.1818581  74.2532578  43.5794830  61.9490166
  74.4449158  42.6517372  62.0860901  73.9617767  43.8928871  62.8052025
  86.2312012  71.5253067  11.1388617  85.7040710  71.4929581  11.9371853
  87.1325989  71.4180069  11.4425211  55.7857132  25.4468689  85.3733597
  56.5727959  25.4518223  85.9180679  55.0624313  25.3936348  85.9980621
   5.3046236  43.1417274  38.6813240   5.1239562  42.9350929  37.7643242
   5.5689034  44.0616722  38.6719666  85.7879791  67.5178680  42.7372093
  86.5992432  67.4180679  42.2390900  85.6181946  66.6466446  43.0955009
   1.8134673  62.4851799  67.3843536   1.8228645  61.5357361  67.2631073
   1.9724339  62.8399277  66.5096436  21.3083057  46.8521156  35.3776321
  21.4279079  46.5133514  34.4904099  20.3600769  46.8516617  35.5083809
  52.5787888  36.4604950  13.6084604  52.8359146  36.6639061  12.7091589
  53.1290321  35.7161980  13.8523626  69.8746643  40.8260841  81.2118073
  69.0392456  41.2904587  81.1602020  69.9236298  40.5211639  82.1178207
  13.9587049  27.7504845  71.4376526  14.0032711  27.2848797  70.6025162
  13.0736666  28.1142712  71.4621277  75.5581131  50.5658264  68.2746048
  74.6174011  50.5334167  68.1007309  75.9193573  49.8334465  67.7752533
  56.3867798  29.8909264  29.1286240  56.6655197  29.6520844  30.0126438
  56.2770767  29.0537548  28.6776886  16.3637962   9.1186848   3.8623636
  17.0124207   8.4607286   4.1125865  16.6805630   9.4616041   3.0267220
  77.9996643  56.6638336  59.1606407  78.0858154  55.7148552  59.0697975
  78.2256241  56.8384781  60.0742455  59.9553795  69.0450668  27.3617935
  59.3035049  68.5655975  27.8730736  59.6909027  68.9121246  26.4515133
  16.7055817  62.5589256  87.0876083  15.9877825  62.3518105  86.4891968
  16.5971012  63.4906273  87.2783737  50.4750519  64.0626602  22.6590462
  51.0804863  64.7568512  22.9193935  49.6431618  64.3054886  23.0655193
  60.6239471  31.1906776  69.9541855  60.3554459  30.4462509  69.4157028
  59.8931122  31.8058796  69.8938599  39.7540207  46.6724815  24.6522617
  40.5684090  46.1929550  24.5003929  39.0661316  46.0756378  24.3576164
  27.8073597   4.7667317  27.3789692  27.0042953   4.3162003  27.6403866
  28.4817467   4.0878940  27.4037514  48.1575127  42.9308357  68.0848389
  49.0466614  42.8709602  68.4342117  47.6840706  43.4625473  68.7246552
  26.7285728  24.7278061  26.4677963  26.4120178  24.4814854  27.3369064
  27.1818428  25.5596657  26.6048660  16.7799244  42.5958519  45.0830536
  17.4850006  41.9519348  45.1498909  16.6112537  42.6697044  44.1437302
  12.2731123  41.9138336  61.1162682  13.1362791  42.3017273  60.9723473
  12.4548998  41.0768051  61.5435486  34.7965775  30.3410339  12.1299124
  35.1729431  30.6972790  11.3251343  35.2868004  29.5340042  12.2868071
  39.8485718  70.6930389  32.5196457  39.9899292  70.9534836  31.6094704
  38.9706268  71.0132446  32.7268028  66.3906937  10.5366106  55.5791397
  65.4877472  10.7942228  55.7650452  66.3650131   9.5803165  55.5463448
  25.2021828  24.5253334  19.0222626  24.8009682  25.2957211  19.4244556
  25.5905743  24.0474415  19.7550678  27.3749199  61.8420639  43.5514297
  27.0983047  61.0113297  43.1646500  27.6627464  61.6110039  44.4346046
  82.1066895  26.9835358  27.8978100  81.6148987  27.4850960  27.2475719
  82.5864182  26.3326626  27.3855076  71.8113480  23.6882496  82.3351440
  70.9621124  23.5586777  82.7573318  71.6039047  24.1242332  81.5086365
  26.2160816  10.2774668   8.0628653  26.9970798   9.7421894   8.2034054
  25.5739346   9.6716919   7.6928444   7.2873316  41.3897896  47.2452621
   7.3222857  41.8872147  46.4282074   6.4836669  41.6866074  47.6721764
  53.0874481  68.0306091  22.5077553  53.3308792  68.2651596  21.6122303
  53.1979408  68.8404694  23.0059052  17.2569599  63.5725899  67.3348618
  17.9283504  62.9043465  67.4724121  17.7442436  64.3949509  67.2848434
  41.5638390  15.4913464   8.5693054  42.2891045  15.7845459   9.1209011
  41.8724937  15.6303415   7.6739593  75.9835892  29.6121349  82.6744461
  75.9743271  29.6279507  81.7174225  76.6491547  30.2554398  82.9181900
  36.4567528   6.8469563   8.9153872  37.3533401   6.6359348   8.6549368
  36.4748116   6.8291292   9.8722506  39.9341011  53.8084259  43.6751595
  40.2931786  54.5522156  44.1589622  39.1596146  53.5493317  44.1744308
  76.8799896  41.9787941  53.2918320  76.6378098  42.8832092  53.4908714
  77.3390274  41.6758156  54.0752335  20.5399990  18.7471313  77.8554459
  21.1834965  19.4556026  77.8408890  20.7670708  18.2018051  77.1022568
  74.8371582  33.0565147  51.3593864  74.9569244  33.5978508  52.1396713
  73.8980942  33.1004868  51.1792030  86.5199127  48.7477798  55.0827713
  87.2842865  48.2869339  55.4285698  85.8864441  48.7328987  55.8002167
  42.2882271  70.1677551  25.6828785  42.7724304  70.8369675  26.1665459
  41.5288620  69.9767075  26.2334213  51.0645905  43.6394272  39.3366127
  51.0980949  43.9065933  40.2551613  50.1695747  43.8385239  39.0617638
  19.1379089   1.3074137  30.6119862  18.7852345   1.5976660  29.7707920
  20.0160465   0.9870907  30.4058399   6.0975718  53.5417061  32.7651176
   7.0017209  53.4333420  33.0600815   6.1752682  53.9095802  31.8848553
  43.7974014  19.5584564  72.4380798  44.1522369  20.2265930  73.0245285
  43.4383965  20.0527725  71.7011948  48.1841774  51.4937553  13.8968573
  48.5000000  52.0303535  14.6238737  48.8809357  50.8538055  13.7511721
  30.3332462  52.4394951  51.3255539  29.8540592  53.2393303  51.1090508
  29.9001369  51.7552414  50.8152122  29.1729164  57.4212837  71.5266266
  29.8086033  56.7139282  71.6351624  28.3441887  57.0463753  71.8247681
  73.0324707  57.6380005  78.2311554  72.9708405  57.3183327  79.1312943
  73.6148605  57.0157852  77.7953720  85.6498718  40.2392693  78.1270218
  85.5161667  40.5887871  79.0080414  86.5927429  40.3143654  77.9801025
  24.8465462   9.2142191  30.2802124  23.9641628   8.8664608  30.1509953
  25.4167042   8.5972738  29.8213768  26.4349976  70.7391205  57.2935562
  25.9770870  71.5665359  57.1454773  25.7687397  70.1593704  57.6626434
  55.5361938  47.6504059  67.4195633  55.9688377  46.8377686  67.1575089
  54.8548241  47.7823448  66.7603531  16.9843388  55.2166519  69.1851349
  17.1296883  54.4464684  68.6356659  17.8448181  55.6310272  69.2491760
  27.0330334  43.3283882   1.8178173  26.4194813  42.7268066   1.3960502
  26.9228477  43.1651306   2.7545342  75.0299530  64.0937653  53.6759529
  75.6039124  64.7317047  54.1000137  75.6139145  63.3806152  53.4177818
   7.2883582  25.2125835   3.3127728   7.1020308  24.4368515   2.7838554
   8.0342903  25.6255760   2.8777375  53.1686745  41.6102142  87.5810547
  52.3919983  41.6367722  87.0222168  53.2804680  40.6832390  87.7918854
  68.4469681  43.6945953   7.0197840  69.3843689  43.8751259   7.0899520
  68.1528168  43.5999413   7.9257340  64.8212662  24.7669563  60.9954529
  64.0184631  24.5713158  61.4786263  65.0061646  25.6837234  61.1993790
  73.7022705  51.5824394  19.7392330  74.4022751  51.8003349  19.1238022
  72.8951569  51.7361832  19.2481575  30.3813953  64.6003265  78.2050018
  30.3543396  65.2186279  78.9352112  31.1506996  64.8611679  77.6986771
  71.5490646   7.9205523  45.3868217  72.1295166   7.1967978  45.6223755
  72.0255661   8.3985767  44.7080956  77.6298218  61.1617851  16.8616734
  78.3256531  61.4678497  17.4433727  77.9948044  60.3836174  16.4403954
  70.6008224  42.3678131   9.8217764  69.6889572  42.1412315  10.0044994
  70.8122406  43.0460968  10.4632320  66.4185867  61.8031883  25.2779732
  65.6793060  61.2474976  25.0311756  66.1992111  62.6649399  24.9237232
   3.2915707   1.4732847  50.0845184   3.4848256   2.3806105  50.3204079
   4.0753555   1.1733599  49.6241302  73.4152756   3.2152717  47.8650970
  72.7540131   2.8810372  48.4711075  73.9049377   3.8595009  48.3764000
  30.6810169  40.1630363  73.3062057  30.5118713  39.2210197  73.2911682
  31.6199074  40.2405281  73.1367645  54.5598297   5.4518776  58.1896286
  55.4430046   5.8118024  58.2714348  54.1690216   5.5773253  59.0543633
   7.3788943  48.8592453  30.0684681   7.0377359  48.6096001  30.9272594
   7.1941428  49.7959785  30.0004196  84.4846497  57.5210228  18.6061096
  85.1678314  57.1053848  18.0800514  84.9258804  58.2535591  19.0361557
  57.7807159  67.7646484  41.7243690  58.6926193  68.0250015  41.5944481
  57.6686630  67.7508545  42.6748886  34.3908920  62.3063622  24.0596104
  35.2371254  61.9390259  24.3149300  33.9968491  62.5949097  24.8828354
  73.4508133   6.8776860  64.8392563  73.1160965   7.7705126  64.7552567
  74.3694077   6.9406672  64.5776138  23.5597839  10.9920311  89.1978760
  23.4975624  11.6557751  88.5109940  24.1183167  11.3900089  89.8656235
  68.6014175  39.4030571  29.4715786  67.8006668  39.8459282  29.1907101
  69.1910858  40.1128693  29.7259216  80.5758209   2.4770508  63.3489876
  80.4438019   2.2166812  62.4373894  79.7022018   2.4378676  63.7381897
  61.6741447  43.1158905  22.2733574  61.5190048  42.1882973  22.0952206
  61.1366806  43.3052406  23.0424557  18.6600513   5.4515796  19.4170170
  19.0082035   6.3298488  19.5708523  18.3152103   5.1783395  20.2671070
  51.2135239  42.3321037   9.5564976  52.0238037  42.7656364   9.8243151
  50.8850250  42.8647079   8.8321695  31.0741386  41.9256897  88.8629227
  31.6306839  41.3360786  88.3541565  30.3300457  42.1074867  88.2888947
  49.2530022   3.9001327  58.9203072  48.9511795   3.2671065  58.2688370
  49.7264900   4.5590916  58.4125519  56.4668922  42.2170296  41.1482391
  56.0889091  43.0541458  41.4176712  56.8834229  42.4021454  40.3065338
   8.7543745  40.4723930   2.8486071   8.4108706  41.0752182   3.5080283
   9.6950531  40.6484795   2.8299785  30.7833786  48.8208961  39.1908035
  30.6146698  47.9139671  38.9353600  30.9708977  48.7747383  40.1283226
   7.4694543  16.0023098  13.0710688   6.9535093  15.4193830  12.5140877
   6.8431344  16.3363953  13.7132072  77.9906540   9.9622974  56.4510307
  78.8444443  10.3233967  56.2125320  77.5743332  10.6526279  56.9671288
  59.9862366  33.7786674  74.1151276  60.7844200  33.6580620  73.6007385
  60.2944717  33.8775597  75.0159302  14.0189543  69.8565445  27.2449875
  13.4550953  69.5324402  26.5426693  14.8974886  69.5658417  27.0002403
  69.1928024  15.2716398  20.4220314  69.4060135  15.9074583  19.7390175
  69.9259491  15.3239193  21.0352173  67.7236481  46.0023766  54.7707253
  66.9500046  46.3773308  54.3498726  68.4135742  46.0741196  54.1111145
  74.2315674  16.8146343  33.6948204  74.0139465  15.9161797  33.9431229
  74.2180481  16.8085766  32.7377357  52.0435257  43.4982452  14.9212332
  52.2125893  43.5892639  15.8589783  52.6459656  42.8117790  14.6347675
  15.5074463  22.3005943   5.4401965  15.1348076  22.6213875   4.6189389
  14.8640251  22.5432014   6.1060667  24.0964203  63.9699135  58.0342026
  24.4597321  63.3785896  58.6934242  23.2895260  64.3012695  58.4283562
  14.5380526  23.1680126  62.2508049  14.4056129  22.6502399  61.4566994
  14.7645264  24.0417118  61.9320679  70.9569855  51.7347221   3.5401096
  71.1649094  52.6200104   3.8388722  71.7619171  51.2375908   3.6856201
  77.2635269  69.5280762  41.7421646  77.9845505  70.0202026  41.3495216
  77.1245346  69.9444962  42.5927582  63.8202248  53.1690826  60.5823402
  63.9975662  53.8603325  59.9444084  62.9611816  52.8280563  60.3333855
   0.4171878  70.8087769  73.6413040   1.0841212  71.4231110  73.3346634
   0.0739654  70.4092560  72.8420486  44.8413734  24.2490425  74.1563263
  44.4025459  23.9315262  74.9455338  45.0259666  25.1703148  74.3391266
  43.0102081  59.5127716  38.0638504  43.5403481  59.0436935  37.4195251
  43.2510262  60.4319878  37.9486046  20.1602306  41.9240570  66.0892868
  19.8952293  42.2696648  65.2369003  20.1421947  42.6834259  66.6717529
  79.7734222  10.1168766  33.7221489  79.4460754  10.2011423  32.8266182
  80.6099319   9.6609211  33.6294785  67.2938385  10.5530548  76.6897049
  66.5651550  11.1267233  76.4527206  67.4660110  10.0446978  75.8971405
  79.6937485  63.1844521  62.8769875  80.4820099  62.6590424  63.0141830
  80.0013123  64.0903625  62.9081345  39.4855995  19.6997356  87.9812469
  39.6126022  18.7957916  87.6931763  38.6740379  19.6777382  88.4883118
  74.0178452  16.5073223  45.5693779  73.4913559  16.1835861  44.8384628
  74.5443802  15.7542019  45.8373413  14.8659935  27.9781704  31.2412434
  14.9020882  27.0847740  31.5829620  14.1263533  28.3794193  31.6974926
   1.6367354   7.2432261  60.1799545   2.0722113   8.0950956  60.1497536
   2.2037513   6.7037783  60.7310638  18.1684227  38.1932716  73.8031616
  17.4717674  37.9766273  73.1835098  18.9782467  38.0351524  73.3179703
  81.3760605  17.8642368  45.6606331  81.5625305  16.9297466  45.5701485
  82.2323837  18.2868328  45.5946541  72.7267380  34.4821320  16.2516747
  71.7814865  34.5932312  16.3536015  72.9487152  33.7637253  16.8440018
  22.9575577  51.4144249   7.5325589  22.2391243  51.9106560   7.1403294
  22.9458351  51.6654930   8.4561720  12.7060890  45.7851410  52.1207848
  11.8977270  46.0578728  51.6867371  13.1930304  45.3129349  51.4454002
  82.5515137  70.1211777  16.4288101  81.6279526  70.1615906  16.6770649
  82.5499802  69.7033005  15.5676441  74.8946686   7.6008301  83.2342377
  74.2186127   7.2380195  83.8065567  75.6519012   7.0304561  83.3665543
  73.7576981  10.1248484  54.5257988  73.7463608   9.4007072  55.1516762
  74.5620575  10.6030045  54.7272987  37.1869698  62.0835075  66.0866928
  37.5755196  62.9580269  66.0648880  37.3221512  61.7392731  65.2038269
  79.5188599  43.6998444  49.3551292  78.8397980  44.1534348  48.8557663
  79.9419861  44.3900681  49.8658028  60.4082870  47.4273148   7.3005033
  60.5830040  46.5336800   7.5956674  59.4542847  47.4775734   7.2406440
  31.8523159  40.1191521   5.1940160  31.7479305  40.8228111   4.5535474
  32.3256836  39.4340057   4.7220769  63.8986053  11.2563162  56.6019325
  63.1155090  11.4782829  56.0982285  63.5902214  10.6373596  57.2637672
  75.6833191  34.2476006  70.9370728  75.2661896  33.7750244  70.2167130
  76.1129303  33.5659180  71.4537659  10.2794218  27.5649891  42.2139778
  10.4572821  28.4709015  41.9611549   9.6524572  27.2529087  41.5614815
  63.9974442  37.6037827  33.8996239  64.5962219  37.1099434  33.3394279
  63.2633743  37.8271294  33.3273544  80.5077896  53.3889618  10.2593155
  80.2373123  52.5955162  10.7213917  81.0565414  53.8572350  10.8884602
   8.2880955  16.2021065  34.6574745   8.6932220  16.9722443  34.2587395
   9.0248375  15.6359425  34.8874817  74.8091202  56.2804375  36.9848747
  75.0397720  56.8288765  37.7347069  75.4991531  56.4493256  36.3433418
  14.5582867  29.5917015  74.6779022  14.5902414  28.7005711  74.3299179
  14.5189342  30.1506195  73.9018250  57.8331871  71.4745026  57.4366150
  58.6602058  71.8477020  57.7415543  57.3136635  71.3611374  58.2325287
  69.5944748  42.5369072  18.3395119  70.5233459  42.7347031  18.4590893
  69.1393814  43.2054138  18.8515854  49.8725967  71.2872543  67.7406235
  49.3822479  72.0873871  67.9292374  49.5357323  70.9938431  66.8940659
   3.4019005  17.8589478  42.1704521   4.2019420  17.8172569  41.6465950
   3.2963793  16.9731159  42.5174408  66.1113510  34.7139702  37.2118797
  65.5283661  35.1325340  36.5785065  66.2148514  33.8194084  36.8874168
  26.7075005  22.9235649  20.7000847  27.1985722  23.7219410  20.5059853
  27.3693752  22.2321815  20.7119598  42.9332314  29.2617512  30.4338551
  43.4903336  28.8162956  29.7955456  43.2484703  30.1655464  30.4374275
  56.9642601  66.4373093  84.4979172  57.4650230  65.6883011  84.8210983
  56.6772652  66.1742172  83.6234741  65.4500122  40.4209518  54.9906044
  64.9671326  40.6637878  55.7806015  66.1781158  39.8875923  55.3093910
  60.0906525  33.3570404  43.6378975  59.1575432  33.5610962  43.7003174
  60.1210670  32.5067177  43.1994286  60.7167892   9.7314978  37.3562965
  59.9366570   9.4842329  36.8598213  60.5440292  10.6282969  37.6428947
  10.7604198  26.7230301  67.5243988  10.7185793  27.5877914  67.1161423
  10.9646406  26.9011974  68.4424286  58.2678375  27.4357910  74.7902222
  57.8294525  26.9290352  74.1066666  59.0410500  27.8002892  74.3595047
   7.0376425  51.0611305  49.3080559   6.1997037  51.1793861  49.7553902
   6.8491950  50.4364700  48.6076851  49.1800880  62.6673203  27.5989475
  49.2263718  63.0583572  28.4714050  48.3711891  62.1556320  27.6084232
  25.1155720  11.8008137   1.9022620  24.4809113  12.4951391   2.0793192
  25.8658772  12.0150738   2.4566696  13.2487535  29.5066166  68.6944199
  13.8314333  28.7962627  68.4258804  12.7988491  29.1677399  69.4683609
  12.5611696  52.4855652  74.1490784  11.7301865  52.9086380  74.3652039
  12.7668552  51.9546127  74.9185028  45.3807259  31.5795574  86.8219604
  45.7530670  30.8593216  87.3307343  44.5461617  31.7692413  87.2506332
  29.2826519  58.5069504  37.8016586  29.1417465  58.8759003  36.9297333
  29.3093071  59.2675781  38.3821411   3.7412555  47.9490280  20.8182411
   3.8715520  48.1152611  21.7518463   3.3746748  48.7653732  20.4784832
  16.5089931  25.8751926  70.6506577  17.2017784  25.3110294  70.9941711
  16.5434361  26.6583290  71.1999741  32.8457336  45.9360924   7.5114527
  32.6391487  45.0959587   7.9210024  33.5621071  46.2898140   8.0386324
  59.4266052   8.3061638   0.8386959  59.0356941   8.9341087   0.2311564
  58.8314476   7.5566216   0.8242829  66.2378693  54.5926437  76.3372269
  66.5259247  53.8274918  75.8394241  66.2087479  54.2906723  77.2450790
  27.1639862   9.8558159  17.6861954  27.1783848   9.5565958  16.7770786
  26.4277859   9.3881998  18.0806236  50.7764053  43.2335510  69.4197388
  51.5968399  43.7005119  69.5780792  50.2785645  43.3425407  70.2299881
  81.2454376  64.3132858  12.2517691  80.3572464  64.1647415  12.5762558
  81.1511459  65.0162125  11.6089392  55.5074310  43.0409088  17.6577110
  54.9116821  43.7722893  17.8201771  56.3544846  43.4544144  17.4911575
  84.8868790  41.5896187  20.3867035  85.7618942  41.9377670  20.2153339
  84.9401627  40.6696701  20.1276875   7.9909430  55.9221153  79.3806763
   8.0937099  56.5608940  80.0861130   7.4025741  56.3470650  78.7565994
  24.7313137  22.9281883   4.0654030  25.6457691  23.0879478   4.2988176
  24.4734268  22.1808529   4.6050472  32.6260223  63.0445824  59.4493866
  31.7736683  62.8487358  59.8384476  32.5237007  63.9203339  59.0767975
  72.9818649  65.5205307  10.3836021  73.1879120  65.6719284  11.3060207
  73.2391586  64.6120148  10.2266979  31.7304077  20.0449867  29.6134071
  32.2316093  20.8382187  29.8026524  31.0518017  20.3306618  29.0017586
  80.9325104  36.5390663  65.0511246  80.2329865  35.8912811  65.1363907
  81.4079819  36.4886742  65.8803558  31.0357685   0.9455130  19.6194515
  31.1001682   0.0637679  19.9863434  30.7853203   0.8071503  18.7060165
  53.1496544   8.3061705   3.7662754  53.5250015   7.7192893   4.4227185
  53.6796303   8.1594324   2.9828057   7.4451089  40.9516678  74.6281586
   6.7094941  40.3468666  74.5316544   7.8404312  40.7159843  75.4674530
  18.9412212  12.0975647  25.2132721  19.8058758  12.1523409  24.8063259
  18.5118637  11.3681822  24.7661877  44.5063553  66.6868591  11.9483786
  44.4140816  65.7884598  11.6312180  45.3652229  66.7047806  12.3705826
  66.7217178  40.1110115  59.2384300  67.5669632  39.7256813  59.4693375
  66.8987045  41.0486259  59.1623650  53.7335205  38.2404747  82.2687302
  54.5951614  38.2303734  82.6855011  53.2378693  38.8961792  82.7592468
  65.3025665  67.9638901  79.1588440  65.7437820  68.5593414  78.5530319
  66.0059128  67.6144028  79.7060165  59.3990631  45.2014084  77.0030670
  59.3408813  46.1298599  77.2285004  59.9126320  44.8144989  77.7121429
  46.8480797  54.4067612  33.3820343  47.4535255  54.6327400  34.0881538
  46.8736496  55.1615181  32.7938881  74.6601639  57.0148163  71.9677734
  75.0458603  56.1597137  71.7773132  75.2569885  57.6427841  71.5607224
   3.8625429  -0.2210271  22.0829926   3.4438193   0.3025855  22.7661705
   3.7154777   0.2745966  21.2774105  24.3926125  37.1501198   0.5375177
  23.6640034  36.5407486   0.6559677  23.9779549  38.0109024   0.4797062
  53.8152428  60.4183884  38.8756828  54.5930519  60.0586395  38.4492722
  54.1315117  61.1976509  39.3327980  75.0558243  60.0916481  16.8200302
  74.7830429  60.2188339  15.9113798  75.8411942  60.6310501  16.9120674
   8.0014124  19.4666290  25.3518982   7.9671617  19.5705376  26.3028259
   7.1698675  19.0495834  25.1264286  59.2596474  28.9180374  88.9932404
  59.9193649  28.4443531  88.4866562  58.4981232  28.3381214  88.9963303
  84.3015060   4.5552206  36.0265694  84.5909576   4.7454095  35.1342239
  83.7081680   5.2741098  36.2442436  84.5120316  12.1103420  75.2089691
  84.9640427  12.8000965  75.6949310  83.6161118  12.4331675  75.1123352
  10.9095936  69.2403793  79.2963409  10.0768280  69.4027405  78.8532028
  11.5554094  69.7167511  78.7745895  76.2276611  11.6064930  54.4342499
  76.9928055  11.1456871  54.7784119  76.5366516  12.0120306  53.6241302
  15.4525633  51.2422714  50.9222870  15.6488657  51.6108360  50.0609779
  14.7314243  51.7776909  51.2532196  61.4170914  67.3520050   3.1303270
  61.2041969  67.3722839   2.1973231  61.0004730  68.1359787   3.4881546
  48.3663406  22.7516994  32.7116013  48.3105316  22.5964680  33.6544800
  48.4661293  23.7002239  32.6305161  86.1108627  19.0115433  62.9679680
  85.6107941  19.6785717  62.4976082  86.6312790  19.5050201  63.6019096
  49.8336449  11.2434177  74.1590576  50.3915749  11.1765242  73.3841553
  49.3300476  12.0459881  74.0230408  41.8213730  63.0774689  70.6158829
  42.2303658  63.3798141  71.4267731  40.8818130  63.1052437  70.7966919
  50.9686546  48.3468971  22.5871181  50.9435616  49.2360954  22.9405689
  51.9000015  48.1655159  22.4609241  75.1173019   4.7550011  41.3754234
  75.6513519   5.5322657  41.2114754  75.3745575   4.4680986  42.2516289
  40.5749321  37.6430626  71.1405487  40.9144211  37.8802147  70.2775650
  41.3150749  37.7737579  71.7332840  76.2465515  59.9385223  57.5350952
  75.9317169  59.1901093  57.0281525  77.1323547  60.0941658  57.2074394
  32.7005653  46.3275108  31.7518139  33.1374893  45.6689529  31.2117825
  32.7838478  47.1400909  31.2528019  53.7757759  47.1588821  51.2558708
  53.2172699  46.5634422  50.7561150  54.4942169  46.6084671  51.5675087
  35.3632507  59.3650360  45.9368057  35.6291962  60.2030792  46.3152084
  34.4952545  59.2005539  46.3052597  49.9328346  26.6334667   3.3723235
  49.8684578  27.5642776   3.5860445  50.8611450  26.4265690   3.4803338
   2.2018809  36.9703827  47.2265663   1.9399301  36.1648636  46.7807503
   2.9377971  36.7092781  47.7801781  16.1336212  29.1406250  19.5683975
  15.6528807  28.9945183  18.7536736  17.0360699  28.8983555  19.3607349
  25.2216568  28.7344322  26.6560516  25.5834713  28.0881615  26.0497055
  25.8826256  28.8139324  27.3438263  76.4864426  42.8097649  27.5647049
  76.0135498  43.3653908  28.1842899  75.8063583  42.2749062  27.1552620
  62.1681862   8.7621222  27.1624908  62.1313858   8.0497017  27.8007183
  63.0422859   8.6945791  26.7782803  42.9801292  28.3939285  80.8931274
  42.4648285  29.1732903  81.1011963  42.4153023  27.6609478  81.1379623
  70.0817642  22.2538013  64.6837158  70.1310577  21.7479935  63.8725700
  70.9670410  22.5965137  64.8064423   6.8174405  71.5823288  53.2946739
   7.3989606  70.8242645  53.2362900   6.7157650  71.7343979  54.2342339
  85.5427704  65.9217300  25.0240192  85.7175980  66.5730820  25.7032909
  84.6181259  66.0429764  24.8082256  24.7841206  59.9891548  63.1102905
  24.5999260  59.0849342  63.3646278  24.9314594  60.4456749  63.9386101
  39.7832565  16.8422413  11.3551083  39.6698837  16.8705826  10.4050694
  38.9295120  17.0958462  11.7058744  62.8724365  48.0098267  21.1864834
  63.3444176  48.2662125  21.9787788  62.0239563  48.4465446  21.2612495
  47.2186699  35.2259445  44.3546524  46.9923172  36.1248970  44.5931625
  47.1727562  34.7407684  45.1785011  12.8752966   8.4151068  15.4377480
  13.7531853   8.1275835  15.1870022  13.0189028   9.0068836  16.1762676
  49.1754646   2.1494858  75.1492386  49.8538742   2.8168738  75.0463562
  48.4474983   2.4632425  74.6127167  58.2361488  36.8143425  40.5090065
  57.8448906  37.5355949  40.0161133  58.8853836  37.2342720  41.0732613
  40.2445030  41.6588173  79.0891418  41.1758995  41.4444618  79.0363388
  39.8145828  40.8196640  79.2541351  48.8544464  18.2460823  18.9706841
  48.6097488  18.4406738  19.8753872  49.2355995  19.0614777  18.6449814
  43.2442856  34.7760010   3.0881753  42.7180786  34.2728996   2.4667044
  43.8819733  35.2374840   2.5435491  10.6302404  25.4858761  26.9719448
  10.6456194  26.0827866  27.7200718   9.7008057  25.3801708  26.7689457
  43.8544464  55.0488205  20.2635155  44.6830215  54.5706978  20.2303715
  43.4919434  54.8404236  21.1245575  69.2073135  55.4904289  43.3666687
  70.0732422  55.5391541  43.7716637  69.1799393  56.2377625  42.7691956
  42.9979744  49.5825043  25.9399834  42.8121567  49.0743027  25.1504040
  42.1620369  49.6167374  26.4050331  49.4138603  58.4227982  56.2811279
  49.4695778  57.5589828  56.6897240  50.3086700  58.7611847  56.3133965
  38.2176056  57.2918968  31.9432201  37.5713768  56.8144531  31.4229584
  37.8907967  57.2359543  32.8411598  57.3979149  37.4170265  81.5566025
  57.8331261  36.5676575  81.6300659  58.0979843  38.0568504  81.6860580
  10.8647537   6.6819220  53.7385750  11.1776848   5.9320445  54.2445297
  11.5531082   7.3400164  53.8350716  21.2891216  71.3710480  64.6767120
  20.5254517  70.8503494  64.9255524  21.1632042  72.2088852  65.1221313
  72.0954590  48.8734665  80.4380493  71.4982376  49.6213264  80.4220428
  72.4876938  48.8988228  81.3108292  52.9570045  71.3332748  20.5620193
  53.5226822  72.0999985  20.4705238  53.5419350  70.5870438  20.4307346
   6.4235048  47.8568611  45.1259270   6.7403550  48.5787621  45.6687851
   5.7899265  47.4008217  45.6798553   1.6121627  68.0682297  41.9128838
   1.4692733  69.0053940  42.0453224   2.5638809  67.9668121  41.9262695
  62.4172058   4.9337955  40.7841911  62.8939514   5.5796175  41.3055916
  62.5965462   4.0982652  41.2154198  29.7858124   0.2342296  51.2393303
  30.4268494   0.7150121  50.7157326  30.1944180  -0.6171358  51.3956909
  13.8257160  26.9061775   8.6519308  14.5643787  26.6566982   8.0966206
  13.4682331  26.0744762   8.9629154  57.4354591  51.9629631  23.8929024
  57.8917198  51.8760643  24.7298641  56.5066566  51.9282684  24.1217041
  25.1547108  16.6856041   6.0260353  25.4650326  16.7513218   5.1229224
  25.9381428  16.4740620   6.5336947  50.1458549  16.2907238  81.4190369
  51.0994377  16.3590183  81.3715973  49.8555984  17.1656628  81.6768417
  62.1761246   0.1292681  12.9915028  61.2461662   0.0195854  13.1899443
  62.2289238   0.9784831  12.5530081   6.4411006  64.7482834  39.5107155
   6.0308309  65.6014252  39.6523552   6.2852230  64.2694550  40.3247528
  69.7556381  30.3428707  34.9326553  69.4026489  31.1562233  35.2933350
  70.5609894  30.6076088  34.4881897  17.6361732   6.9068413  43.0438538
  16.7811279   6.5024090  43.1907005  18.2603416   6.2968407  43.4369736
  74.3358154  61.5760269  19.0617752  74.3539886  60.9776154  18.3149128
  73.4194107  61.5864868  19.3380623  72.3615952   8.8100023  16.7177582
  72.5938797   9.6613970  17.0884380  73.1240082   8.2575760  16.8903580
  60.0696793  39.6394615  74.0376511  60.1759109  40.2388573  74.7763519
  59.2544746  39.9167175  73.6195602  40.3229828  54.9311333  85.4254608
  40.0766449  54.0144768  85.5491180  40.6927719  54.9628410  84.5431442
  51.9683266  59.1081543  83.8125610  51.5894699  59.8047905  84.3486481
  52.0517960  59.4951096  82.9410477  12.4883032  35.9805298  72.6038895
  12.6734257  35.9416885  73.5422134  11.9196472  35.2280655  72.4406052
  81.5531235  38.3244209  69.3647232  80.6157303  38.4288712  69.5279007
  81.9621353  38.4666138  70.2183762  69.4665604  25.8741837  36.8212547
  70.3176346  25.4641781  36.6669807  68.8762283  25.1416187  36.9975700
  79.0155258  67.6196976  14.4429636  79.3544159  67.4964523  15.3296375
  78.4067841  66.8920135  14.3159180  58.5845871   8.5286903  47.5233192
  58.7385597   8.2217350  48.4167976  58.0648880   7.8346229  47.1178398
  77.6866608  65.2471466  53.8184509  77.9465485  64.3817596  54.1343575
  78.4629440  65.7921753  53.9471474  61.3368149  43.6958084  82.9233932
  61.6526833  42.9384918  83.4162750  60.8930321  44.2379227  83.5756226
  17.9098244  69.1100998  40.9365349  17.9705639  70.0544205  40.7923355
  18.6402683  68.7441711  40.4377556  84.2545395  10.6649599   1.8955925
  83.6178818  10.1703558   1.3795893  85.0955963  10.2536230   1.6964467
  23.3986492   2.6784809  75.5745697  23.8287354   2.6997066  74.7196960
  23.4181347   3.5870652  75.8751144  56.9997826  23.6394672  64.9872284
  57.5323715  24.3587723  64.6478424  57.0525818  22.9630661  64.3120041
  38.2112045  21.8816605   2.0028739  38.6860657  22.2283592   2.7582133
  37.3800812  22.3564930   2.0039120  33.9437714  38.1716194  78.6052475
  34.7559242  38.1180878  79.1090012  33.6820755  37.2601204  78.4751892
  17.9113712  37.9234161   3.6849923  17.5042534  37.0586166   3.7360282
  18.8333416  37.7665215   3.8889196  21.8281555  71.7161484  12.1518869
  21.9998627  70.7849808  12.0116453  21.7554970  71.8058472  13.1021013
  26.6293068  32.9925690  28.9812756  26.2593040  32.1203537  28.8450050
  27.1716232  32.9029312  29.7649136  34.2466469  53.0759315  53.8307419
  34.2024536  53.7237854  54.5339966  34.0382309  53.5691299  53.0373001
   5.2145438  44.0333862  49.3333321   5.6653028  44.7472115  49.7844467
   5.5823407  43.2373848  49.7171745  74.7555161  45.3173904  27.3465176
  74.9112396  45.5115547  26.4222431  75.2925491  45.9536781  27.8187084
  43.2466621  60.8854904  76.3913879  43.9831543  61.1154823  76.9578857
  42.6474228  60.4035873  76.9613953   4.2981691  53.0517006   8.1369791
   4.4271998  53.8665962   8.6222944   5.0703864  52.5251274   8.3434486
  69.0896759  52.5683517  74.1176758  68.3936996  52.3395424  74.7337036
  68.6321640  52.9624901  73.3750076  46.8126488   8.9876595  21.8523788
  46.1451645   9.6141205  22.1320953  46.9356079   9.1687727  20.9205456
  14.0763960  15.1303701  66.3059692  14.7219801  15.4084530  66.9556808
  13.2306423  15.2997627  66.7209854  49.5149078  47.5047684  56.7887573
  48.6619682  47.9210510  56.6645126  49.3881874  46.9165878  57.5332146
  46.7923851  47.2050247  37.7888031  46.3881760  46.8412209  38.5765190
  47.6203499  47.5759659  38.0939407  75.6115570  47.9611855  83.8164444
  75.7058411  48.1608429  84.7478256  74.8144531  48.4207306  83.5524750
  51.2930222  58.1495705  51.5311775  51.0744095  57.8453140  52.4120102
  51.8564110  57.4632721  51.1736641  57.7701988  36.3163986  55.0407257
  58.0993767  35.7663536  54.3298645  58.5331192  36.8176956  55.3286285
  13.2885809  55.9181137  87.0128250  13.5604477  55.9899330  87.9277954
  13.1912775  56.8242302  86.7200470   7.8422365  60.6622467  39.3910751
   7.3508291  60.4846115  38.5890770   8.2951412  59.8407288  39.5813866
  59.4297066  41.8326759   9.8511047  59.4931641  41.2683601   9.0805511
  60.1518669  41.5523796  10.4133787  13.3142519  32.9365158  80.9661255
  13.5922527  33.3422775  80.1449661  12.9973154  32.0703735  80.7100296
   1.8142512  66.6758804  75.6459503   1.9260409  67.2026978  74.8546219
   2.0776250  65.7933044  75.3853073  31.1720085   9.5859547  88.8020630
  30.3384705   9.3821201  88.3779221  31.8262882   9.1217985  88.2798462
   4.2144842  64.7846069  61.6600609   4.4807081  65.4758072  62.2663689
   5.0130916  64.5670319  61.1793137  43.4520950  52.1271667  52.4358063
  42.5077209  52.1207085  52.5918655  43.5518150  51.7654037  51.5552292
  24.9707184  68.7943802  58.9891396  24.6797791  68.3354797  59.7771721
  24.9063950  68.1400833  58.2934418  10.7790394  44.8575859  34.5722733
  11.4778643  44.5129356  35.1282349  10.2730427  44.0860023  34.3176041
  82.9278946  14.0013885  19.0144844  83.3574982  14.7028856  18.5250187
  82.6683121  13.3672132  18.3461514  15.8312635  46.6793594  80.8105850
  16.7193851  46.5320892  80.4853439  15.4955635  45.8023262  80.9959183
   1.2715034  15.8520222  11.8203630   2.0309417  16.2330780  11.3795891
   0.5791261  16.5038681  11.7110844  17.3959084   4.4377136  50.5841713
  18.2972584   4.5605221  50.8820305  17.4386768   3.6838551  49.9958687
  54.9598579   9.0366669  44.6975212  54.8213844   9.0446739  45.6446190
  55.8405418   8.6782417  44.5872498  46.8565826  70.7968063  88.5203705
  47.3256721  69.9852066  88.3267441  47.5281029  71.3850021  88.8657837
  40.0811234  22.1005135  -0.1595854  39.7924614  22.0607967   0.7521865
  39.9683113  21.2076569  -0.4856405  33.4821625  34.7922173   0.5471998
  33.0800476  34.4267159   1.3352002  33.7868690  34.0283318   0.0574360
  27.2159901  47.7076569  27.5396900  26.9057713  47.2361031  26.7666245
  27.1149254  47.0829582  28.2578602  18.2617512  51.8721161   8.9323177
  18.6650944  52.7316933   9.0534554  17.3217602  52.0356445   9.0091763
  38.9467316  27.8188419  11.8175392  39.0646286  28.7686996  11.8074627
  38.0628319  27.6908436  12.1618834  64.4797516  63.7944374  65.2341461
  64.0897064  64.0130386  64.3877945  65.0338135  64.5462799  65.4438782
  61.6987801  45.0126228  32.4429169  60.7838898  44.7428741  32.5232048
  62.1980629  44.2707977  32.7844429  66.5116196  40.2577705  66.7538147
  65.5742569  40.1653481  66.5833740  66.9286118  40.0520935  65.9171295
  38.6987953  62.7554474  10.5368958  38.5699348  63.6629257  10.2610226
  39.3313255  62.8103905  11.2532167  64.1334229  39.0355301  80.2010574
  64.6220551  38.8833542  81.0099564  64.2904739  38.2512703  79.6752167
  47.0244827  35.8664742  28.5021057  47.9073868  35.5033455  28.5717602
  47.1568146  36.8140411  28.4732552  64.7648697   1.1868587  79.0023270
  64.1435394   0.5500224  78.6492996  64.8634644   0.9408022  79.9220886
   6.8555660  30.2894516  44.0204353   6.5042458  30.8669872  43.3427505
   7.6091623  30.7634773  44.3720360  79.5998917  14.7774572  89.1334915
  79.1841660  15.1800518  88.3710480  79.9236374  15.5168076  89.6480560
  22.0343761  57.0029945  35.6029892  21.7513828  57.9158173  35.6568375
  22.2027569  56.8589745  34.6717873  48.7617302  28.8711338  85.2711258
  48.3965034  29.4955101  85.8980179  48.1902199  28.1059017  85.3346176
  14.9752941  26.5254784  81.2394409  15.6600561  26.2692490  81.8572388
  14.9691954  27.4821091  81.2718658  67.9118195  24.6249943  24.2494411
  68.0481720  24.1386833  23.4363346  68.7948914  24.8019772  24.5736275
  86.5464172  44.9318657  21.0724907  86.4217529  44.2374306  20.4256153
  86.9993744  44.5038872  21.7990570  52.6404381   1.4605194   8.4166241
  52.9231834   2.3725488   8.4836302  51.6843681   1.5061764   8.4080076
  18.2752876  30.3475952   8.6155491  19.1465988  30.2489929   8.9993782
  18.0391197  31.2589417   8.7884769  55.8971062  45.7995720  64.9681244
  55.5073357  45.2291374  65.6306305  55.4217377  45.5919838  64.1636581
  17.9570847  68.0854111  77.4721909  18.2873936  67.1956940  77.5968323
  18.0771923  68.5068893  78.3231659  80.1244507  26.9532833  13.6299362
  79.3779602  27.2262249  14.1633177  80.4554138  27.7659359  13.2474623
  39.5117569  58.9178772  24.5090504  40.3266373  58.4231720  24.4226418
  39.4103928  59.0496902  25.4516964  46.1564636  50.4129524   4.1364746
  45.3351250  50.9000053   4.2029161  45.9285622  49.6252899   3.6426342
  28.2775116   8.4058075   9.7495375  28.9412975   9.0397739  10.0210266
  28.6037617   8.0580025   8.9195833  54.7365608   9.9030466  50.6129799
  54.9406509   9.0017529  50.8624725  53.7987671   9.8920574  50.4215164
  42.4040985   0.6527153   6.0996141  43.1137657   0.1789650   5.6658330
  41.6107635   0.1817335   5.8446112  37.2743225  23.4583549  88.4819107
  36.6751556  24.0375614  88.0110092  37.7889519  23.0358295  87.7942657
  15.5721054  69.1383209   8.0494423  15.9134178  68.3628998   8.4949255
  15.5198231  69.8046341   8.7346649  44.8267746  39.3673706  26.8581123
  44.3835907  40.0719833  26.3855209  45.7288628  39.3955193  26.5392418
  48.2875824   1.2633610  39.9935532  48.8659477   1.5211205  39.2757187
  48.0946198   2.0815873  40.4512672  18.0399189  47.1928635  78.3139496
  18.8929253  47.3527031  77.9101410  18.2435532  46.7419357  79.1333618
  59.1054916  49.2778702  35.0938492  59.5948486  49.5671425  34.3237305
  58.8841171  50.0870285  35.5548134  26.6166153   2.7531798  25.2547855
  26.7490807   2.6549964  26.1976757  27.4882050   2.9459968  24.9092674
   3.8144143  64.2605820  33.2592087   4.5021930  64.7214584  33.7396011
   3.6904075  63.4439735  33.7429504  13.6101828  17.0592880  24.4351177
  14.0798664  17.8732529  24.2532101  12.7536459  17.3432350  24.7544117
  67.7844849  39.9438553  15.6279812  68.2690430  39.3125763  15.0960751
  67.1324539  40.3099937  15.0304651  53.4423409  55.7380295  78.5016022
  52.9281120  55.1766853  77.9213486  54.3112068  55.7647324  78.1008682
  42.7982597   7.5366139  79.9861984  41.9804764   7.0974183  80.2197952
  43.3884315   6.8261023  79.7349930  33.0343475  29.3348503  29.1695557
  32.6205482  29.5634766  30.0018597  33.9360046  29.6439114  29.2574863
  13.7645197  52.0274849  31.1613731  13.2216806  51.4844589  31.7329330
  13.1885509  52.2583008  30.4325275  14.0046701  39.3803253  87.3875198
  14.2244596  38.5676918  87.8431015  13.8462982  39.1121788  86.4823990
  66.5952072  12.0895395  11.5908499  66.3002548  11.6200085  12.3710899
  66.0928268  12.9042807  11.5973949  25.4258385  51.6827202  86.1509247
  25.5558376  52.3656464  86.8089066  26.2957573  51.3042870  86.0233994
  80.1039047  25.2698841   5.4395895  79.8447189  25.1330299   6.3508115
  80.6524277  26.0540142   5.4617801  17.2806759  55.2639160   6.0076547
  17.3834171  56.2130661   6.0768356  16.4597950  55.1460686   5.5296402
  16.3619118  53.0106583  85.7201004  17.0511227  52.7119217  85.1268234
  16.7151451  53.8075333  86.1156311  73.7252197  62.5049973  41.0159302
  74.5522003  62.9281540  40.7851219  73.0892792  62.8706284  40.4010124
  67.2653351  17.6449318  11.7186260  66.7027130  16.9533825  11.3701248
  67.8542786  17.8615589  10.9958191  12.6695032  50.4781952  40.2574081
  12.0988646  49.7158585  40.1602097  13.0559263  50.6002426  39.3902206
  21.8041153  69.4259720  27.6873684  22.4072132  69.7863541  27.0372658
  22.3039341  68.7336502  28.1199188  13.2294111  66.6581573  38.0173569
  12.7831173  66.3991394  38.8235588  13.9574747  66.0418320  37.9380035
  35.0558014  48.8799133  82.9325943  34.1533394  48.5745811  82.8400726
  35.0026703  49.5960007  83.5655518  49.3689003  35.6212387  39.8496437
  48.9263840  35.2954369  40.6333923  48.8684196  35.2530632  39.1214981
  78.5228500  60.9492607  55.9992943  78.6940079  61.6576767  55.3787460
  79.3602829  60.4924088  56.0781860  54.9104118  71.3804245  17.9728031
  55.2576027  72.1280212  17.4861965  54.7260056  70.7228546  17.3021126
  82.0278625  52.1887207  87.2177353  81.2166824  51.6807976  87.2329788
  82.6178131  51.7155151  87.8044739  47.9985657  52.6832237  31.3470936
  47.3389397  52.3442154  30.7419491  47.5032196  53.2218437  31.9641457
  58.0237350  30.5459633  63.1200943  57.1126671  30.3681812  62.8864670
  58.0319824  30.5354862  64.0772018  74.9427261  69.7482147  71.9898758
  74.4986801  69.2438126  72.6715240  75.5129089  70.3490524  72.4695816
  70.3081360  49.9005165  34.2869453  69.8630905  49.3078842  34.8927040
  71.2395859  49.7682495  34.4634094   0.5381664  57.6262741  82.6899567
  -0.2552353  57.3073616  82.2597961   1.0248457  58.0706978  81.9957962
  38.1822739  42.4142952  83.2064438  38.9197998  42.8355980  82.7650909
  38.4970016  41.5338478  83.4113693  78.6917648  28.5357399  15.5623083
  79.3073883  29.1789837  15.9137001  78.7058945  27.8191929  16.1968098
  39.0620384  13.2175989  81.8330383  39.0651665  14.0391941  82.3241577
  39.5821686  12.6172800  82.3671799  66.2074661  31.8057728   5.2958269
  66.9806213  31.2478504   5.3806324  66.0859909  32.1809235   6.1680284
  59.8892174  48.5531273  60.4089470  60.5745926  49.2107124  60.2903061
  59.0761948  49.0148926  60.2040138  85.7538452  51.4407806  10.9219809
  86.4297333  52.0608330  10.6482248  84.9588852  51.9691429  10.9934807
  10.2954025  38.0205650  11.9787045  10.7627115  38.5893402  12.5905447
   9.4424734  38.4400101  11.8655233  36.3472137  26.0783691  36.5204773
  36.4586830  26.9685383  36.8542557  36.7382812  25.5199203  37.1923637
  56.5957642  26.9183559  61.1542244  56.7530289  27.1869602  60.2490425
  56.5559311  27.7396278  61.6442833   6.2731400  46.9195862   8.7073393
   6.2063565  46.2510185   9.3890905   7.2135901  47.0683327   8.6090508
   6.1177487  40.6184692   6.5184302   6.7014065  41.2374382   6.0797377
   5.9981394  40.9825363   7.3955736  57.8626747  61.0703316  73.7189865
  57.5277100  61.4454842  72.9045639  58.5601654  61.6677704  73.9888153
  42.6373291  13.1552849  25.5587444  43.5824127  13.0571108  25.6745281
  42.2677116  12.3443737  25.9080849  39.0478783  41.7971764  31.3039474
  38.9356499  40.9496994  31.7345524  39.7762032  42.2079544  31.7698154
  16.2080994  11.3567696  30.3389225  16.1371365  10.4026575  30.3683262
  17.0350151  11.5491781  30.7809868  10.0142555  53.9616966  18.4999142
   9.5293550  53.1755753  18.7511520   9.3523550  54.6525803  18.4716663
  52.1311493  33.2402115  83.0687103  52.1609535  33.3172035  82.1150742
  52.5386086  34.0457993  83.3868942  27.8901520  11.8605604  81.3625412
  28.6817856  12.0398846  81.8698730  27.4138203  11.2133942  81.8826523
  27.0803223  47.8081627  81.9120865  26.3435783  47.4982185  82.4387512
  26.7635479  47.7675362  81.0097351  48.0972900  56.5269051  12.2104082
  48.8859673  56.0003662  12.3406878  48.0083389  56.5938492  11.2597046
  84.6995163  46.1769257  32.8756866  84.6596756  45.5545654  33.6018486
  84.0328522  46.8313599  33.0842743  83.2621078  25.2256470  63.0753441
  82.3797073  25.5703869  63.2122955  83.7778549  25.9866581  62.8087006
  49.9927864  70.0981979  42.6582527  50.1710243  70.1577988  41.7196846
  49.0380287  70.0674057  42.7192535  41.1775932   6.6389275  72.5817413
  41.0274315   5.7934661  72.1587982  42.0307274   6.9228172  72.2534027
  38.0524979  44.2882271  37.9663925  38.8321686  43.7404556  38.0574455
  37.5790062  44.1696815  38.7897911  11.7792177  69.3726654  47.0344849
  12.0932150  68.5291367  47.3602219  10.9094915  69.4703903  47.4221153
  64.1519241   0.2395557  76.5224838  64.8317871   0.6978970  76.0285797
  63.3572922   0.7498813  76.3664246  19.4416409   6.5853214  86.3181763
  18.7156048   6.2340846  86.8336716  19.7545891   5.8396125  85.8061066
  37.6891289  41.3188210  71.4841690  37.0388603  41.9655571  71.2101135
  37.7370720  41.4155655  72.4352646  40.2882538  69.8617783   2.4813347
  39.6187057  69.2127304   2.2652860  40.1761208  70.5492325   1.8247793
  19.5382080  62.1524048  68.0596085  20.3415737  62.5130920  67.6844559
  19.6415253  62.2689857  69.0040512  34.6853714  36.0910187  19.2852230
  34.7740936  35.2193985  19.6707592  34.4575806  36.6570778  20.0227337
  43.4430428  57.8901901  78.3285141  43.4226570  57.5659065  77.4281540
  44.0800056  57.3290520  78.7708282  54.2798500  43.8034363  50.4260902
  54.3546257  44.0616951  49.5074272  54.8521194  44.4120598  50.8933334
   5.2468028  32.3425064  88.7562408   5.2595158  31.8084869  87.9619522
   4.7373285  31.8282242  89.3824844  10.8749933  68.1620026  44.5099373
   9.9844885  67.8202057  44.4299088  10.8587351  68.6878815  45.3095741
  18.1053085  43.7006760  12.3245296  17.8452835  44.3191147  13.0072832
  17.3283520  43.1598930  12.1826792  73.6323624  62.2532196  55.5899277
  74.3531952  62.1108017  56.2033997  73.8315430  63.0936279  55.1772842
  64.5382996  17.1982231  41.3745689  65.4940033  17.2459126  41.3505478
  64.2964706  17.6455441  42.1855278  62.9966469  57.6550217  61.2736664
  62.2583885  57.0726585  61.4527168  63.0348549  57.7066231  60.3186226
  48.1375542   8.7824297  80.1996231  48.3299370   9.4396048  80.8684616
  47.8173294   8.0264559  80.6917496  79.1548996  31.7079086  35.8561516
  78.9717102  32.3565865  35.1765251  80.0859299  31.8190784  36.0486374
   8.9168959  47.3653755  21.7719917   8.7936907  46.6727524  22.4210854
   8.1201572  47.3414459  21.2420235  -0.1004980  56.4072876  30.9421196
   0.1185345  57.2953186  30.6598740   0.0018049  55.8734627  30.1542130
  17.2702885  37.9979897  80.1985474  16.4477024  37.9434319  80.6849670
  17.7796078  37.2474480  80.5043411  46.3362465  31.3678818  12.1673346
  45.7046852  32.0180244  12.4750357  46.6481857  31.7140026  11.3311977
  12.2185040  28.6607475  24.5363636  11.9263639  28.9546776  25.3992023
  12.9694138  28.0954456  24.7174759  75.8762054  34.9039345  63.5922585
  75.6029053  34.7099495  62.6956520  75.6988983  35.8383980  63.6998291
  63.2950020  27.3636265  58.1376839  63.2292137  28.1113720  58.7316360
  64.2347107  27.1956348  58.0672684  66.0765457  65.3731613  45.9123650
  66.0080566  66.2696838  46.2406769  65.5695496  65.3760376  45.1004677
  36.5036964   2.1899590  24.8609543  36.2899551   3.0448699  24.4872227
  36.8811646   1.6975284  24.1320782  84.1489182  60.1587067  27.2232151
  84.9165955  60.2036896  26.6532326  83.8376923  59.2578049  27.1351738
  37.7888451  47.1753311  26.8049679  38.7307205  47.2312775  26.9661350
  37.7175446  46.7778549  25.9371204  22.1050243  28.6712704  58.8300247
  22.3618088  29.4973259  59.2398109  21.7951527  28.1298904  59.5560532
   6.7526355  47.6070747  74.9380341   5.8359084  47.6121483  75.2133789
   6.8639498  48.4293594  74.4608612  23.3880806  67.4168320  79.2104568
  23.7719860  67.4516144  80.0866089  24.1391296  67.3325043  78.6230469
   4.7149062  55.2081070  25.1958389   5.4813662  55.5706482  24.7516155
   4.9240193  54.2818947  25.3168316  21.9533920   0.9836454  43.5002022
  22.7956257   1.3870077  43.2900314  21.9664822   0.8839242  44.4521027
  19.0664330  60.5177765  22.1671524  19.4241104  61.0715561  21.4731598
  19.7865238  60.4193001  22.7900524  32.3131180  43.5693665  20.0644855
  31.5224438  44.0976410  19.9549961  32.1205177  43.0018005  20.8108120
  61.3837852  38.5616188  33.2751656  60.9887047  37.8540802  32.7657166
  60.8695984  38.5918388  34.0819664  76.1799240  35.6573219  82.9676132
  76.2454681  35.2885056  83.8484726  76.1436462  36.6037254  83.1063080
  66.2119217   0.8590474  69.0172195  66.5428543   1.1103148  69.8795319
  65.4732208   1.4479798  68.8632355  36.1673851  55.3361053  30.9396915
  36.8416862  55.1566391  30.2844524  35.9604721  54.4786797  31.3114986
  79.5867386  57.6206322  45.7078094  79.5681763  57.4476662  44.7665482
  80.3651886  57.1598206  46.0207024   3.9136641   7.3727026  56.5619431
   3.5503750   6.5567884  56.9062347   4.6583819   7.5628371  57.1324463
  37.0600281  57.5212822  44.1441841  37.9417038  57.1531906  44.0859833
  37.1957703  58.4234428  44.4338608  86.4328232  50.9714661  89.4198151
  86.8907166  50.8643532  88.5860977  85.8320923  51.7016945  89.2710571
  57.8547897  55.0438156  54.7288551  57.5776291  54.8301582  53.8379211
  57.1376915  55.5696182  55.0831680  64.5222778  25.3141060  16.6942940
  64.1073380  25.1825924  17.5467968  65.1298676  24.5795460  16.6077843
  76.4612656  44.6415062  54.4351578  76.5531921  45.3239822  53.7703209
  77.3602829  44.4269981  54.6841049  37.8790817  55.4333305  63.9562378
  36.9688644  55.4327660  63.6600227  38.3897972  55.5827217  63.1605721
  17.1149502   8.8790569  26.4875965  16.6796417   8.0300655  26.5647564
  17.8745441   8.8122101  27.0661983  86.1518097  36.8885155  38.4770889
  86.5412827  36.7692413  37.6108818  85.6334381  37.6893463  38.3984108
  77.4201508  38.3888817  34.6446533  77.4531937  38.2829094  33.6939125
  77.7693710  37.5670929  34.9895287  80.4215851   5.4393797  33.8276978
  81.2368622   5.5892920  34.3063126  79.7448883   5.4290347  34.5046120
  57.6086578  43.5902405  70.1050568  58.0796051  42.8993797  70.5710526
  58.2532883  43.9508896  69.4962692  85.7423706  70.6240997  83.9259567
  86.2901688  70.8743439  84.6699524  86.2105560  69.8956146  83.5181122
  19.3251629   7.7353292  20.5689087  19.7822952   8.5722523  20.6515026
  19.6190281   7.2263269  21.3244171  68.4804382  31.1849155  21.7934208
  69.0926285  31.6995888  22.3193073  67.6152649  31.4936409  22.0624924
  69.5016022  21.2315445  72.6792908  70.1691666  21.8268490  72.3384171
  69.8609695  20.9188366  73.5095291   8.7431679   6.3768415  47.3459435
   8.4046974   5.5588965  46.9817505   9.4974070   6.5897231  46.7963676
  26.3727283  29.5118275   7.6072035  25.8495064  30.3130589   7.6295466
  25.7377033  28.8073978   7.7366285  23.7153416  53.3375626   3.1745729
  23.3148651  52.6125107   2.6948335  23.9471493  52.9633293   4.0245428
  85.4021454  60.3258095  20.6308899  85.2643814  60.7969513  19.8091373
  85.4673996  61.0136719  21.2933235  85.3195648  29.5452080  84.2520828
  84.5144882  29.6813030  84.7516403  85.3621674  30.2943172  83.6577377
   4.2331939  24.5324554  56.7617836   4.9506459  23.9658699  57.0454636
   4.6423101  25.3870735  56.6258278  68.2223358  29.4476242  66.4258423
  68.4940567  28.5977039  66.0793762  67.2894211  29.3429241  66.6127625
  24.8863602  57.1330376  24.7722111  25.0837879  57.6331444  25.5641384
  23.9317131  57.0635948  24.7645607  33.0395470  48.1868477  16.2460766
  33.6595192  47.9388695  15.5602398  32.1792946  47.9993935  15.8704967
  77.1210403  17.7437305  53.8715210  76.1949234  17.5425758  54.0059662
  77.4946671  17.7522354  54.7527504  38.7457542  55.6429825  78.0230408
  38.8630638  56.3961678  77.4440842  37.8053932  55.4659653  77.9981995
   9.2818127  18.9351196   5.8057823   9.4613266  19.3268318   4.9510498
   8.3290005  18.8480244   5.8339801  50.6739922  42.8317680  34.7139626
  50.7623062  43.4013329  33.9497414  51.1573906  42.0395889  34.4794159
  29.7861462  71.0426483  68.2181549  29.0511303  71.1443100  68.8228455
  30.2431526  71.8829727  68.2532349  70.5289841  71.4812851  66.8021927
  70.3383713  70.5489044  66.6994247  71.4845276  71.5339966  66.7824631
  77.6361008  43.1881218   4.7635679  78.3823624  42.6288185   4.5479150
  76.9116440  42.5780220   4.9020376  41.1206703  33.5775490  69.2946854
  41.7509956  33.9055252  69.9360580  41.0319061  32.6469307  69.5003586
  18.0369129  19.2786064  80.3180923  18.8119640  18.7387619  80.1628571
  18.1676369  19.6387329  81.1952744  81.6957169  68.6106033  79.0311050
  81.8874893  69.3128510  78.4095688  82.5484467  68.2195206  79.2212067
  74.5000229  70.9335938   6.9842148  74.1663589  71.3339691   6.1813431
  74.0637894  71.4116745   7.6894636  10.3379536  67.9945145  72.1004562
   9.9755812  68.2484283  72.9492493  10.6276722  67.0906754  72.2244186
  56.9899712   7.0294571  88.6787872  57.6460037   6.8122454  88.0164642
  56.3637314   7.5900702  88.2207794  76.6725159  38.4333954  10.0538921
  76.6040039  37.7058258  10.6721001  75.8087234  38.8454056  10.0722103
  80.7304153  38.7372704  83.0889282  80.5682907  39.6790886  83.0348816
  80.2162018  38.3642426  82.3729248  57.5683517  59.0109673  22.9637241
  57.8501282  58.5660095  22.1644459  56.6322632  59.1641541  22.8352737
  60.3598213  52.9708138   6.1493454  61.1276550  52.4624062   6.4104609
  60.5443535  53.2379875   5.2489023  34.6939316  64.7619476  48.7420616
  34.9852562  64.2738724  49.5122185  34.2346878  64.1141510  48.2075615
  73.9327316  16.4062214   7.6967516  74.5880966  17.0917072   7.5670133
  73.3858414  16.4461422   6.9121819  24.9556637  61.1278877  26.5402603
  24.3791027  61.2795334  25.7913857  25.7873325  60.8572197  26.1512871
  68.3102722  28.4753304  36.2703896  69.0536423  28.8753872  35.8191833
  68.6050720  27.5886459  36.4780235  15.9794550  29.0184555  84.3103485
  15.4638958  28.2176704  84.2145844  15.9989109  29.1794052  85.2537155
  80.8000336  53.6434402  57.4141579  81.3425674  53.1841202  58.0551834
  81.2234726  54.4953728  57.3085785   0.2760640  17.3028145  58.6925545
  -0.5941048  17.6983528  58.7434120   0.4693945  17.0330753  59.5903816
  80.5278854  42.2417526  35.8572235  80.5848541  42.2739601  34.9022636
  79.6727066  41.8493500  36.0330505  14.4229984  19.8008595  23.6831341
  15.3743238  19.7053623  23.7288704  14.2582054  20.6983643  23.9722023
  78.3373566  71.6423798  59.9098778  78.5088501  70.9976425  59.2234840
  77.4800110  72.0058289  59.6882935  53.9532280   9.1907196  82.2253647
  54.5283775   8.7314854  81.6133652  54.0555344   8.7175951  83.0511475
  49.1401939  39.9542084  87.9578247  49.8307571  39.5647964  87.4214401
  48.9047165  39.2669144  88.5810547  26.0045242  22.4078827  75.9488373
  26.8538818  22.7505684  75.6706467  26.1116505  22.2322559  76.8836670
  64.9190979  21.8934193  33.8214645  64.6999969  22.8082161  33.6443520
  64.1548767  21.5492783  34.2838097  40.4381714   7.3848538  32.5205803
  39.7699318   7.9072881  32.9641457  39.9832954   6.5830622  32.2628021
  57.3072357  36.9142380  26.4619694  57.3485565  36.5388947  27.3415394
  56.4317398  36.6898575  26.1466980  40.9632645  10.6251345  79.3810730
  40.8787498   9.9729710  80.0766068  41.4318199  10.1698523  78.6814957
   9.9967194  10.5618954  25.9060612  10.1492958   9.9324780  25.2012310
   9.0857162  10.4183025  26.1623535   6.0651879   5.0237341  31.0034561
   5.1257205   4.8749447  30.8962402   6.4717140   4.4892807  30.3213062
  79.0989075  11.3137865  17.2772694  79.3805466  12.2248535  17.1943874
  78.7887955  11.0784578  16.4028091  36.4072952  11.1097126  10.4398670
  36.9636230  11.2059708  11.2128267  36.9739189  10.6994219   9.7865429
  53.6797104  62.2430649  42.2536316  54.3791771  62.8613586  42.4650383
  53.9778671  61.4100647  42.6189423   4.0441713  24.8377590  63.6095314
   4.8155832  24.5143528  64.0748978   3.7327003  25.5697479  64.1418915
  29.6992397  61.4123306  61.1652603  29.1633549  62.0787239  60.7351685
  29.0707531  60.8717499  61.6438103  52.8155823  26.7015247  68.0447998
  51.9072800  26.9962788  68.1107025  53.0154495  26.7486534  67.1098862
  68.7716446  56.1456757  47.8866920  69.6992188  55.9891472  48.0637207
  68.4095230  55.2755089  47.7196312  77.5395966  28.4991131  23.8874149
  78.0966034  29.2353745  24.1401882  76.6838303  28.7062263  24.2629204
  86.2054749  46.9817429  35.8554420  86.7678833  47.1868134  36.6023560
  86.4746857  46.1032906  35.5869751  14.4999723   9.5148687  69.4289856
  14.1507940  10.2704363  69.9016571  15.1406536   9.8867512  68.8227921
  43.9977493  51.5336876  49.7982368  44.3911171  50.7531357  49.4080658
  44.6716766  52.2083817  49.7155304   8.7101936  47.6368217  14.2526569
   9.0089703  48.5431137  14.1778555   8.7584438  47.2942848  13.3601475
  36.6779785  13.2632523  25.4440365  36.3832741  13.3240776  24.5353680
  36.0806084  13.8332767  25.9282398  13.5344667  13.3927794  79.5603180
  12.8396025  13.4273787  78.9029007  13.5135145  12.4921370  79.8837891
   0.8313978  39.7617950  59.7486839   1.2915196  39.0169182  59.3617973
   0.7463301  39.5359268  60.6749573  66.3645325   2.4508460  65.0481110
  65.4321365   2.5145793  65.2550354  66.6732254   3.3568940  65.0520706
   2.5267174  67.7171631  83.7609863   3.2285931  67.5355148  83.1360016
   2.4665360  66.9225006  84.2911911  57.1241684  48.7929802  14.7975597
  56.3803520  48.3069992  15.1536303  57.8274155  48.6529655  15.4316521
  38.8428917  67.2914658  53.3848724  37.9758186  67.1315002  53.0122757
  39.0131493  68.2164230  53.2068596  74.3147736  39.4967194   4.0446362
  74.2188110  38.9289818   3.2799807  74.9286270  39.0314178   4.6128936
  54.3838120  37.7077370  58.4601402  54.6596413  37.3863106  57.6017494
  54.7246323  37.0616112  59.0786819  42.9754601  24.1537800  79.8723526
  42.3121262  24.1187592  79.1831512  43.3891869  25.0100327  79.7632904
  53.1855431  49.3888855  11.6970615  52.6427307  49.8861504  11.0852480
  54.0843124  49.6185455  11.4610415  71.9115829  57.2078629  72.3986588
  71.8968887  58.1581078  72.5129013  72.8378830  56.9944458  72.2861862
  84.2878342  30.5368309  63.6811523  84.6419754  29.8906651  64.2921219
  84.9803543  31.1923409  63.5977631  62.6936035  37.0879440  21.6719532
  62.2992706  37.5460014  22.4141884  61.9508781  36.8406143  21.1211166
  41.4805107   4.3861656  19.8265648  41.5197868   4.5513177  20.7685928
  40.5487671   4.2660437  19.6431046  20.5948620  37.4737053  37.6117096
  20.4554539  37.0537987  38.4605179  21.2704773  36.9427834  37.1899300
  20.7648315  59.2565269  35.7062378  19.8504181  59.1861382  35.9803238
  20.7214527  59.5954094  34.8120842  59.6534348  58.2532768  17.0122910
  59.8778763  57.4944496  16.4737377  60.4624138  58.4636688  17.4786835
  68.4289017  71.0895767  62.1354904  68.7695999  70.8758087  61.2668915
  68.7189255  71.9882507  62.2920303  35.2176056  55.7757721  62.5611420
  35.0462151  54.8711090  62.2995338  35.5016937  56.2082443  61.7558479
  63.3417587   0.8300627   7.2311702  63.7257538   0.0640289   6.8045907
  63.2563400   1.4766676   6.5305719  71.2757874  54.5514946  40.4014854
  71.9479980  54.9571877  40.9490051  70.5683746  55.1957283  40.3739319
  74.3866730  46.7743721  34.0475082  74.8172302  46.4866486  34.8525352
  73.9415817  47.5860901  34.2908859  75.4973373  51.7921486  70.8185272
  76.0449295  51.1542931  71.2762604  75.4397812  51.4594193  69.9228592
  39.3516235  61.4765816  23.3278046  38.7877007  61.3601456  22.5631714
  39.5051308  60.5882950  23.6496906  60.9139061  16.9036026  27.0537338
  60.4816742  16.6037140  27.8534050  61.5791435  17.5208969  27.3581028
   5.3448353   6.5932884  73.4608841   5.3262076   7.0155630  74.3197021
   5.6881027   7.2646685  72.8712692  45.2079315  20.9296608  25.7258682
  45.7420883  21.3306694  25.0402298  45.7532272  20.2231255  26.0718346
  47.6490173  57.9118690  27.2181873  47.5154076  57.0108719  26.9239349
  48.1543999  58.3208237  26.5156384  83.6625443  10.5340919  17.9696312
  82.9209900  10.0997515  18.3911533  83.4108582  10.5974808  17.0482903
  59.9527359  29.4060020  44.9440346  59.1546516  29.3404083  45.4684372
  59.6719246  29.8285198  44.1323357  70.6510544  66.4143524  33.7194519
  70.7655792  67.1164551  33.0790062  70.4929657  66.8685455  34.5470695
   5.9894047  11.4119844  49.5698967   5.9366975  10.6684284  50.1703758
   5.4579082  12.0921097  49.9836273   5.9214587  26.0847530  22.7652550
   6.5389743  25.5032845  22.3216324   5.1942410  25.5152149  23.0162792
  82.4301758  50.3463936  33.3859596  81.6452255  50.7689819  33.0373764
  83.0198212  51.0710411  33.5943680  30.7428703  64.0520859  10.1562920
  30.3007088  64.0874786  11.0045090  31.3459625  63.3125610  10.2312479
   9.2926712  46.2324257  83.9789886   9.2266359  46.9601822  83.3607330
   8.7039843  46.4720268  84.6947250  23.8958092  45.2211571   5.4642792
  24.1836586  45.9536400   4.9194469  23.2315426  44.7771416   4.9371800
  24.0012207  44.9850807  87.0980759  24.7102528  44.6232681  86.5664749
  24.1527290  45.9301605  87.0881805  32.9554405  50.0197182  18.3437614
  32.0208015  50.0771942  18.5422001  33.0050621  49.4269333  17.5938454
  58.4929657  34.4137878  72.0588303  58.2617226  35.3356743  72.1723251
  58.9762230  34.1884537  72.8537674  35.8592606  55.2899895  45.1186371
  36.1602020  56.0252304  44.5847015  35.3738136  54.7341652  44.5090256
  37.9751511  43.2644882  15.3666019  38.7778168  43.4079857  15.8679676
  38.2737541  42.8863792  14.5394974  76.7169418  51.1068230  82.9031143
  75.9544525  51.1125984  83.4817429  76.5984116  51.8739700  82.3430481
  58.3689880  52.4626503  17.2659149  58.0156403  51.6655045  17.6608047
  58.0953217  52.4177208  16.3497715  55.7725830  41.1801033   2.5324898
  56.6250229  40.7447357   2.5263944  55.7322655  41.6394920   1.6937011
  54.4245872  27.4163322  17.2963028  54.4343452  26.4889717  17.0593605
  54.4353867  27.4191132  18.2534370  83.5895767  16.2087116  22.8474407
  83.8388367  17.1215649  22.7032127  84.1102295  15.7152643  22.2136745
  30.9033070  45.5604362  77.5567474  30.3585491  44.9927750  77.0115585
  30.9699631  46.3765068  77.0609512  62.2144699  35.6452980  53.0653038
  61.4920654  36.2357979  53.2790184  61.8555412  35.0590172  52.3992119
  72.1687012  42.7463226  78.1363144  72.1628876  41.9079628  78.5982132
  72.6480789  43.3367119  78.7175827  28.8104610  62.2531242  74.0202332
  28.5503254  62.5655899  74.8867874  28.2081585  62.6893196  73.4175720
  44.4779625  39.3769646  70.7161179  43.5605850  39.6109810  70.5751038
  44.9206467  39.6480675  69.9119034  82.5689316  43.1468468  12.9634075
  82.4359436  42.3206139  12.4987755  83.0906830  42.9092827  13.7299442
  52.2593842   7.8560195  10.3266354  52.8554993   8.0621004  11.0466433
  51.5623093   8.5080338  10.3987284  34.6244774  70.7118149  53.9196663
  34.2473335  71.5821915  54.0478935  34.5560722  70.5575790  52.9774551
  77.2013702  61.2485313  24.1809311  77.9316940  61.1618271  24.7935905
  77.2183685  60.4381523  23.6717854  74.9091568   5.2889395  10.8969412
  75.7016144   5.8245921  10.8606319  74.3441696   5.6505027  10.2140827
  12.1999111  40.3078232  31.3353500  12.4134636  41.2210541  31.1439457
  11.5085220  40.3568192  31.9955101  10.5208044  35.6046944  60.2742233
  10.5370884  35.0112686  59.5233459  11.2114077  36.2416916  60.0910988
   0.6321485  24.9814415  18.7785873   0.2298366  24.1128941  18.7767773
   1.3309768  24.9230595  18.1270790   4.5297275  13.9894228  82.3725510
   3.7439120  14.5099583  82.5391922   5.1709919  14.6212158  82.0472107
  34.1313210  56.2575645  88.6302338  33.8315086  55.6748695  89.3279572
  33.3382454  56.7040558  88.3337479  13.2073641  40.6057625  33.9965858
  14.0211859  40.7969437  33.5303535  13.4906273  40.2052650  34.8185310
   4.1614232  22.4447765  16.3753471   4.7970505  22.9972153  15.9203510
   4.6919055  21.7756195  16.8078384   8.4082117   3.6765149  20.9232349
   7.5974226   4.1134000  20.6624985   9.0973434   4.1566753  20.4641323
  63.5040817  36.0025368  30.5695934  62.9349785  36.5121918  29.9928741
  63.5808449  35.1511269  30.1389675  48.9770660  35.7404251  61.7516098
  49.8119659  35.2980309  61.9047775  49.1572495  36.6623611  61.9354515
   3.8402307  30.9024906  68.6124191   4.3352818  31.7216339  68.6250839
   3.1425331  31.0541229  67.9748764  26.2705402  12.3449841   5.5830917
  25.3167992  12.2781620   5.6294093  26.5873184  11.6727362   6.1863885
  23.4180183  18.3688221  19.5132580  24.2516308  18.5168686  19.0667095
  22.7540722  18.5650139  18.8522587  34.5623169  68.6664505  30.1711788
  34.9920769  67.9606705  30.6542988  33.9009552  69.0026016  30.7760277
  73.2393875  37.0964203  15.5319185  73.3776550  36.1569901  15.6526785
  72.4958496  37.3037872  16.0979443  19.2082729  54.8538666  79.6324997
  18.7471046  54.6826134  78.8113861  20.1097317  54.5806007  79.4624023
  69.6222610  17.5411396  57.0906982  68.7449265  17.8120708  57.3610916
  69.4736557  16.8007488  56.5025063  77.4507523   6.4479852  11.4549513
  78.0693359   6.2019649  12.1427488  77.7280884   5.9420042  10.6912117
  30.5501842  14.0794592  18.8760967  31.0883369  13.6330147  19.5297871
  30.1544952  13.3715420  18.3676529   0.1532523  25.6040497   1.4083555
   0.4194137  24.8140831   0.9378868  -0.5411004  25.9818096   0.8685375
  30.2669868  29.7882824  76.9493484  30.3596764  28.8578243  77.1540146
  30.5470352  29.8618927  76.0369949  55.8731117  31.2337799  11.3946857
  56.7890167  31.4878616  11.2815914  55.4459457  31.5104637  10.5840034
   7.4759803  44.5456200  10.2637539   7.5211124  44.2291107   9.3615255
   8.3755236  44.7952271  10.4752922  23.1800690  27.8104153  79.2129593
  23.9484539  27.2831573  78.9942932  22.4352016  27.2597637  78.9717407
  48.7477837   7.0414910  71.5420532  48.5516129   6.1153917  71.6837921
  47.9790573   7.5031395  71.8769684  81.8757553  11.0260649  46.3527794
  82.7519989  11.4091883  46.3122177  81.4174805  11.5457191  47.0132141
  18.5455379   8.6346617  84.0183487  18.5008392   8.7817802  83.0735855
  19.0527973   7.8282790  84.1114502  37.3245201  43.9366646  32.9911079
  38.2439117  43.9683952  33.2555733  36.8409843  44.2022743  33.7733345
   8.4727392   8.1909313  83.9611359   8.0193243   7.3907099  84.2262650
   7.8284063   8.8863297  84.0933762  85.1281738  26.8525105  16.4216690
  84.2174606  26.6507149  16.6364212  85.5242615  26.0015163  16.2341709
  76.7444534  27.2742767  45.1071472  77.6527481  26.9725170  45.0937920
  76.2249222  26.4703388  45.1051483  26.7031765  42.5411339   7.9500542
  27.1119080  41.7114067   7.7036381  26.6348705  43.0277519   7.1286097
  16.1702805  23.8843594  83.9098282  15.3379917  24.2270031  84.2355957
  16.6486874  24.6587772  83.6138000  71.0274200  52.7655869   6.6405482
  70.8439102  53.5228081   7.1965809  70.1666107  52.3901291   6.4554391
   4.0693593  59.2022667  59.9243469   3.6458342  59.5348701  60.7156982
   4.4742055  59.9733810  59.5272141  74.0489655  71.1926041  13.5171633
  73.8478470  70.4351349  12.9675980  73.2289734  71.6848907  13.5558958
  61.6512108  37.5075493  17.7470245  60.7735901  37.3994598  18.1135330
  62.2394638  37.2204628  18.4454327   8.3372326  23.2941074  41.8638687
   8.1469917  22.5080547  41.3518524   9.0422220  23.7281170  41.3833923
  60.7175560  24.2961483  60.3464546  61.3279991  24.9112511  60.7529526
  61.1014786  23.4346199  60.5095634  80.7696304   8.1954651  30.8926926
  81.4398117   7.5546398  30.6551380  81.1523285   8.6830664  31.6220875
  78.4085083   0.3648451  56.5194931  78.0710907  -0.4039422  56.9792213
  78.0802612   0.2722866  55.6251106  18.6584358  29.8726902  23.7061081
  18.7354507  28.9713631  24.0190163  18.9797401  30.4067192  24.4326134
  20.9101372   6.0632777  89.2304688  20.8140545   6.1191201  88.2797394
  21.7383270   5.6013761  89.3607788  68.8639450  19.1430073   6.3419008
  68.1052551  18.6804790   6.6978302  69.2765884  19.5486050   7.1044297
  33.7174034  27.7037563  26.8544312  33.2587280  27.8125172  27.6875114
  34.5970688  27.4179516  27.1008720  21.0711765  31.6229630  22.8404617
  20.2412643  31.4047623  22.4163551  21.1702652  30.9630184  23.5266724
   2.0100577  24.3972931  77.8836441   1.7808754  25.2769470  78.1835022
   1.2529696  24.1142044  77.3708954  41.1464043  57.4183807  38.3714561
  41.1198997  57.0359497  39.2485428  41.7494583  58.1575012  38.4505653
  75.3116837  25.4325581  69.0544128  76.2391815  25.3328934  69.2690201
  75.2679596  26.2469368  68.5533142   6.4940419  34.6140404  88.7013855
   6.1014276  33.7541847  88.8521729   5.7471638  35.2058487  88.6110153
  16.6066055   6.2804546  47.1494560  17.4587803   5.9915524  47.4758987
  16.0191765   6.1889453  47.8996429  40.8327217  51.3288651  47.0335083
  41.1023064  52.1896820  47.3537445  40.5721741  51.4820099  46.1252708
  43.8102837  43.2126389  69.7644348  43.3402023  42.8785324  69.0004807
  43.5704689  44.1383209  69.8072586  49.4677658  24.0263348  35.8822441
  49.3090477  23.0876274  35.7829056  49.0342865  24.4237823  35.1270218
  41.7107964  58.1677361  66.4544144  42.0606728  57.9468727  65.5912552
  41.0488815  58.8369484  66.2804794  74.7471619  44.0961380  43.0090256
  73.8403473  43.8145523  42.8880653  74.9132462  43.9739418  43.9437523
  22.1056175  23.4470806   4.7712994  23.0510807  23.3571815   4.8906708
  21.7972965  22.5536346   4.6198926  23.2214489   1.3778048  39.1398735
  22.9687958   2.1952071  39.5691223  24.0007858   1.0889032  39.6146393
  79.6204605  61.8240509  71.1167679  79.9445953  62.3075943  71.8766022
  80.4004669  61.4135284  70.7435532  12.5962868  39.8043289  21.3577271
  13.1562614  39.3190117  21.9636364  11.9708338  39.1545944  21.0369701
  58.1129570  16.1676311  77.4348068  58.3594055  16.5121861  76.5764465
  58.4896278  16.7878761  78.0590210  53.7763824  13.7451038  11.1041880
  54.5870209  13.2949162  11.3417339  53.4488373  14.1005192  11.9304008
  15.4809427  23.3775330  28.4982204  16.1667328  24.0324554  28.3678360
  14.8925419  23.4951382  27.7524414  75.0388565  67.5637817  86.9915924
  74.9617615  66.6122513  87.0614853  74.1782150  67.8934402  87.2501602
  17.8138676  51.0314941  42.3678894  18.6450539  51.2091217  41.9276505
  17.2438698  51.7537422  42.1039009  60.9192276  45.0528221  29.7373295
  60.0197449  44.7583199  29.8802567  61.2573090  45.2251892  30.6160908
  62.3134537  50.4147072  87.6787567  63.1190071  50.1932602  87.2115555
  62.5377502  50.3141747  88.6038589  81.7491760  31.6226044  36.3857956
  82.2522278  30.9033527  36.0038948  82.3313217  32.3801003  36.3263054
  65.7944183  52.4155502   5.3419175  65.6326523  51.8065033   6.0624213
  66.3193130  51.9142952   4.7178535  55.2245636  59.5097084  83.4846649
  55.6719589  59.0370483  84.1865616  55.7403183  60.3073616  83.3664322
  14.7612171  42.1327324  74.9893341  13.8060093  42.1874428  75.0179291
  15.0084867  42.6574097  74.2278900  11.4277382   7.3710279  29.7058945
  11.8320398   6.6310143  30.1588326  10.8764610   6.9688115  29.0346661
   4.4594293  21.8989620  26.3477516   4.9220595  21.8425312  27.1838264
   5.1385956  22.1275711  25.7131634  49.1135254  62.2786217  59.8739624
  49.3782845  61.3593636  59.8408508  49.1467056  62.5703888  58.9629173
  14.5015745  39.1707497  60.1882095  14.4344187  39.0816383  61.1388855
  15.4417839  39.2311707  60.0191345  45.6969833  57.5614319   3.1666338
  46.5972404  57.2475624   3.2518144  45.3103104  57.0003471   2.4944007
  37.8184586  68.8695450  40.2047882  38.0697479  69.3732758  39.4306145
  37.7075882  69.5262985  40.8922615  72.0956421  59.4017410  24.7732773
  71.9707260  59.0040550  23.9116058  72.8949432  58.9970284  25.1102562
  45.5697899  56.0036087  36.0161018  44.6432228  56.0681648  36.2474937
  45.9863205  56.7214813  36.4929657  70.0003510  68.6730881  31.9521885
  69.4096985  69.1070099  32.5678749  69.5117569  68.6469803  31.1294956
  69.5618820  37.0726852  83.5297699  69.8453522  37.7564774  82.9228897
  69.3934708  36.3127632  82.9726486  11.7721090  62.8891525   6.3291926
  11.8581638  62.0039253   6.6830258  12.6227016  63.2963753   6.4931865
  41.1918030   2.5556364  25.2144566  41.2649765   3.0949438  24.4270401
  42.0337715   2.6625178  25.6570587  69.7517242  39.8722229  18.8620510
  70.0570755  40.7526245  18.6432247  68.8148956  39.9778900  19.0276241
  71.7959061   3.5930021  22.0173817  71.8594055   3.7265151  21.0716686
  71.8219528   4.4759111  22.3861980  66.1695251   4.3405309  33.5115700
  65.9588089   4.9439139  32.7989960  65.8856888   3.4840560  33.1920052
  84.8394547   3.4740341  85.7187958  84.6739655   3.4440749  86.6611099
  84.2637863   2.8024201  85.3530502  59.2183266  60.2350883  60.2622032
  58.9115791  59.3339043  60.3622322  59.2697906  60.5712852  61.1569443
   4.8609543  63.5545959  44.3399162   5.7230988  63.1456375  44.4153709
   4.6516337  63.8381157  45.2298813  65.3675537  55.8998032  29.2541885
  64.9082108  56.2818336  30.0020428  65.8195267  56.6391335  28.8475647
  50.7281113  40.0233192  57.2757301  51.6814690  39.9737549  57.2058678
  50.4090042  39.3371124  56.6896248  77.7665024  68.5401917  65.8875732
  78.0915146  67.8313904  66.4427338  78.4471970  69.2116013  65.9333267
  13.3797092  56.7986259  12.0973291  12.7544670  57.3744392  12.5374937
  14.1150045  57.3694191  11.8742447  73.2017288  58.8363152  11.9138813
  73.2323761  58.0903740  11.3148270  72.4832382  59.3772812  11.5862293
  33.3883400  21.3299351  88.8701324  33.9531746  21.8389111  88.2886353
  33.9945679  20.8138809  89.4015503  68.8298035  26.7372284  20.4417744
  68.3259659  26.4071922  21.1857224  68.3826447  26.3824615  19.6733856
  66.6699066  64.7822189   5.8856988  65.7940674  65.0789948   6.1327963
  66.8061371  65.1416321   5.0090580  80.3921661  13.4653921  84.8135605
  81.2951279  13.2870092  85.0763626  79.8617325  13.1312284  85.5368881
  72.0529175   2.8324947  25.5411930  71.8982239   3.7118008  25.8863354
  72.7438507   2.4745307  26.0985966  32.8287430  54.6564560  74.1577072
  32.4783936  53.8266792  74.4816818  32.2290764  54.9123192  73.4568787
  54.6889114  50.4342728   4.3674450  54.1122704  50.9754257   3.8281219
  54.1783676  49.6445236   4.5459743  63.7223434  29.2850723  15.9607859
  63.7969055  28.9915829  16.8688259  64.0290527  30.1916733  15.9761457
  23.2863483  31.5596504   0.3683139  23.4043064  30.9134750   1.0645707
  22.8797417  31.0699234  -0.3465776  75.9587097  16.2630501  77.0311966
  75.4095001  15.6568012  76.5341415  76.8427505  16.1160908  76.6948853
  65.5764313   3.9442368   2.1246083  65.3589172   4.8266654   1.8242130
  66.1672058   3.6017189   1.4538585  31.8075428  63.9356766  42.5431480
  31.0761662  63.3706627  42.2939911  32.4069290  63.8941536  41.7980042
  56.7204247  38.0401192   6.8090773  56.7288094  38.1218529   7.7627439
  56.5274963  37.1162338   6.6495566  36.7906570   1.9257354  37.0475044
  35.8954124   1.9771197  37.3823624  37.0077782   0.9942917  37.0862656
  55.3438034  18.9470634   9.0721235  54.6043472  18.7159805   8.5099545
  54.9431915  19.1917324   9.9063177   9.0550814   4.7723389  77.1121750
   9.6386576   4.1676970  76.6538315   9.5573483   5.0577145  77.8754044
  10.6163492  34.5666084  35.0792770  10.1625385  34.0665970  34.4008408
  11.2133045  33.9362755  35.4824562  72.9934540  26.3882294   6.7627969
  72.2555618  26.7176723   7.2758384  73.7495956  26.8748074   7.0910163
  41.3195724  41.7015114  32.9211769  42.0379715  41.9719124  32.3493195
  41.5352020  40.8020821  33.1676750   3.5595455  15.6803284  19.6707745
   3.3326442  15.6808834  18.7408562   2.7588699  15.3974504  20.1125107
  25.7380886  67.9566727   2.6049249  25.1964817  67.3473511   2.1033094
  26.4691277  68.1627121   2.0223751  40.5678902  68.6255875   9.9326935
  41.5166626  68.7509460   9.9139948  40.3201828  68.5342789   9.0126190
  44.3673477  48.2240829  36.6494789  45.0533905  47.7427025  37.1119232
  44.7469635  48.4180336  35.7924461  67.0745544  59.9861565  67.0105438
  66.4577637  60.6360359  66.6737137  67.7424316  60.5016174  67.4627228
  51.5702553  60.0250778  40.7501526  52.4082069  59.8248520  40.3330421
  51.6073723  60.9658585  40.9227486  12.0801888  27.9771023  85.8542709
  12.6674547  28.0261917  85.0999832  11.5005589  27.2408047  85.6590118
  46.6981430   8.5055037  77.8173676  47.1319199   9.0516453  78.4729538
  47.0493851   7.6276622  77.9665527  60.1808929  54.3519630  59.3736839
  59.5378571  54.0339890  58.7399406  60.6322670  53.5628624  59.6733665
  23.0011578  54.6968384  85.6826553  22.2543831  55.2487488  85.4503860
  23.7672100  55.2087440  85.4231415  71.0479965  68.1970367  82.2132950
  71.0441513  67.7437592  81.3702316  70.1237946  68.3598251  82.4019241
  51.9259644  44.2583427  17.9145813  51.4120064  44.8730240  17.3908997
  51.3480263  43.5049057  18.0352173  65.2020721  20.2233391  85.4811783
  65.9935837  19.7789021  85.1775208  65.3949356  21.1549244  85.3754120
  84.1094208  34.1681366  67.8321991  83.6034393  33.8523407  67.0835419
  84.8366699  34.6532288  67.4422913  50.3369064  43.5990181  12.6632738
  50.6935730  44.2315483  12.0396366  50.8013802  43.7802696  13.4803696
  22.3633080  45.3324471  74.1166000  21.5644608  45.6493149  73.6950912
  22.6654091  44.6204224  73.5526886   2.9294896  39.2804832   7.5318675
   2.9778416  38.3694801   7.2420907   3.8357291  39.5877380   7.5082936
  21.4918194   3.2389486  60.9519119  21.1494465   2.8627617  60.1410522
  22.3578262   3.5708325  60.7150192  46.0214081   1.4766392  52.1412201
  46.0125580   1.6664295  51.2030640  46.7641716   0.8844301  52.2587814
  70.2040100  60.5735435  15.0653973  69.6641312  61.3463097  14.8992767
  71.0498276  60.9270058  15.3408670  61.4045753  18.5707264  31.8472977
  61.6775742  19.0781403  32.6116524  62.2080345  18.1522083  31.5382252
  43.3868866  15.5094357  19.2658939  43.2340927  14.5660563  19.2118492
  42.5982132  15.9016571  18.8912048  55.6078529  21.1580696  67.7121964
  56.2129021  21.4865017  68.3772354  55.5611534  20.2160053  67.8751907
  55.0698280  19.4714165  87.1219635  55.0523262  18.6323051  86.6617279
  54.1596489  19.6244411  87.3757172   6.5158777  52.5519714   5.0544577
   7.2166333  51.9048576   5.1345763   5.7475076  52.0423508   4.7973080
  34.0025558  53.2522011  66.3995590  33.1295929  53.6135025  66.5532684
  33.9231224  52.7778282  65.5719757  83.9607544  38.6611786  38.3285332
  84.1737213  39.5941315  38.3066521  83.7652969  38.4816322  39.2482033
  16.2570229  19.2934971  83.9869614  15.8371410  20.1533146  84.0123291
  16.0413322  18.8966293  84.8308792  37.5279388  67.5145264  61.9057884
  38.1314621  67.4086685  61.1704102  38.0349808  67.9876251  62.5655746
  16.4635162  60.1882973  66.3590164  15.6906233  60.4977341  66.8313675
  16.5757427  59.2833672  66.6501083  83.6007233  41.3218956   1.2786310
  84.3469543  41.1311646   1.8469537  83.3698578  42.2281837   1.4825248
  68.9319382  26.6191635  65.7013397  68.6171036  25.7849808  65.3531265
  69.6608734  26.3799419  66.2737503  76.0562210  67.3566589  44.8952446
  76.4206161  67.8682404  45.6175499  75.5866623  66.6401138  45.3222313
  73.6545792  68.4044342   3.8992174  74.2101822  67.9254150   3.2843397
  74.2276077  68.5940933   4.6421142  50.2905884   5.5863314  57.1582832
  51.0474358   5.7484646  56.5951462  49.6295700   6.2093334  56.8563652
   3.9493878  58.3609085  34.0239296   3.4732449  57.9200859  33.3202286
   4.6872263  58.7843933  33.5851974  39.9738922  52.5352783  40.2660217
  40.9062614  52.7259026  40.3688736  39.5394287  53.3740082  40.4209518
  80.0713730  44.8785515  22.1072216  80.0954742  44.2888565  21.3536243
  80.4379730  45.7001076  21.7802906  74.4384003  60.0467987  36.9742355
  74.4740067  60.9815521  37.1772041  74.5859680  59.6133881  37.8148346
   0.0719636  28.5517349  15.0455141   0.9068188  28.3039417  15.4428139
  -0.5806459  28.0338306  15.5167971  70.3094406  30.5889931  50.8499146
  70.3621445  30.6062260  49.8943214  70.6383820  31.4452839  51.1234131
  73.9923859  62.8019676  10.1093798  74.3508911  63.0954857  10.9469671
  74.7308121  62.3845024   9.6658936   9.5468502  52.9717598  41.2505760
   9.9481325  52.6257820  42.0477600  10.2797155  53.3292389  40.7492294
  75.8818970   1.9462022  23.2417889  75.8641586   2.3296399  24.1186543
  76.4634094   1.1902055  23.3226795  57.4110184   4.9524274   9.4488506
  57.2724037   4.0365868   9.6902084  56.5353241   5.2821403   9.2471552
  15.2198601  25.5875034  21.6241932  16.0371666  25.5748196  21.1261158
  15.0821457  26.5109921  21.8349876  43.7293549  60.7234917  79.7519455
  43.5059738  59.8050499  79.6009445  44.5694351  60.8416748  79.3086319
  64.7402573   5.8776779  24.0830383  64.8931198   5.0280776  24.4966125
  65.6140594   6.1911926  23.8497734   8.6851358  61.8748169  78.5561295
   8.8580360  62.4870758  77.8409500   8.5151920  61.0395737  78.1205673
  53.1218376  70.9954453  44.6801758  52.2911339  70.7344360  45.0777168
  53.1968079  70.4464264  43.8996696  76.9912872  21.7734070   3.7869172
  76.8856277  22.6589050   3.4391224  76.3216858  21.2579842   3.3372502
  68.2743988  30.2497959   5.7460232  69.0467834  30.5183125   6.2435627
  67.9705582  29.4556007   6.1855340  74.6219559  36.5599709  43.4595032
  73.9033890  37.0281639  43.0344276  74.2212753  35.7563744  43.7910538
   3.4784029  50.0095253  40.1269646   3.8639982  49.1359634  40.1935768
   3.6463828  50.2772179  39.2234383  54.2667732  41.1027222  75.9699783
  54.8152122  41.4408340  75.2620697  54.4058647  40.1559067  75.9493713
   0.6098287  59.6500244  42.1375504   0.1127248  60.1831322  42.7579689
   1.3606863  60.1947746  41.9015579   1.8652135  21.6247540  62.6069946
   2.6907241  21.1449871  62.6747246   1.4154297  21.4452496  63.4326515
   1.9033235  52.5813980   7.0164418   1.5044767  51.8272018   7.4504209
   2.7940652  52.6150436   7.3652673   5.0866365  67.4826736  31.8686543
   4.3266144  66.9845047  31.5679398   4.7307000  68.1003036  32.5074615
  61.8129158  29.9195366  22.6923752  61.7669296  28.9634438  22.6940670
  61.1016846  30.1945572  23.2709484  10.0847244  47.7326241  65.1148911
  10.4579906  46.9270058  65.4725037   9.2576475  47.8422699  65.5840988
  85.4469681  66.1802979  56.7562790  86.0890350  66.5834808  57.3405876
  85.2233429  65.3521805  57.1810646  52.4635277  58.7011833  43.0181046
  51.9842491  59.2438583  42.3919830  52.4360352  57.8211594  42.6425667
  75.5311279  19.2028790  29.6989975  75.3204117  19.0980148  28.7711868
  76.4408569  18.9142876  29.7721043  12.2623339  29.9898300  88.0038452
  12.3764820  29.4381790  87.2299728  11.6726885  29.4906406  88.5689697
  58.0761337  44.2426262  83.8520889  58.9436531  44.6095238  84.0224686
  57.4681320  44.9349823  84.1113358  82.0060806  46.1925850  38.0163231
  82.4531403  46.9332237  37.6066589  81.5319366  45.7723618  37.2988014
  78.5044785   4.3537579  75.1687469  77.7752228   4.8038397  74.7423096
  78.9595032   5.0417600  75.6543732  78.6620331  14.7595940  46.8771057
  77.7425232  14.9989500  46.9930420  79.0516434  15.5132227  46.4338493
  44.8801651  48.3769951  42.2454643  45.7498322  48.1434479  41.9208641
  44.2990761  47.7146797  41.8714294  61.9995384  20.5541897  20.1366653
  61.7065048  20.7797012  21.0195637  61.3042259  20.8773746  19.5636730
  41.9733887  64.6721115  14.4859867  41.2984848  65.2558670  14.1396170
  42.6993752  65.2532806  14.7127523  18.2204475  10.0361919  41.3545456
  19.1539497   9.9960356  41.5623703  17.7829113   9.9646168  42.2028770
  76.5263672  16.6412258  88.2544479  76.3469849  17.5562649  88.0382080
  77.3718567  16.4594669  87.8441544  47.2032127  56.4265556  15.1218185
  46.3321724  56.7014084  14.8355131  47.7377968  56.4602470  14.3285246
  14.9553766  45.6689835  75.1698380  14.1508808  45.9663162  74.7448502
  14.9235783  46.0599022  76.0429916  82.4736099  42.2868576  85.4138184
  81.9077454  43.0561256  85.4790878  82.3191299  41.8062019  86.2270432
  51.2814903   7.6174130  70.5021896  51.2961082   7.3545465  69.5819092
  50.3579102   7.5721846  70.7495575  47.5443115  47.3787498  31.6669941
  46.6083908  47.4896278  31.8342838  47.6450119  47.5684319  30.7341976
  63.7368584   4.1185937  57.6094513  64.3187408   3.5104406  58.0652962
  63.5513496   4.8013377  58.2541809  52.0286331  69.3099899  88.5096359
  51.1097908  69.0511322  88.5799713  52.0147476  70.0969086  87.9648361
  39.4879723  43.8893356   4.4571719  40.2908401  44.3509903   4.2152815
  39.6082115  43.6674080   5.3804936  33.8230095  56.0685425  24.1393394
  34.4382973  55.9530907  24.8634434  33.0348625  55.6023369  24.4181004
  76.9128189  58.4618721  36.3656120  76.0770340  58.6159477  36.8060188
  77.4571762  59.2079697  36.6170959  45.3167839  42.5594101  25.4231987
  45.4657402  43.4241257  25.0406914  45.1591339  41.9887314  24.6710663
  56.4792671  44.4030380  87.7742081  56.2832985  43.8190765  88.5068817
  56.4358330  45.2821579  88.1503601   7.7823639   5.0975380  68.0508652
   8.4140043   4.7098198  68.6566162   8.2441616   5.8436756  67.6684341
  61.2917213  52.1211700  46.0177155  61.1055489  51.4368820  46.6606178
  60.4590797  52.2582321  45.5658836  19.2172585  68.2559280   7.3445296
  18.5909958  67.5589218   7.5400114  19.0502777  68.9219284   8.0114565
  43.9430885  63.6820068  54.8559113  43.0354004  63.8497772  55.1092682
  44.2960320  63.1490707  55.5684013  73.5864029  13.6444378  59.6572113
  74.1980438  12.9318943  59.4717178  73.5259094  14.1286335  58.8337250
  65.4678650  27.4471951  14.9135103  64.7809906  28.0438519  15.2108879
  65.4069443  26.6976566  15.5057220  80.9831314  26.6868973  43.5038872
  81.9329910  26.5988483  43.4249306  80.7654800  27.4378777  42.9517212
  10.1562920  40.9961090  22.8665009  10.9565992  40.8406181  22.3649406
   9.6834831  40.1647758  22.8268909  29.4311104  52.6909904  15.4801159
  30.3222923  52.8832130  15.7718010  29.5389042  52.0172539  14.8087835
  48.9597778  54.3487015  74.8924713  49.4931297  55.1295967  75.0407028
  49.3848076  53.9040337  74.1590881  77.5285187  53.2642593  26.4160500
  77.7270813  54.1659164  26.1634274  78.2684097  53.0002937  26.9629707
  84.7895432  55.0127792  12.2548141  85.5115509  54.7117195  11.7031727
  84.8009033  54.4218750  13.0077658  17.1133385  26.2591801  82.5342331
  17.6379910  26.3939571  81.7450562  17.7119350  26.4525280  83.2557144
   1.7340034   6.7149973  45.8187294   1.1101739   7.4246597  45.9718552
   2.4839592   7.1408048  45.4034157  79.6210251  14.4086580  55.6960907
  79.8740005  14.7231369  56.5640411  80.3737793  14.6092415  55.1398811
   5.0431819  43.3006859  75.6252518   4.9384866  43.6953163  74.7594986
   4.3967061  42.5951042  75.6466217  48.2488670  41.2399178  30.5083103
  47.9981003  41.4252319  31.4132996  47.9590454  42.0087395  30.0172424
  64.0856781  58.1425171  64.9096298  63.5866127  57.3690834  64.6470261
  64.9057083  57.7918015  65.2571793  60.2001991  52.9256973  21.5374660
  59.9578438  53.8261871  21.3215504  60.3306427  52.5027122  20.6887608
  22.0211792  18.3702774  27.3889923  22.8398037  18.0729504  27.7860832
  21.3503914  18.1637154  28.0398426  29.7200661   2.7160461  27.4383545
  30.6275120   2.4132247  27.4055824  29.3116913   2.1761405  28.1150856
  22.1780663   4.3946900  21.0830917  22.4647388   4.0384970  21.9240303
  21.2304115   4.4931483  21.1752224  20.5808163   5.8072453  26.1654301
  21.5128288   5.7395506  26.3728008  20.1626816   6.0045614  27.0035591
  69.6500015  50.6315002  57.0533485  70.5166168  50.6851273  56.6504478
  69.2020569  51.4266472  56.7647018  22.6744919  67.2380295  52.9491234
  22.7234383  68.1816025  53.1024857  23.2573032  66.8579865  53.6064835
  75.1610718  66.3681412  29.0280800  75.8322830  66.2138290  29.6928329
  74.6334763  65.5694656  29.0305233   1.8177073  33.2286110  19.8332729
   2.5525410  33.8365097  19.7513485   1.1739475  33.5441895  19.1990681
  66.9328613  11.2229271  58.8277168  67.8256836  11.5408821  58.6935158
  66.5958405  11.0752869  57.9440613  46.5444794  57.2382240  42.2644501
  47.4730911  57.4433556  42.3732376  46.1284714  57.5853653  43.0535393
  14.3011770  31.1910324  38.0683708  14.2242384  31.4629784  37.1538429
  13.4449673  30.8194122  38.2805824  24.1076317  31.6955414   9.2892351
  24.6005611  32.3222389   9.8188601  24.4123363  31.8462543   8.3944321
  52.3144531  35.8455734  30.8438263  51.9146881  36.5920906  30.3975868
  52.7500038  36.2272758  31.6059475  67.9792252  22.4313774   8.9557600
  68.6859665  21.7929440   8.8601027  68.4053345  23.2077579   9.3189373
  77.5758438  24.6616783  15.8989544  77.5407791  24.9352036  14.9823370
  76.6844254  24.7925072  16.2222080  75.8366089  42.2781601  50.5407333
  76.3883896  42.7522850  51.1627998  75.0854187  42.8543205  50.3993645
  63.0246239  58.1673088  58.7749825  62.4227028  57.8454285  58.1039276
  63.4584885  58.9171104  58.3678093   8.8505316  18.1095314  11.6321831
   8.7487888  17.1983643  11.9072351   9.0967665  18.0549126  10.7088108
  50.5214310  27.4037228  11.9681139  51.1643944  27.2284603  12.6552181
  49.6897621  27.1059494  12.3367405  54.6886024  70.9171677  67.0528641
  54.3409042  71.5162430  67.7135010  53.9124832  70.5222092  66.6555099
  14.5514183  11.8521194  22.7810574  15.3007021  11.4225712  22.3683910
  14.6717472  11.6958866  23.7177238  16.9921627   1.9724497  10.3292246
  17.3903999   1.5608225  11.0961676  16.8055077   1.2444135   9.7364731
  12.9974785  39.4290581   1.2220448  12.2825985  40.0005798   0.9417916
  13.7488756  39.7123413   0.7010969  15.4031429  54.7163849  55.3313103
  15.7867250  55.0260201  54.5108109  15.7717142  53.8413849  55.4528313
  21.7273502  66.9836426  57.6214485  20.8305874  66.7893524  57.3488655
  21.6884174  67.0017776  58.5776825  43.2804375  67.0858841  26.1598625
  42.5417786  67.2806702  25.5830860  42.8764915  66.8495865  26.9948616
  64.7761230  15.8243628  15.8499060  63.8822784  15.6391335  16.1379337
  64.9463654  15.1768370  15.1658297  29.2096462   2.8546178  24.6071033
  29.4176102   2.8490131  25.5414238  29.4673100   3.7271650  24.3096104
  67.9376068  63.4149361  73.8848648  68.4688873  64.1887894  73.6974487
  68.5713348  62.7013016  73.9579697  53.8115768  43.2518120  77.4994583
  53.9850998  42.4500084  77.0062790  54.6766548  43.5564117  77.7734833
  34.6760826  58.8096046  43.0369682  35.6257858  58.7343636  42.9440575
  34.5261307  58.7966118  43.9822578  29.7577114  35.2728539  22.7590637
  30.1446018  36.0033379  22.2764225  29.3955746  35.6731033  23.5495625
  41.6625595  60.8311424  44.0899048  41.1675758  61.0527840  43.3011703
  41.4786148  61.5476570  44.6973610  52.5253067   6.7585320  15.0857000
  51.9899368   6.0015368  14.8478565  51.9552231   7.2899647  15.6414137
  73.8310471  38.4449577  79.3277206  73.9806824  39.3123055  78.9514847
  74.3997726  38.4162598  80.0971069  14.1019106  34.5779991  12.1123343
  14.6474733  35.0538483  11.4861069  13.3077745  35.1069374  12.1885118
  49.8708038  60.6783714  62.4566002  50.3225098  60.0762939  63.0479469
  49.8755493  60.2313881  61.6101875  25.7025890   3.6118355  10.4357691
  26.0943089   3.9922013  11.2219696  25.2240162   4.3359795  10.0322657
  43.0134430   4.4555182  67.6963806  43.4673119   4.3165269  66.8651657
  42.5464821   5.2827873  67.5788879  28.2041435  66.0140686  13.5192900
  27.3620510  66.4498901  13.6503134  28.8538036  66.6596603  13.7974672
  16.8018169   1.6051257  66.2397079  15.9583702   2.0493827  66.1533203
  16.5828629   0.6733045  66.2393494  22.8961697   2.7189398  57.9310493
  22.4454536   3.1389921  57.1984901  22.2359867   2.1466544  58.3220444
  36.6063728  29.0554276   9.9622307  36.3811760  28.1322880  10.0776968
  37.1977539  29.0653763   9.2096367  53.1003265  21.4140186  66.7014160
  52.9374847  20.4716682  66.6602783  53.9954376  21.4881802  67.0323410
   9.7093945  23.8204308  22.0049477  10.4979715  24.2743359  21.7077103
  10.0361128  23.1049461  22.5504475  17.8276253  57.3141441  72.0959702
  18.2259998  58.1670341  71.9224625  17.5974121  57.3417931  73.0246582
  79.2632599   8.9026661  27.4964199  78.9313965   9.7693424  27.2619667
  79.2054901   8.8743734  28.4514561  25.5252285  36.0343895  56.2539444
  25.3418732  35.8015594  55.3437767  24.6615791  36.1469460  56.6510239
  66.6044846  67.7075348  28.6089401  67.4593658  67.3241501  28.8049507
  66.3878784  68.2205658  29.3874741  66.1373596  69.3689728  17.4645672
  65.2959976  69.7509613  17.2147198  65.9929657  69.0281219  18.3472919
  10.9926043  65.4511795  62.8058090  11.5835114  65.2865372  63.5406265
  11.5072250  65.9836426  62.1992760  67.0607300   5.1077452  65.1676636
  66.6350937   5.7676592  64.6203232  67.2711487   5.5693126  65.9793930
  85.6755295  37.3654938  45.7432594  85.9184113  37.5240593  44.8310661
  85.3060074  36.4824944  45.7427101  70.8268204  37.8273926  31.9885406
  70.4525681  38.7083931  31.9855614  71.0444260  37.6627045  32.9060135
  75.7152634  48.1505432  58.0864716  75.1598511  47.7513733  58.7561073
  75.2932816  47.9224548  57.2581367  36.3845291  70.2097168   7.3112378
  35.5511742  70.6683807   7.2045712  36.9427567  70.8324203   7.7769146
   6.0681152  61.6260757  63.8435936   6.5003276  62.4533501  63.6313629
   6.5671573  60.9651070  63.3636894  34.6557999  56.3587379  41.3213348
  34.5705986  56.7155914  42.2054329  33.9148331  55.7593040  41.2325630
  14.8797779  62.8181839  74.4404449  13.9670954  62.9138756  74.1682587
  15.1651649  61.9981728  74.0374908  56.7747383  64.0984573  74.5458069
  56.1064034  63.4871368  74.2362213  57.3331337  64.2492447  73.7831192
  20.3406124  47.5905952  62.2514877  19.4580021  47.9606285  62.2339554
  20.9176998  48.3509064  62.3231239  13.1053858  27.2514343   4.4886127
  13.2864742  27.5083599   5.3927298  12.6840258  26.3951683   4.5627613
  10.8309479  47.7337074  89.1622009  10.0871010  48.2957230  88.9452667
  11.5812092  48.3276825  89.1852798  62.3883591  69.7102814  42.9814911
  62.5412331  69.4893341  43.9002075  61.9704208  68.9314117  42.6141777
  24.6349201  12.9852514  18.3471680  25.5575237  12.7350140  18.3963108
  24.1849670  12.3524055  18.9068832  61.6626396  45.1774445  80.6374588
  61.5334892  44.5273781  81.3280869  61.9997559  44.6750832  79.8956909
  16.1077080  20.9256439  79.4355240  15.5076704  20.3136845  79.0092697
  16.9223156  20.4327888  79.5342255  23.3965397  39.2916412  10.8358002
  23.9478931  40.0411720  11.0603962  23.2472973  39.3776894   9.8942308
  83.9145508  26.3930225  76.1786270  84.6476746  25.9011497  76.5485229
  84.2315292  26.6901741  75.3257141  43.5042915  65.3989563   9.3408937
  44.3513908  64.9793472   9.4911757  42.9580421  64.7082138   8.9657688
  30.2169666  35.0590134  85.0243225  30.7777691  34.5119553  84.4743576
  30.2753792  34.6635971  85.8940735   7.9287333  40.2083931  -0.0757082
   7.7321386  40.1043015   0.8552846   7.1579542  39.8599014  -0.5236881
   1.9954597  56.2777786  64.1588364   2.3817160  57.0261574  64.6137695
   2.7458966  55.7496071  63.8866005  29.0986080  64.7227402  63.6337051
  28.8580780  63.8056068  63.5023994  29.7629204  64.6998825  64.3224716
  66.5634079  13.2229757  33.3934250  67.2601471  12.6438351  33.0845947
  67.0213394  13.9165516  33.8682709  80.8454208  59.2518425  56.1116524
  80.8559341  59.1848946  57.0664482  80.4646454  58.4242973  55.8177032
  75.7931442  50.9984932  26.7352695  76.3494110  51.7071342  26.4118156
  76.2331619  50.1984406  26.4479885  28.4663239   6.2446260  50.7257309
  28.9061527   5.4130807  50.9026871  29.1750126   6.8868599  50.6866417
  75.1516953  36.4715805  69.2012177  75.7576828  36.0436630  68.5963211
  74.5329895  35.7837944  69.4469528  70.3490219  33.3379631  46.7603760
  70.4455032  33.7148628  45.8858070  69.6490402  32.6918144  46.6668358
  47.8893166  52.2286491  86.6917419  47.7344551  53.1034966  86.3355255
  47.0637169  51.7643127  86.5538712  75.6661606  57.5883560   3.8289435
  75.3078613  57.7642632   4.6989498  75.6324158  58.4334259   3.3806660
  85.7166901  10.7633896  21.9237728  86.0011139  10.2805367  22.6997814
  84.8245926  11.0429716  22.1292725  46.7397232  21.9201488  19.3559818
  45.9762077  22.0013294  18.7844181  46.8818932  22.8047733  19.6928196
  31.1324539  63.3123894  15.7603979  31.4027386  62.5209923  16.2260857
  31.9334030  63.6305161  15.3438559   0.5549990  66.4757996   1.4261274
   0.2018756  65.6538773   1.0855659   0.1806732  67.1503448   0.8594728
   4.0648232  34.4430923  50.5301437   4.6121821  33.6988983  50.2795372
   3.1728196  34.0958786  50.5277824  28.7063370  34.1362419  13.6653023
  27.9248257  33.7494316  14.0600796  29.0811634  34.6793175  14.3587027
  79.4112930  33.6730042  34.1669579  80.2232742  33.9180183  34.6106682
  79.5006104  34.0366249  33.2860298   4.5145688  58.3117867  25.3908768
   4.1569872  57.4239159  25.3981972   5.1215420  58.3316498  26.1307564
  19.9323502  57.8371964  25.2439785  19.3055115  58.3074150  25.7937069
  19.4285336  57.1136131  24.8713779  22.4640331   1.2723446  54.5174904
  22.1573906   2.1435530  54.7688828  22.5606461   0.8039397  55.3466415
  60.7088203  22.2955341  33.2020874  59.8058357  22.5540485  33.0176239
  61.2416687  22.9740162  32.7873993  42.1964493  50.9282875  86.4342270
  42.3295364  51.5363159  85.7070312  41.5531197  50.2999077  86.1063538
  61.0524445   5.7710204  58.6813850  61.4823647   5.2792625  59.3810844
  60.7756233   5.1029353  58.0542793  58.7661819  35.3983345  78.9397278
  58.1823425  36.0562325  78.5621872  58.3058510  34.5686951  78.8131180
   9.5508118  66.4904022  48.5508194   9.6782570  66.1058273  49.4180527
  10.2115564  66.0679474  48.0020218  14.3995581  38.2249260  22.7091408
  15.0616703  38.5201721  22.0841045  14.4703426  37.2703896  22.7000294
  14.6696939  63.5915871  62.3207817  14.9714403  63.2900314  63.1776619
  15.3072195  63.2338905  61.7028427   2.8870487  24.0991230  61.3986168
   3.3659141  24.3085575  62.2005234   2.2699380  23.4155922  61.6597519
   5.3769636  16.5733242  33.7512436   4.8255372  16.7757950  34.5070000
   6.0488982  15.9850664  34.0957565  78.4161301  46.9136620  17.0385208
  79.0662918  47.6040535  17.1684647  78.2149658  46.6047668  17.9218941
  41.2222290  67.0843964  44.6252556  41.0237465  67.1606522  43.6919708
  40.3834076  66.8662338  45.0314713  38.6777229  69.0175476  71.9680557
  38.7852974  69.6320496  72.6940384  38.2278214  68.2663651  72.3547592
   9.2195940  60.8637314  51.0571480   8.4775829  61.4641724  50.9855881
   8.8702431  60.0170517  50.7790794  64.3688202   1.9089221  37.6805305
  63.9132843   1.2860937  38.2469254  65.2638779   1.5738766  37.6272011
   5.6571407  53.8870888  21.4796562   5.6884432  53.4021378  22.3043213
   5.7704158  54.8024445  21.7356319   7.4934845  68.1143494  15.1959715
   7.9764132  67.7333221  15.9293423   8.1615324  68.2846909  14.5319481
  12.4600077   2.8679726  22.8767204  12.9951324   2.5824902  22.1361980
  11.6884155   2.3023026  22.8468094  16.3705788  57.8823547  81.8578186
  16.5383892  58.3287659  81.0278854  15.7706146  57.1719589  81.6306305
  34.8169479  51.6723595  64.3473053  35.7380829  51.6694374  64.6075516
  34.8343658  51.8490639  63.4067154  15.3584881  60.3950691  73.2603073
  15.2180414  59.5180817  72.9033813  15.5301790  60.9412041  72.4931717
  83.9628983   1.5348777  83.8887482  84.2195511   0.6184733  83.9915237
  83.3069458   1.5231715  83.1917343   3.9036381  66.1905975  79.1027069
   4.5970306  65.8019180  78.5694427   4.3163548  66.3529129  79.9509659
  49.6470795  40.7061844  24.9477978  50.4754295  41.1845589  24.9827633
  48.9935837  41.3363419  25.2512436  86.3782196  17.0170059   6.8611259
  87.2785873  16.7266788   7.0070343  86.4266434  17.9724731   6.8922577
  74.9446182  63.3576355  33.6334496  75.0014420  63.9031944  34.4179039
  74.2136841  63.7265396  33.1375885  41.8374863  32.8210068  20.1122398
  42.5321274  32.6687851  20.7529697  42.1531868  32.4006805  19.3123074
  64.9239120   3.2611971  25.2949028  65.3891830   2.4271896  25.2301922
  65.3473740   3.7158306  26.0230618  55.3341255  63.1111565  59.5714874
  56.1180115  63.5435562  59.9102783  55.6315880  62.6612930  58.7806854
  54.2863388  43.1109848  85.5529785  53.3846893  43.3723602  85.7399139
  54.5471497  42.5902596  86.3126144  30.6680889  45.1067429  74.6127701
  30.2774277  44.4169922  74.0762405  29.9200935  45.5931091  74.9594421
   0.0168570  12.2261982  15.1850080   0.3688716  12.0925732  16.0650425
   0.4417230  13.0263624  14.8760452  22.1901474  69.0150604   7.5420713
  22.0410767  68.2449112   8.0905962  21.3421783  69.4583435   7.5160561
  44.6221123  64.3967590  37.9739685  43.8237572  64.8964767  38.1446915
  44.7687531  64.4937134  37.0330505  38.0613899  50.8228149  41.5172768
  38.8477745  51.1334229  41.0685539  37.3872566  51.4632568  41.2900963
   1.6046976  25.4273357  13.1465874   1.5016392  24.4757347  13.1383924
   1.6431555  25.6560936  14.0752544  30.0364017  13.1999598  82.7801361
  30.3308086  13.6338835  81.9793396  29.9282455  13.9108858  83.4118881
  77.0826111  33.7254410  59.8754921  76.1640854  33.8424950  60.1180763
  77.0657501  33.6011772  58.9265404  10.5723915  12.9115324  30.7452812
  11.2890987  13.3734798  30.3103466  10.6422834  12.0103188  30.4303799
  42.5664635   6.0512223  16.3194904  42.7497902   6.7871361  15.7354927
  42.5480728   5.2870579  15.7433424  30.2180080  61.8271523  36.2519760
  30.5323696  62.2789955  35.4688797  30.9232502  61.9350739  36.8901138
   3.8681083  43.0603714  25.4408512   3.1869087  42.5406075  25.8675175
   3.7826173  42.8501549  24.5109425  10.0075102  10.2554607  66.0162659
  10.0794849  10.3687496  66.9640045   9.2678471  10.8083773  65.7644424
  73.5867996  22.1680965  70.1916122  73.7616882  21.6026077  70.9438553
  74.2394104  21.9096298  69.5408249  38.1575661  58.3078194  76.7908859
  38.1204414  59.1167831  76.2805557  38.6549568  58.5416298  77.5745697
  42.0966415  36.3693962  76.2449265  42.0849838  36.5742912  77.1798706
  42.7307549  36.9825706  75.8732452   2.6070471  41.0971985   2.0255570
   3.0610945  40.3332100   2.3810799   2.4379492  41.6513557   2.7874942
  69.5238419  41.9691124  42.4384117  69.5306854  41.0529480  42.7155800
  69.4209213  41.9309120  41.4875259  46.1789474   1.5752741  42.9484291
  45.2723541   1.3120340  43.1066170  46.6891518   0.7794766  43.0988731
  41.2434235  59.4880714  61.7048225  42.1056442  59.4612999  61.2899818
  41.3585854  60.0654221  62.4595642  59.0447922  58.3001862  25.4530067
  59.9805412  58.4667931  25.3396664  58.7386894  58.0502625  24.5811844
  66.6108932  11.3793297  63.9198494  66.3308105  11.7949476  63.1043472
  67.2014694  10.6793795  63.6414185  19.4085922  43.3550682  40.2707214
  18.7055473  43.6321335  39.6831856  19.5835190  42.4470634  40.0234184
   9.2862940  61.0553894   8.2022142   8.7810802  60.9259758   7.3995671
  10.1936560  60.8958778   7.9424396  73.6033630  20.0930157  72.5782013
  72.9093246  20.0366154  71.9214249  73.5289536  19.2787285  73.0758286
  70.3060913   9.7664728  14.5222340  71.1655807   9.7981091  14.9423618
  70.2453384   8.8794584  14.1676254   2.9080408  53.7452278  21.2023849
   2.6050334  53.6229744  22.1020908   3.8419337  53.9368629  21.2881279
  27.7042809  66.7758408  36.2814941  28.4208794  67.3335724  36.5842361
  27.7556286  66.8171463  35.3265648  55.3316917  28.4645538   6.2897596
  54.6935196  28.1729889   5.6386375  54.8135109  28.6228561   7.0788484
  40.9303780  64.5173416  51.7300949  40.8801575  65.3444595  51.2509384
  41.4141541  63.9319725  51.1474037   8.7259235  53.3839760  21.8058968
   8.2624998  52.5645943  21.6324577   9.6307745  53.2063599  21.5491276
  71.2556992  22.4237385  20.7136478  71.4352341  22.8324051  21.5604019
  70.8552017  23.1193180  20.1921082  17.8094902  51.5786858  72.4350891
  17.0236015  52.0832253  72.6449738  18.2526436  52.0947266  71.7616196
   2.2986228  68.7757492  37.5662842   2.7632539  69.2665939  36.8884773
   1.5199423  69.3008804  37.7510223  47.4012222  44.9935150  69.7202225
  46.5737114  44.9589996  70.2000809  47.7382126  45.8737907  69.8869095
  27.3340073  50.4839020  27.9593105  27.1788292  49.5684090  27.7268829
  27.8967133  50.8164787  27.2600327  68.3781433  15.9636335  55.1029282
  67.4879303  15.8203144  55.4241943  68.5901184  15.1646757  54.6202660
  78.0007095  15.9895630  13.7586679  77.5816269  15.3697691  13.1616268
  78.9344482  15.9194450  13.5600348   4.2819443  46.5471687  71.4269791
   4.3454766  47.3989983  71.8589325   3.9555025  46.7472382  70.5496902
  79.2035675  14.0630617  17.6542778  78.8023529  14.2254629  18.5080261
  78.5690918  14.4024544  17.0230179   2.6028814  63.5681496  71.0412521
   2.3019342  62.6992111  71.3069763   2.0457790  63.7974739  70.2974243
  60.0369415  53.3439102  53.5749054  60.7741852  53.9531403  53.6141930
  60.3014488  52.6116028  54.1316719  81.3546677  70.5501785  24.9306488
  81.4026489  69.7807159  25.4979744  80.4189148  70.6708221  24.7693119
  74.4805984  20.6655483  51.4360695  73.8413544  19.9531898  51.4483490
  75.3286285  20.2253952  51.3782768  71.4814072  54.5326653  71.9788208
  71.4151459  55.4459534  72.2576523  71.6327744  54.5808029  71.0348892
  35.0576553   5.8462310  66.4215927  34.8975410   6.5588384  65.8028946
  34.3292351   5.8981185  67.0404205  44.4302444  46.8508530  83.9603500
  44.8209610  47.6978302  83.7453995  45.1300468  46.2172127  83.8022156
  56.0284882  17.4786129  59.0660400  55.8958778  17.1168098  58.1898308
  56.7926903  17.0121613  59.4046364  37.9097404  64.1550217   7.8143673
  38.2384377  64.7410507   8.4961004  37.0828018  64.5496902   7.5375223
  59.1449203  58.7433739  80.0106125  59.4651833  58.7900620  80.9114380
  58.7513046  59.6012840  79.8515930  13.8962736  64.2201385  88.2398529
  14.4486732  63.8015823  88.9000778  13.9256420  65.1515656  88.4585266
  42.7081833   8.2681303  14.4520130  41.8757515   8.0385513  14.0389986
  42.7932434   9.2111311  14.3114891   3.2651672  68.5195923  11.6852369
   3.4391978  68.4703598  12.6251945   3.4857340  69.4202271  11.4476709
   3.3542626  70.7297058  57.5797234   2.6179459  70.1372681  57.4277763
   4.1073070  70.1506195  57.6972389  24.1037426  65.4205475  54.5478401
  24.9207954  65.0878525  54.1763916  23.7590237  64.6898880  55.0612068
   1.4000038  58.2043152  56.6206436   0.5824534  57.7734642  56.8700638
   2.0734425  57.7533913  57.1299362  63.3802795  16.3933659  79.3870316
  63.7257080  17.0209503  78.7521667  63.5196114  15.5387192  78.9791107
   4.5462980  59.0480232  50.7120590   3.8444250  59.4262047  51.2417641
   4.4360495  59.4464340  49.8487244  15.1228075  56.7969131  36.4878082
  15.6007128  56.1590042  35.9577980  14.7715225  57.4208908  35.8526077
   4.9843688  68.4547348  57.6606293   5.8404760  68.5217667  58.0834961
   5.1510510  67.9575653  56.8598328  25.6932812  18.5880146   9.2232113
  26.4516563  18.2819004   8.7258272  25.3678913  19.3385162   8.7261190
   1.2156652   6.0038919  38.1558533   1.6609777   6.8077250  38.4237747
   1.9045113   5.4681816  37.7624893  83.4738541  37.7129059  20.4171104
  83.1122589  37.9840851  19.5733433  84.3370972  38.1250610  20.4513474
  45.1134682  70.7981720  45.5004730  44.5734177  71.5123444  45.1620331
  44.4949188  70.2225647  45.9502525  83.4343185  30.1243477  50.8379402
  83.0376968  30.8755436  51.2791100  82.9418182  29.3696404  51.1605797
  68.6222763  65.6252289  29.5405331  68.1285019  65.0455704  28.9605217
  69.5265732  65.3189621  29.4720383  57.7354317   9.3526011  56.3946800
  56.7900887   9.3213234  56.2477837  57.9531174  10.2839241  56.3561745
  19.1913357  17.1303616  18.0632572  19.2835903  18.0504627  18.3105183
  19.5107708  16.6447849  18.8237896  10.7636213  30.0123787  41.4224892
  10.9921656  30.1926746  40.5106277  11.0380535  30.7966232  41.8977547
  86.2370605   9.1979704  54.8635902  87.0759201   9.2664032  55.3195038
  85.9581909   8.2939949  55.0095177  50.5651512  70.8809738  16.0939293
  50.8005295  71.8076172  16.1404781  50.9694366  70.4919128  16.8694382
  14.2542028  18.5045090   3.7081592  13.5139751  17.9420357   3.4803038
  14.1952801  18.6047630   4.6582689  63.2192421  58.8412971  30.4833260
  62.2783585  58.7069283  30.5969963  63.2912483  59.7114296  30.0910072
  48.2756348  19.0453835  57.6149406  47.8558807  18.5287552  56.9270935
  47.7476120  19.8417053  57.6723633  39.5719109  60.3422089  50.7005501
  39.9339294  60.5928268  51.5504684  38.6270485  60.2964783  50.8467484
  55.9263420  68.2475204  61.5916328  55.5783730  68.4100647  60.7148590
  55.1735573  68.3582382  62.1723976  60.3636513  45.8504410  74.5509949
  59.9789505  45.3938217  75.2991486  59.7726288  45.6578293  73.8231049
  49.6057396  59.7972107  14.8764400  49.1332741  59.6263313  14.0616970
  50.1992607  59.0520782  14.9699316  27.5822620  66.3500977  57.4744225
  28.1601505  66.0838547  56.7593040  26.7063408  66.3467026  57.0884438
  12.8664656  52.8576088  28.3484116  12.1535463  53.3431282  27.9333820
  12.8428183  51.9955788  27.9329891  85.5853577  35.2983894  72.1881256
  85.9643326  35.6528091  72.9924927  86.1484146  35.6333122  71.4902496
  81.9328842  14.9280176  45.6605301  81.2781830  14.3361635  46.0310745
  82.7232361  14.7629881  46.1746712  80.9280472   4.7163906  87.0733032
  80.9719391   4.8795586  88.0154724  81.2930832   3.8381753  86.9650497
   1.0068189  60.7827721  24.6657276   0.2562672  61.2892227  24.9762325
   1.6482117  61.4424515  24.4017792   7.3572626  67.4598465  81.4907761
   8.2725115  67.4039993  81.2161255   7.3952055  67.8103485  82.3806839
  68.2944183  18.7020130  17.5785065  69.0778656  18.2201881  17.8436222
  67.6170349  18.0308056  17.4956379  29.3585224  41.2863693  32.7917862
  29.4309616  42.2241821  32.9692383  29.3515224  40.8785858  33.6577530
  83.8014755  34.3626556  81.4053955  84.1512222  34.9801903  82.0477066
  83.5693588  34.9060898  80.6523819  41.4024925  35.1657372  87.7734222
  41.7858734  36.0287971  87.6172791  41.5339203  34.6930237  86.9515381
  34.1701164  48.3596420  47.8818359  34.7625237  49.0946808  48.0399742
  34.7443237  47.5953102  47.8337097  23.5235310   4.3823166  26.1020489
  24.3584023   4.7081852  25.7658482  23.6982651   4.1791849  27.0209827
  55.5020218  35.9060135  56.5742302  55.1769562  35.0091362  56.4956703
  56.2878799  35.9246483  56.0280495  75.2609329  41.9316483  76.5057449
  75.6130447  42.0777931  77.3837509  75.2127304  42.8056793  76.1184769
  43.4594002  13.3792667  81.5231400  44.2022858  13.8181620  81.9375305
  43.5251808  12.4700174  81.8149719  24.8429241   3.6707711  65.7018967
  24.7418652   3.1387551  64.9126053  25.3046455   3.1011567  66.3171921
  80.0328598   3.4868798  23.8014336  80.2702484   3.4756444  24.7286625
  79.3158798   4.1185727  23.7453918  14.2194700  22.1633110  59.8148537
  14.4164639  21.5739918  59.0867538  13.8185377  22.9282513  59.4021149
   7.2459173  17.2008553  53.1158600   6.7492809  16.9885540  52.3255997
   7.8775711  16.4866982  53.2008629  83.0767746  66.2349319  64.7141953
  82.9693451  67.1067963  65.0943832  83.6125259  66.3782043  63.9340172
  32.1496239  32.0500832  18.6481342  31.4442368  32.6392860  18.9155178
  32.4046173  31.6006126  19.4538555   4.5788913  27.1692104  35.1969261
   3.9662852  27.8485870  35.4786911   4.4749479  26.4702454  35.8425827
  26.3702908   6.6809707  49.1644592  27.1400757   6.3801618  49.6473427
  25.9849586   7.3552566  49.7240028  32.7401085   3.6540663  68.1037521
  33.2114067   3.5366771  68.9285736  32.4667435   4.5713587  68.1125488
  81.6226425  62.5117416  32.7630043  81.9533157  62.8070183  31.9146576
  80.7815247  62.9580688  32.8607407  54.7416573  64.1907501  76.1837540
  54.9899788  63.6500320  76.9335480  55.5496902  64.2868805  75.6797028
  61.7594757  32.8469887   9.4098082  61.9738541  32.7045593   8.4878597
  62.5837669  32.6982689   9.8731222  40.7817993  39.8180237   0.4497250
  41.6074524  39.6776619   0.9132165  40.6454887  40.7648239   0.4846223
  66.1595535  69.1523666   9.4038000  66.8555832  69.1018753  10.0589514
  65.3537064  69.2233047   9.9154654   2.0558484   6.7305565  79.8510056
   1.5864670   5.9420824  79.5785675   2.0317552   6.7051511  80.8075638
  65.4487610  46.9981728  70.4064026  65.2421951  47.7557220  70.9538345
  64.7502975  46.3706589  70.5924149  11.7417393  16.5633335  34.8163223
  12.6894770  16.5582390  34.9504814  11.4367790  15.7563887  35.2311401
  49.8038063  63.9513588  46.9569435  49.2182770  64.2070999  46.2442131
  49.2215958  63.7926064  47.6999474  22.2050171  13.4884405  77.3200378
  22.0169067  12.7414522  76.7518387  21.3511505  13.8921623  77.4754486
  77.0784912  58.1872673  45.2689362  77.1388931  58.9532356  44.6980858
  77.9651108  58.0730553  45.6111221  38.6500816  33.9078865  87.8849564
  38.6661644  32.9828224  88.1303711  39.5550766  34.2002182  87.9933853
  37.4854202  33.6774979  84.2564621  37.4650307  34.1141853  85.1080017
  37.7321510  34.3666801  83.6397171  20.6921730  47.0118065  50.2085152
  19.8650379  46.5998535  49.9587669  20.6318932  47.1134987  51.1583862
  24.4708576  68.4002686  17.9669609  25.0881863  68.7983704  17.3532429
  24.6209259  68.8627472  18.7914734  63.4728394  61.9369087   9.3948736
  63.6591759  62.7654457   9.8365049  64.0256042  61.9523468   8.6135626
  27.9778290  40.2706337   7.0606966  28.9051838  40.0371513   7.1023035
  27.8310089  40.5061569   6.1446161  42.3052101  69.8894348  77.3043289
  42.6638069  70.5811386  76.7482834  43.0121078  69.6831131  77.9158478
  84.6092529  58.6945381  88.4076843  84.3851013  57.7661591  88.4717255
  85.3208847  58.7255592  87.7682724  70.2631149   3.2627969  85.9025421
  71.0865860   3.1857026  86.3844070  70.4897690   3.0299911  85.0021744
  63.3509789  52.3050194  52.9821243  62.6770363  51.6662483  52.7497330
  63.2715454  52.4025116  53.9310265  62.1160431  30.9573441  50.9403229
  61.2624474  31.3891277  50.9745255  62.5633545  31.3692226  50.2010651
  50.5201187  71.3218842  29.6734962  50.6921501  71.9511490  30.3739681
  49.5898438  71.4312973  29.4763851  13.6384783  41.0715523  43.2027931
  14.1850567  40.3053551  43.3772163  13.9183264  41.3736992  42.3387184
  38.5145302  26.3313427  88.4812393  38.1657333  26.7018738  87.6705093
  39.0486908  25.5902271  88.1954956  32.2481956  33.6191330  32.1449013
  32.1621170  33.3624153  31.2267971  31.5160007  33.1865540  32.5842171
  68.7527084  24.0528069  15.3360920  69.6935883  24.1011410  15.5053015
  68.5821152  24.7695618  14.7250338  42.3745880  57.7778969  26.6747532
  42.4775963  57.7377548  25.7239590  42.9043312  58.5291748  26.9415569
  35.6330452   9.6786003  24.9758663  35.4890594  10.6207590  24.8873386
  35.6472168   9.3528681  24.0759048  57.8426781  27.7067165  10.4388494
  58.1864891  28.5896111  10.3027449  58.4503975  27.1375961   9.9666080
  86.1201172  53.8730507  56.3905449  85.4735641  53.2100182  56.6326065
  86.9240265  53.3776779  56.2337914  70.0194244   6.9459672  14.3235712
  70.6073227   6.7733731  13.5881672  69.9192963   6.0971346  14.7544870
  54.6618423  12.5969801  26.2110691  54.8810921  11.6852713  26.4032879
  55.3998528  12.9164743  25.6919422  59.1375809  42.6660309  50.0923958
  58.4979172  42.6775360  50.8043900  59.1506386  41.7556953  49.7968445
  21.3882141  69.1438446  31.6003952  21.4615383  68.5357742  32.3359909
  20.4834480  69.4543228  31.6355629  18.1334572  13.3317785  82.9379654
  17.7181129  13.3804722  82.0769501  18.9335098  12.8276043  82.7897873
  52.8459167  53.0262871   9.4634686  52.8787918  52.4759369   8.6809931
  52.3497086  52.5100632  10.0987005  60.8697014   9.1627893  86.5858002
  60.9284821  10.0776396  86.3104401  61.2930107   9.1433315  87.4440918
  81.8723526  67.7032242  29.7522430  81.4506607  66.8546143  29.6171017
  82.8072128  67.5020752  29.7946815  51.8869934  15.5617552   4.4683166
  51.3462410  14.8663568   4.8428035  52.3220749  15.1508160   3.7212787
  80.6749649  57.1220932  51.6411324  81.3348236  57.7916260  51.8215370
  81.1086044  56.2953491  51.8525314  16.8837757  25.6210270   4.2573929
  17.5932236  25.0655842   4.5805039  16.3306694  25.7730751   5.0236726
  43.0710030  19.1153107  61.1797867  42.2167473  18.6839809  61.2005615
  43.6445312  18.4896278  60.7372742   2.3375170   5.8371263  52.5912323
   3.0410132   6.4778128  52.6953735   1.6250702   6.3281226  52.1818733
  38.4688721  50.6574059  34.5851784  38.2230415  50.1801491  35.3776588
  38.5924149  51.5603142  34.8779678  74.6884613  38.4960289  22.6319485
  74.8423691  39.0336494  21.8550911  75.3014374  38.8360138  23.2837906
  36.2682838  16.4555454  18.5233688  36.8099785  17.2241020  18.7025776
  35.4914970  16.8063259  18.0877209  82.4139099  65.3865433  27.0227928
  83.1310730  65.5731506  27.6286659  82.7713165  65.5904312  26.1585445
  16.0413742  36.3921776  14.1788597  16.8524284  35.8932343  14.0814981
  15.4236574  35.7719650  14.5661545  23.9497795  45.0151176  80.0449600
  24.6866207  45.4040833  79.5737839  24.1764030  44.0882263  80.1207657
  23.2838478  57.6521034  60.3229141  22.6249905  58.0599174  60.8848991
  22.7770863  57.1427956  59.6904373  44.8258095  60.8593369  66.3153534
  44.1337509  60.4905891  66.8642654  45.0591202  60.1506271  65.7157440
  63.4526062  44.7694664  68.3138580  62.9417191  45.5770493  68.2587433
  63.3458366  44.4798775  69.2199326  51.5224152   5.5642691  78.0366898
  51.5171356   6.4065747  77.5820160  52.2661705   5.6205759  78.6365967
  75.2622986  24.1002121   3.3876786  75.0291672  24.6099663   2.6117702
  74.4251556  23.7821903   3.7257462  15.3745012  51.6869354   8.5117779
  15.4421721  51.1053848   7.7545137  14.8878450  51.1791191   9.1610241
  44.0474663   4.7473269  82.4830551  43.9220581   3.8054366  82.3675232
  44.1007996   5.0929241  81.5920181  63.6085701   2.7988067   4.1197090
  63.1303024   2.4351645   3.3745546  64.2665482   3.3714869   3.7255878
  72.7046738  35.7663116  60.4013290  73.2688446  36.5329819  60.3005219
  72.4185104  35.7978897  61.3142052  61.7851257  48.6474876  70.4214096
  62.5287895  49.1414413  70.0761490  61.1458435  49.3166656  70.6658478
   9.4576349  43.1249161  78.8716888   9.1280928  43.9843369  79.1344223
   9.0107832  42.9392967  78.0457916  10.4764910  51.7715645  49.8514633
  11.2874928  51.3043137  49.6509972  10.5040808  52.5492439  49.2940750
  81.1496353  42.9194145   9.7919722  80.9819031  42.4914589   8.9523582
  81.1628571  42.2035522  10.4272652  75.6496124  23.9974556  58.5155678
  75.1396790  24.8071346  58.5403938  76.3053284  24.1481514  57.8347206
  63.3052597  66.6928558  81.1611099  64.0141830  66.5201187  80.5415726
  62.5051689  66.5529327  80.6546478  48.1671181  52.1077652  60.2997589
  47.5923920  52.8155365  60.0082512  48.9603577  52.2115021  59.7741737
  86.6158829  50.1442184  26.1286259  87.1095123  49.5335426  26.6760178
  86.5624084  49.7122498  25.2761154  59.7673149  42.6111526  31.2963448
  59.1494904  42.2776489  31.9469585  60.5893555  42.1626701  31.4946938
  52.1005974  43.4607430  52.2331047  52.6992874  43.5469627  51.4912376
  52.0653648  42.5196419  52.4043274  44.1677208   7.1410141  10.7538567
  44.4413376   6.8242569  11.6146879  44.9860687   7.3581195  10.3073072
  74.7663574  58.3564377  88.9505157  75.0046844  58.5263710  88.0391693
  74.8672791  57.4099960  89.0519943  67.1364441  59.2528687  36.4979324
  67.2413330  58.3062439  36.5934944  66.7026062  59.5285072  37.3054199
  38.7677917   1.0276053   6.0392666  39.5337067   1.6002094   5.9976587
  39.0912094   0.1737401   5.7519584  49.7541428  21.5843811  30.6529579
  50.2975502  20.8407078  30.9135189  49.2771034  21.8226070  31.4478893
  77.9985504  33.5271072  22.3644581  78.0960693  34.4746742  22.4584885
  78.2740021  33.3459854  21.4658184  80.4915543  54.4177094  73.8045502
  81.2122040  53.7882462  73.8303604  80.3144760  54.6168861  74.7238998
  74.0713272   5.0797472  54.5142899  74.8419342   4.5308490  54.3689919
  74.3848038   5.9737444  54.3774109  41.3594170  12.6097326  10.8671837
  40.6050797  13.0881100  10.5231514  41.7475128  12.1902323  10.0993071
  71.3457108  51.0492210  83.3898315  71.4669571  51.7108383  84.0708542
  70.7999039  51.4799194  82.7319336  57.6431274  12.8853512  37.1622467
  57.3117561  13.1675167  38.0147781  56.8771095  12.9062853  36.5886536
  52.8646049  34.0472374  67.8316269  52.8606644  33.2101593  67.3673859
  52.5950623  34.6875610  67.1731720  24.4906845   4.4120283  49.1970863
  23.7920132   4.9929404  49.4981346  25.1310844   4.9972363  48.7925453
  57.6448441  70.3969269  48.8853302  56.7252846  70.3431320  48.6250420
  57.6217842  70.4247818  49.8418465  57.4790840  26.7471809  45.8849716
  56.6033554  26.5199432  45.5724106  58.0632248  26.1530552  45.4137764
  31.4433403   7.8228984   2.6475704  32.0377159   8.4540691   2.2418959
  30.6159935   8.2959824   2.7365644  47.6650314  61.4619408   9.2457027
  46.8047104  61.2905655   9.6287298  47.8789864  60.6599922   8.7689056
  52.1907539  67.4359131  80.4248276  51.2976570  67.2670822  80.1246567
  52.5222893  68.1049194  79.8258743   4.2845316   2.8374503  64.7069092
   4.5299916   3.5682425  65.2742920   4.4102626   2.0595753  65.2503586
  60.8302689  50.1660118  11.1251059  59.9841499  50.1419182  11.5720234
  61.4710655  50.2576561  11.8302393  49.8536110  30.2919598   7.8827739
  49.0240822  30.3718319   8.3536654  50.3628998  29.6672077   8.3990498
  72.0823593  10.1531563  25.2308712  72.2812424  11.0168390  25.5924377
  72.3734818   9.5386448  25.9045601  63.1123428  38.6047859  88.4986420
  63.3233566  38.3404694  89.3940964  62.3243980  38.1066666  88.2812576
  71.3785858  42.0087471  73.4903870  70.5077286  42.3764610  73.3399658
  71.7159576  42.4926376  74.2442169  85.2481155   1.7777816  35.1724281
  85.8591843   1.3009720  35.7341003  84.6837997   2.2534184  35.7819748
  18.0710621  58.9410706  47.5502434  18.0634766  59.8961906  47.6128769
  17.3346767  58.7328949  46.9752350   4.6216617  51.0583878  50.7293396
   5.0165319  51.0563049  51.6012955   4.2125325  51.9204407  50.6537514
   1.6388065  32.9325256  39.6966896   2.4056966  33.0521049  39.1365013
   0.9003958  33.2094002  39.1541748  70.0083084  32.5404892  23.7797356
  70.5545502  31.8815365  24.2082558  70.5850983  32.9452324  23.1318741
  52.1431999  19.2677078  17.0097713  51.4839363  19.3734550  17.6956425
  52.0380173  20.0407772  16.4552135   9.4361839  52.4827843  24.7808456
   9.1830072  53.1576500  24.1510162   9.6270466  51.7136383  24.2439823
  24.6525803  21.3026161  88.3941956  24.3822746  21.4747143  89.2961655
  23.8325157  21.2603741  87.9023209  30.7754765  26.0591011  80.6095581
  30.8030643  26.8630638  81.1283188  31.6327171  25.6559525  80.7468185
  77.3002243  70.8619614   1.3239437  77.9763336  71.5273285   1.4520336
  77.5294876  70.4442520   0.4937715  64.7111435  13.9189177  83.7561646
  63.9188805  13.9751472  83.2219543  65.1243515  13.0987892  83.4861984
  26.6024761  65.4146194  63.0491524  26.6719151  65.4030457  62.0945435
  27.5047207  65.3251190  63.3560295  46.6784363  36.5162621  24.3300343
  47.0624771  37.2461281  24.8158760  46.2585449  36.9263992  23.5739193
  18.4850311   7.3364944  77.5238266  18.2702808   7.2857480  78.4552460
  17.6406555   7.4578457  77.0896225  17.4466000  59.8546982   9.2223120
  17.3583412  58.9623795   9.5572844  16.7897549  59.9162445   8.5287714
  73.4152222  28.7887936  56.7991982  73.8349915  29.6087551  56.5390244
  73.4118271  28.2581596  56.0025482  60.7963181  18.0626583  44.0160408
  60.7409744  18.2331772  43.0757790  61.4145241  18.7166843  44.3420868
  77.7065582  40.3736725  79.1273651  76.8651276  40.8217354  79.2137222
  77.5945053  39.5576019  79.6149139  50.9020767  13.3499231  61.0218658
  51.6075859  13.9930668  60.9522171  50.5117073  13.5146265  61.8801880
  67.4561234  59.0986519  11.0756817  67.5837555  58.4381866  10.3947048
  66.9538574  58.6484451  11.7548552  17.8624191  63.1271095  17.0197659
  18.4897327  62.4482803  17.2685623  17.0593338  62.6479034  16.8156872
   9.6180267  45.6667709   5.7145114   9.5285101  46.3501778   5.0503044
  10.3042393  45.0918579   5.3756604  16.1956749  14.1735048  11.6925526
  16.2826424  14.0603380  10.7460527  15.3427525  14.5928164  11.8062696
  10.8380356  67.2863388  76.4017487  11.0034313  67.1529922  77.3350677
  11.4430017  66.6879196  75.9634018   7.2378364  68.2769089  59.5542488
   8.1115999  68.1241302  59.9140091   6.7520671  68.6858978  60.2704773
   7.2222023   9.6486034  17.0208130   7.4402976   9.8578911  16.1125927
   6.6383271  10.3554554  17.2959175  51.7047310  39.3027992  18.0436764
  51.1006966  38.7510834  18.5406513  51.8052406  38.8527336  17.2048855
  57.3858604   1.8387334  87.0536270  56.8531494   1.1927708  87.5175095
  57.4624023   2.5703464  87.6660995  61.3700447  51.9663620  60.6576385
  60.9911995  51.6645355  61.4832344  61.5461044  51.1634293  60.1671982
  23.4919071  30.7692261  81.3009720  22.6553764  31.1481934  81.5708466
  23.7960262  30.2877026  82.0703049  72.0720825  64.1242676  17.9209003
  71.8458633  65.0509338  17.8412704  72.4064636  64.0351791  18.8133583
  30.9005318  56.4740105  20.2248573  31.7397823  56.1682129  20.5689182
  30.7959118  57.3512154  20.5933666  75.7373047  11.5803289  86.9021606
  75.0843277  10.8837624  86.8340073  75.9904938  11.7606888  85.9968414
   9.9304037  26.1150551  30.6212139  10.7196131  26.5933666  30.3670502
  10.2481375  25.2513351  30.8843975  52.4259148  58.4442482  18.6232605
  52.3087158  58.0883293  19.5040665  53.3321419  58.7520599  18.6079369
  72.3198547  12.6315861  49.4770508  71.8397217  13.4574022  49.4160080
  72.6196136  12.4622335  48.5839119  35.1399460   0.1594453  26.2665920
  36.0329247   0.2685995  25.9396267  34.9640121   0.9632657  26.7556229
  55.2457237  44.1570930   3.0463073  54.5162315  43.8738136   2.4951029
  55.6811752  43.3444290   3.3035872  56.3807716  50.1927299  63.1782913
  56.9395332  50.5174561  63.8843842  55.7749290  50.9125290  63.0020065
  79.4423752  69.6604538  36.2702484  79.2961197  68.7575150  35.9882317
  80.3774261  69.7001801  36.4710808  41.7467728  28.5223846  25.6927681
  40.8587646  28.3126068  25.9820156  41.6318588  28.8983135  24.8200111
  17.9952526   8.9892292  53.8174477  17.1476479   8.7771702  54.2083855
  18.1051979   9.9264784  53.9777870  16.1706467  43.3939018   6.9275813
  16.4712849  43.6700058   6.0617785  16.7732658  43.8196030   7.5373845
  56.8616066  17.8744755  70.7545853  56.0355606  17.5881252  71.1443100
  57.0076103  18.7480373  71.1176376  61.9592934   8.1108379  48.1094627
  62.0171661   8.3736563  47.1908722  61.1540031   7.5959759  48.1609993
  29.9123020  19.7893906   4.9130406  29.0449638  19.4227581   5.0849037
  29.8769207  20.0696983   3.9984875   5.6730027  54.5675926  49.6906929
   6.3796659  54.0206871  49.3475380   5.8806252  54.6724701  50.6191978
  62.3002357  23.6053066  55.5838356  62.3425980  24.3799419  55.0231438
  61.6638412  23.8344021  56.2611504  65.6805267  42.0535889  17.4520512
  65.2455978  42.2464638  18.2826328  65.7464600  41.0988693  17.4322529
  45.6260719   6.0401411  33.2043457  44.7439575   6.4116697  33.2126312
  45.5048141   5.1420355  32.8962326  30.1404228  17.9819679  11.3175793
  29.1910038  17.8631954  11.3445644  30.3071022  18.3864155  10.4661846
  68.6493149  21.6439972  79.0190811  68.4240952  22.0275402  79.8666687
  69.3282394  20.9999790  79.2204208  48.9788818  54.2899132   4.9468074
  48.7489700  55.0200539   5.5214968  48.6949387  54.5711136   4.0770178
  84.0106506  17.0826664  65.3359222  84.8916321  16.8093834  65.5916748
  83.5758514  17.2932396  66.1622696  68.3083725  42.8312035   4.4840102
  68.3930664  42.9337387   5.4319267  67.9725876  41.9423332   4.3683000
  24.6543922  29.3794098  83.2286148  25.5663586  29.6549072  83.3216171
  24.2974815  29.4293537  84.1153793  25.5392704   2.9360671  41.8974609
  24.7094650   3.0259478  41.4288712  25.9940948   3.7634559  41.7399902
  59.3746605  53.6566544  83.8367004  59.5991783  52.9804802  84.4759293
  60.0394936  54.3339844  83.9610214  69.6726913  65.0041656  82.0757141
  69.3161926  64.1586761  82.3482666  70.3504562  64.7835846  81.4367981
  10.5981255  59.6954002   3.4762259  11.0642004  59.2652512   2.7593040
  11.0477715  59.3975830   4.2670188  65.1422119  18.0085621  56.4754753
  64.6635437  17.5615692  57.1735497  65.5564957  17.3026886  55.9791489
  55.2602882  21.5715199  29.0548019  55.6301498  20.7755909  29.4368114
  55.9593468  22.2209435  29.1309147  72.2593460   2.8251543  52.0837708
  72.1791687   3.7381845  52.3597794  71.6112747   2.7280715  51.3860474
  68.4411011  54.6915741  69.4146347  67.8343048  54.4186668  68.7264862
  67.9529190  55.3410568  69.9206848  18.9110184  51.1850052  60.7979469
  18.9027424  50.2439041  60.6233215  18.0502968  51.4895287  60.5104485
  64.4168930  22.8186455  20.9982815  65.3515320  22.7151222  20.8194866
  63.9986916  22.1152668  20.5016937  43.5554008  63.6111145  77.9021606
  42.6740265  63.2504501  77.9987640  43.4548531  64.5436554  78.0931702
  70.3921204  55.9857368  80.2622375  70.6351547  55.3715706  79.5694427
  71.1651154  56.5391541  80.3737183  60.8633766  25.6734924  29.2302017
  61.3398094  25.7482605  28.4033699  59.9450569  25.7956638  28.9893761
  72.4371796  49.3464546  53.7212296  71.6015930  49.6986961  53.4147110
  72.6608353  48.6699409  53.0820618  53.2416077   4.9136524  85.0555344
  53.8806496   4.2290230  85.2533875  52.5504684   4.7914958  85.7064133
  83.8608475  38.7122040  41.1004410  84.7210388  38.6111679  41.5079803
  83.6075439  39.6142921  41.2961655  69.5683975  26.2952042  49.2416763
  70.4759445  26.1191769  48.9934921  69.4209366  25.7488804  50.0136986
  61.2292480  18.3916512  48.2600250  61.9825668  18.8072681  47.8404961
  60.5017281  18.5520191  47.6590042  56.8954811  54.9604721  67.4321518
  56.2884979  54.2720299  67.1604004  57.5752678  54.4999390  67.9241180
  37.3568115   8.9378481  13.2996178  37.8739967   9.7432690  13.3063631
  37.3815689   8.6297150  14.2055273  26.4564495  45.5014458  59.8549271
  25.8472233  45.9997482  60.3996964  26.4371777  45.9449272  59.0068817
  45.9224548  23.9354763  88.8666763  45.0321312  23.7119694  88.5953827
  45.9286156  23.7886086  89.8125229  35.3658791  41.3781395  65.7214432
  34.5492134  41.3462257  65.2231750  35.5950851  40.4598923  65.8646927
  24.4559155  71.8378601   8.5762939  24.3326740  71.0443344   9.0972109
  24.8825989  71.5344696   7.7749662  44.6731033  41.4597435  22.8242512
  45.4387817  41.7859077  22.3514061  43.9586182  42.0337296  22.5480671
  53.4971848   5.7026029  60.9573402  52.9436951   5.0626383  61.4049187
  54.1636467   5.9363055  61.6034393  40.5875893  48.4173622  26.8601856
  40.1756020  49.2026100  26.4997883  40.3462296  47.7193260  26.2513161
  34.9739151  20.1748238  83.3799591  34.0388680  20.3683643  83.4467239
  35.3865242  21.0286427  83.2496490  26.8352814  24.4322319  49.7165642
  27.3832760  24.2161636  50.4710503  26.6820793  23.5924683  49.2834854
  70.8999481  40.5255318  56.7070808  71.7324448  40.3580780  56.2653313
  70.2986984  40.7655144  56.0020027  28.5767155   0.3107637   6.4221282
  27.8734131  -0.3359793   6.4797506  28.5601311   0.7586393   7.2679205
  60.4560776  49.5221786  20.6361580  60.2763176  48.7370148  20.1190186
  60.7538338  50.1679916  19.9954548  55.1033287  63.9035568  26.5761433
  54.6302185  63.4534836  25.8762646  54.4534149  64.0178986  27.2695179
  13.5919962  26.5190144  88.1492386  13.9614182  27.0997601  88.8144455
  13.0318966  27.0867958  87.6199570  21.7717247  28.4064312   4.9281535
  20.9070721  28.7525253   5.1491127  21.7126503  27.4713554   5.1240511
  53.3502884  16.4788227  39.9472885  53.0210152  15.7609930  39.4064255
  54.1586418  16.1385250  40.3306885  76.3706970  48.3084602  19.4149780
  76.8520966  47.7822685  20.0534229  76.4157181  47.8016243  18.6042233
  28.2014008  68.8378525   7.5615196  28.7418652  68.9356613   8.3454599
  27.9461746  67.9153061   7.5601382  73.2119598  33.6119804  10.0522194
  72.4943314  34.2453499  10.0434294  72.8489914  32.8329086   9.6308784
  57.5329895  64.3227234  45.8533554  56.5982971  64.2691803  46.0526428
  57.7701759  63.4373550  45.5774956   1.3071421  61.2912865  70.4093399
   0.4867479  60.7981834  70.4152069   1.4444184  61.5168877  69.4892960
  67.0143509  30.8306980  17.4282265  67.6303864  30.5345764  16.7581158
  67.5612183  31.0137253  18.1922073  45.7192497  17.5023041  86.6851196
  45.3089790  16.8108406  86.1657104  46.4548492  17.7996311  86.1496506
  81.5006561  65.7635880  35.1440315  82.2471466  66.0822678  34.6366615
  81.7475739  65.9176025  36.0559196  29.5944862  11.2563477   0.9124746
  30.2504921  10.7231693   0.4634651  29.8971348  12.1569214   0.7958452
  68.2089386  28.5315361  49.2070236  68.8932724  27.8642693  49.2587471
  68.1579056  28.8914165  50.0925255  80.2925491  50.9417534  40.6695557
  80.0962219  50.4623032  39.8646851  79.7123566  51.7026024  40.6426926
  28.5342770   1.0910774  22.8651581  29.1126919   0.3659241  23.1014233
  28.6665726   1.7384135  23.5577507  79.8057098  29.8230495  67.5393600
  80.0605927  30.0193100  66.6378326  80.0149994  30.6200867  68.0263443
  71.2622223  15.8171206  62.1936188  71.4196854  16.7209816  62.4665184
  71.2382202  15.8563261  61.2375259  51.6432800   2.4369547  86.6208038
  51.0995445   3.1802168  86.8818436  51.1669312   2.0352187  85.8942108
  71.8273773  36.7632561  89.3035355  72.4667664  36.5287743  88.6309052
  71.0682526  36.2114792  89.1151199  15.7619867  61.8403206  33.2549667
  15.4813499  62.7554474  33.2593994  15.4382830  61.4865150  34.0833817
  32.0592728   4.5723109   9.5628433  32.1264114   3.6867859   9.2056742
  31.4142380   5.0072365   9.0051680  86.6162796  53.3079643  50.8862839
  86.9199905  52.4029808  50.9569740  86.6158524  53.6315193  51.7871399
  49.0626602  37.1131897  88.4070969  48.7636681  36.2978897  88.0044632
  49.7157516  37.4561348  87.7971039  39.5815086  67.6114731  28.0075951
  39.2871513  67.1686935  27.2116489  39.4557114  68.5424881  27.8242321
  16.4064770   5.8859558  11.6623116  17.0659409   5.8822556  10.9685335
  16.8733578   6.2044430  12.4348526   0.2017314  63.3825493  16.8419266
   0.9119606  62.7515106  16.9585209   0.6122716  64.1264801  16.4011803
  53.6739578  33.3079262  25.5671730  54.1059875  32.5001335  25.8447590
  52.8696327  33.0144882  25.1391716   1.9426275  20.7717304  16.0716209
   2.5806665  21.4758072  15.9558048   1.3107784  20.9023914  15.3645658
  27.9405403   9.5795336  21.0595112  28.3855629   9.2494001  21.8400211
  28.3176861  10.4478493  20.9180145  64.1669464  50.5144081  70.1262360
  65.0383911  50.5954514  69.7386093  64.2077103  51.0468369  70.9206467
  53.0531349   6.4935331  27.4434338  53.9984131   6.5914497  27.3290043
  52.9415283   5.5960827  27.7570553  33.3921089  49.3672447  64.8605499
  33.8459206  50.1449051  64.5356979  33.8859062  48.6323318  64.4968109
  22.3600216  42.0646477  18.4694252  23.3148632  42.0596237  18.5363750
  22.0620518  41.6166611  19.2611046  71.0420914  67.1218109  27.9048595
  70.8349152  66.2546616  28.2532215  70.5455475  67.1768265  27.0883732
  20.9562454  49.5083923  48.7917786  20.0778580  49.6986351  49.1211357
  21.1039219  48.5905342  49.0197220  24.2181263  62.4658699  60.9013100
  23.3474064  62.2071648  61.2032166  24.6903820  61.6399384  60.7962074
  56.8866348  48.4284286  10.2532110  56.9643135  48.3099594   9.3065529
  56.7322197  49.3664131  10.3653355  51.6414948  58.7237816  45.5811958
  50.9587402  59.3905029  45.5066299  51.9071465  58.5509453  44.6779861
  67.6148529  38.0789871   5.0715294  67.0731659  38.6319733   5.6345744
  67.8903961  38.6579514   4.3608203  14.4043684  47.4654579  37.6774635
  14.3960857  47.8275299  38.5635033  14.6134501  48.2117500  37.1157112
  33.5827827  31.1022778  83.7173233  33.3223572  30.9413452  84.6242447
  34.5276871  31.2485809  83.7618256  71.6944427  32.6448212  21.3565502
  72.2057571  32.2202148  20.6677113  71.5903854  33.5475311  21.0556927
  75.8191986  60.3354416  60.1526108  75.9604568  60.1804237  59.2186699
  75.1746674  61.0424576  60.1832504  66.8450699  35.9046593  65.5892258
  67.2509613  35.0841560  65.3094788  66.4292068  36.2479782  64.7983932
  76.8015823  55.6187859   6.0709476  77.3899231  55.1647530   5.4676666
  77.0457840  56.5411835   5.9949222  42.2954903  24.3641357  83.1008530
  43.0907326  24.8749523  83.2521439  42.0997162  24.4948921  82.1730576
  16.3460426  59.2571983  45.0161667  16.5211658  60.1481056  45.3192253
  16.1314316  59.3575287  44.0887451  24.9711800  34.9608727  27.5856953
  25.0270138  35.7913170  28.0584240  25.2147217  34.2996445  28.2335358
  15.9488926   2.9092820  22.1324863  16.3532333   2.6541035  21.3032570
  15.6680841   2.0832415  22.5262337  24.7243004   8.0342693   7.2100677
  24.9341583   7.2437577   7.7073436  25.1958904   7.9296441   6.3836961
  24.9124966  21.2404270   8.2890720  24.1679173  21.8392735   8.3457870
  25.5372257  21.5733299   8.9333715  27.0135860  65.1361542  60.0245209
  26.7713985  64.9455643  59.1182899  27.8437653  64.6770935  60.1521835
  15.0217819   6.0871649  43.8185616  14.9036436   5.1453180  43.9418488
  14.1331272   6.4428182  43.8244476  39.1411934  52.1488876  76.0465546
  39.4016190  52.3054771  75.1388702  39.1468010  51.1959229  76.1363373
  82.8906555   2.4160056  48.9788589  83.2743607   2.4831653  48.1045036
  82.8445892   1.4750990  49.1485748  23.6858864  52.2554245  52.8913994
  24.4920235  52.0905037  52.4023438  23.1056690  51.5344505  52.6469078
  73.2338181  42.2285233  71.6973114  72.6498642  41.9512291  72.4032364
  73.3517685  43.1677933  71.8390656  64.8999405  12.2194710  75.6047440
  64.7568359  13.0126467  76.1211014  65.0920868  12.5390129  74.7231522
  70.1537552  42.1714745  39.3233948  69.6432343  41.4342613  38.9885597
  70.0170517  42.8685341  38.6817970  34.2951736  32.8364563   6.4085908
  33.5134048  32.6785812   6.9378786  34.7834320  32.0142632   6.4513650
   7.1958804   9.9338636  21.2758579   6.8507843   9.2337227  20.7218323
   7.8622937  10.3596087  20.7365360  80.4268875  23.3732891  18.4253292
  79.8764038  22.9607906  17.7597122  79.8200455  23.9006233  18.9448376
  45.1558647  34.0965309  74.6886520  44.2267151  34.3210373  74.6385651
  45.2977142  33.4986839  73.9546967   7.8201928  36.7492676  16.2341576
   7.3475366  36.4565964  17.0133705   7.1692100  36.7174911  15.5331268
  58.6380348   7.5336146  77.4759140  57.8284378   7.3643684  76.9941101
  59.3307533   7.4332829  76.8229904  53.8403015  69.9716339  79.3026199
  54.3038750  69.7514801  78.4946213  54.1747627  70.8357391  79.5428085
  69.7153397  11.0464382   8.3062134  68.8421555  11.4060421   8.1497803
  70.2469406  11.8048677   8.5479040  73.3031387  49.0788193  83.2504120
  72.7372284  48.3758278  83.5694351  72.7477798  49.8583145  83.2642899
  84.4002762  28.7575111  72.6514435  84.3715057  29.1624355  73.5183029
  83.6132050  29.0781612  72.2110672   1.1111337   7.5436807  68.7016830
   1.2605214   6.7126398  69.1525574   1.9245651   8.0328426  68.8253021
  81.6524963  58.1421852  40.3108826  81.5223618  58.3220940  41.2419739
  82.5765305  57.9026337  40.2400856  38.8726616  51.9302750  88.9430313
  38.9632034  52.2543221  88.0469131  39.7406082  52.0479393  89.3291168
   2.7900944   6.9927649  14.6197262   2.3659093   6.2373652  14.2127018
   3.4787638   7.2416983  14.0032864  82.6922913   8.8762407  84.9609222
  82.5128098   9.7705107  84.6705780  83.6339188   8.8645563  85.1324692
  59.0304146  70.7423401   7.1292977  59.2747154  71.6672668   7.0968170
  59.3755035  70.4327316   7.9667263  86.4625168  21.1474342  50.8436775
  85.9841537  20.3552723  51.0883713  87.0239410  20.8737564  50.1183243
  27.2015781  67.6743698  65.0352554  26.6190472  66.9564438  64.7873077
  27.2853680  67.5974731  65.9856796  55.2975388   3.4840202  79.4049911
  54.8061905   2.6630578  79.3761520  56.1546440   3.2631004  79.0405807
  20.2255917  21.0258923  27.8315029  19.7078743  20.2208023  27.8258858
  20.4205761  21.1917057  26.9091587  63.2590065  69.9126053  59.5309486
  62.7547646  69.1284561  59.7479057  62.6980400  70.6400986  59.7998466
  22.0658455  34.4406586  27.2988148  22.5260773  34.9875412  26.6621552
  21.3394699  34.9854584  27.6018047  35.3433266  10.5568810  56.3474541
  35.9607964  10.4235620  55.6282997  34.8116760  11.3034449  56.0713730
  75.7161407  56.3776932  14.7134905  76.3271179  55.8552017  14.1939268
  76.0649185  57.2680054  14.6695604  66.4145126  33.0713539  13.6910582
  66.1759262  32.1463966  13.6297112  65.5784607  33.5366631  13.6639700
  37.0178108  35.5850716   3.3126564  37.3037338  35.5167389   4.2235961
  37.7038651  35.1430359   2.8124871  32.9868546  70.0230713  88.0237961
  33.1023254  70.3490753  87.1312561  32.5297279  70.7297897  88.4796524
  11.3299227  27.0625534  35.5425758  10.5875053  26.6346912  35.1159821
  11.0819302  27.1080284  36.4659729  33.8350334  70.5253067  18.8394203
  33.1238899  70.7774429  19.4284325  34.5742416  70.3445511  19.4200497
  48.0349884  51.4514313   2.3750548  48.8934326  51.0285492   2.3532112
  47.7239571  51.3159523   3.2701187  30.4547253  10.1457157  11.1352510
  30.6512909  10.7045975  11.8870773  30.6768970  10.6815977  10.3738689
  12.4839602   7.4458523  48.3938255  12.2365923   6.6156883  47.9865570
  13.3977814   7.3235021  48.6511040  74.0606537  60.4849777  70.6134491
  74.8820724  60.0441666  70.8306961  73.8452682  60.1709099  69.7352676
  75.9474640  17.6143780  63.6240501  76.2295151  17.5715733  62.7103500
  75.3016129  18.3206120  63.6425095  22.4989567  16.9581718  24.5364590
  22.4590874  17.9142265  24.5609913  22.1192608  16.6811428  25.3703175
  79.8722305  66.4244995  16.8788185  80.7759018  66.1193695  16.7982159
  79.5455627  65.9989929  17.6715775  62.5519066  19.7490005  45.2708359
  61.8311882  20.2526760  45.6491394  63.0134239  20.3740864  44.7118187
  84.6568069  14.6701164  84.4778900  84.0046463  15.3224020  84.2220688
  85.0383530  14.3757534  83.6508484  13.1068468  39.2999115  39.7131271
  13.3500423  39.9548988  39.0588493  13.2627354  38.4602203  39.2808685
  79.6498184   5.0099382  60.1634178  80.2425842   4.6329474  59.5132332
  79.4143829   5.8657708  59.8051529   0.3915693  36.5448875  41.1943779
   0.9358953  37.2303810  40.8070259  -0.2052303  36.2872963  40.4917297
  10.2274351  56.6672935  51.9207268  10.8203335  56.1335831  52.4497414
   9.9867582  57.3962440  52.4925117  39.6076431  35.7477264  68.5008698
  40.2582207  35.0625267  68.6541061  38.8385735  35.4624290  68.9941940
  70.0071259  65.7733459  78.3946304  70.0781250  64.8411713  78.1890945
  69.2505035  65.8330536  78.9778900  37.9495697  44.2516975  44.4491005
  37.8966026  45.0052986  43.8612976  37.0535393  44.1290779  44.7626648
   4.8485236   1.8866835  38.9470406   5.3890538   2.0251229  39.7247887
   5.4703822   1.8906758  38.2193680  63.7245331  35.7978745   5.8131080
  63.1903038  36.1778679   5.1156578  63.4347382  34.8872299   5.8676457
  66.1058426  30.8988762  54.5612259  66.0122452  31.2324047  55.4535446
  65.5084534  31.4360676  54.0408516  54.5065727  20.0874767  72.5971069
  53.8547325  19.4014053  72.7407837  54.2961044  20.4405823  71.7326736
  27.0086384   6.2329369  16.8884602  26.8817825   7.1266623  16.5700359
  27.8253098   5.9466052  16.4794426   0.4917601  37.8426704  31.5918026
   0.1434555  37.8912239  30.7015457  -0.0639613  38.4343987  32.0990143
  70.6410217  50.4767342  59.8960304  70.3572464  50.4896545  58.9819527
  70.2633591  51.2703018  60.2753029  11.6063375  48.7786446  75.1156540
  12.2375135  48.6688385  75.8268509  10.7528572  48.6597900  75.5324020
  60.3610115  45.7372284  84.5151978  59.8368950  46.5315704  84.6179504
  61.2391701  45.9913292  84.7989349  11.5694456  14.9750509  53.5229530
  12.0530882  15.3435593  54.2622261  11.8139591  14.0496502  53.5141602
   3.5704639  40.4049416  10.7522430   2.9471693  39.7093048  10.9615850
   3.8428798  40.7467041  11.6038427   6.0635262  21.3275967  77.0967407
   5.1600924  21.6218224  77.2127991   6.5307012  22.1042862  76.7889557
  64.3238449  24.4586143  32.3613319  63.9159470  25.3089428  32.1976509
  64.2781525  24.0050659  31.5196457   3.9831767  38.2196846  66.6901474
   4.8865194  37.9429817  66.5363922   3.6090708  38.3136826  65.8141098
  14.1721087  67.9383163  44.1362877  14.2623396  68.6475372  44.7727623
  13.2596903  67.6600266  44.2155304  34.2056847  26.2953777  79.9847641
  34.6921921  25.7649937  79.3537064  34.4971123  27.1919727  79.8191757
  54.6426697  46.1264496   5.0404434  54.9293060  45.5855713   5.7763228
  54.9002266  45.6299706   4.2636538  61.2289391  62.4094696  77.2699127
  61.7303352  61.6869774  76.8919754  60.4041023  62.4084206  76.7842407
  81.3654327  44.9771156  15.1487913  81.7687225  44.7970543  14.2995749
  80.4597626  45.2061195  14.9401045  48.7375755  11.3137960  20.9751720
  48.7761269  10.9177504  21.8457432  49.5849648  11.1077614  20.5805702
  82.7070389  71.1669464  77.1827164  83.0919495  71.3691864  78.0354614
  83.4182434  71.3114319  76.5585785  55.9728355  64.7275238  11.4860735
  56.5156364  64.6696014  12.2723589  56.4898911  64.2961349  10.8057833
  38.2872581  58.1143150  88.4995270  37.9222870  57.8893738  87.6437073
  37.5919991  57.8978310  89.1208038  70.2327957  31.8459358  55.8015633
  70.9186630  32.3969460  55.4244690  69.8446274  31.3984623  55.0496826
  43.2652473   8.6822786   6.6929674  43.4454002   9.5947351   6.9192452
  43.8507118   8.4975519   5.9585695  42.8195229  52.3808708  18.9373474
  43.0475845  53.2685776  19.2133942  43.4180527  52.1937218  18.2141819
  48.7119865  53.7027168  49.2290344  48.1287193  54.0626831  49.8972092
  48.3675613  52.8262749  49.0574303  54.9210854  44.9201546  48.0559196
  54.7640114  45.7007866  47.5247192  55.7277527  45.1137352  48.5334587
  19.0794678  50.6361465  21.1684761  18.7618771  51.3506622  20.6163540
  18.4025459  50.5310059  21.8370228  76.5613556   6.1813564  77.9968796
  77.1956711   6.7840858  77.6088181  76.2810059   5.6271110  77.2685623
  20.3815746  49.1985817  25.8636627  20.3399982  48.6281052  26.6311665
  20.9647465  48.7420845  25.2572365  20.5117092  44.6953201  85.7035294
  20.6554737  45.4817581  86.2299194  20.5884876  44.9958725  84.7979889
  16.9548531   9.3946362  43.7623329  16.0033379   9.4980068  43.7751770
  17.0927639   8.4738379  43.5401955  56.6659088  48.3330345   4.2296305
  55.9419632  48.9532661   4.1433315  56.5321007  47.7080688   3.5170672
  85.1933365  52.5804291  41.2763214  86.1421509  52.6319962  41.1609268
  84.9061203  51.9471817  40.6184883  56.5328484  39.4088058  48.2486839
  56.5938110  38.8589478  47.4675484  56.5958786  38.7941628  48.9797592
  19.7647839  52.5704193  65.7252884  19.2850990  52.3618011  64.9236603
  20.6749229  52.6611252  65.4430618  48.3931541  61.2246056  68.4873581
  49.0892220  60.8348732  69.0163422  48.4540062  60.7764778  67.6437302
  55.5450554   7.0681324  30.3812008  54.7257805   6.5740414  30.3513489
  55.6876755   7.2394123  31.3120918  41.4295845  41.4296265   8.1279306
  41.0602036  42.3095818   8.0539703  41.5509224  41.2990685   9.0683899
  72.5791931  20.6394043  36.7864532  73.2974472  21.1248913  36.3806877
  72.5418243  19.8158817  36.2999916  39.8160973  31.7043114  13.8283272
  39.1226082  32.3412895  14.0002670  39.7193604  31.4895020  12.9005709
  70.9304276  16.5906353  36.1856575  71.1739960  15.9907398  36.8906631
  70.0822144  16.9438171  36.4540367  56.3465004  41.9137192  68.5035019
  56.6069107  42.4056549  69.2822342  55.4285851  41.6901016  68.6573181
  26.9509678  55.1967049  63.2946587  27.7818375  55.6639023  63.3819122
  26.5312309  55.5948715  62.5320892  81.0483322  59.1630745  43.1291733
  81.0189667  58.9488029  44.0616188  81.2669907  60.0946312  43.1042557
  75.4445953  51.0369225  85.9093170  75.8394470  50.7769318  86.7416229
  74.5654068  50.6591454  85.9329529  61.8375282  27.9200363  62.9437790
  60.8886070  27.9304371  62.8186035  62.0061798  28.6359940  63.5563087
  17.1752300  43.3605804  38.3772125  16.8652763  42.5209541  38.7166023
  16.3791389  43.8774033  38.2532425  71.1471481  56.9115067  33.4973869
  70.3381958  57.4121513  33.6031380  71.7848511  57.3680878  34.0461159
  11.8398342   4.6486664  27.5292282  11.6457195   4.5336947  26.5989952
  10.9810057   4.7136889  27.9468613   9.2534752  22.6579723  60.1200447
   8.6767435  22.1061745  59.5917168   9.1320868  22.3427887  61.0156746
  73.1705780  11.2031374  82.1753845  73.2658615  11.5787716  81.3001404
  72.5798645  10.4597960  82.0539856  60.0266991  15.8407488  29.5920372
  60.3959503  16.1202183  30.4297600  59.1505623  15.5231266  29.8105106
  50.9002533  20.1873188  10.7208319  50.3104515  19.4674435  10.9447603
  50.3263245  20.8647823  10.3632336  11.6644144  70.2796707  13.7253180
  11.2435102  70.0553131  12.8954182  12.2382956  69.5365295  13.9114180
   2.7177858  42.1304398  41.3355942   2.5459099  42.9604530  40.8908806
   3.6383014  42.1826515  41.5928040  47.1131248   5.6948094  77.8717804
  47.7777939   5.4176726  78.5023651  47.6112785   5.9498758  77.0952377
  19.9706993  41.5400810  76.7319641  19.3596001  40.8193130  76.5793839
  19.4750004  42.1668930  77.2588654  77.3646851  69.1571045  46.7549591
  76.9217911  69.7094116  47.3991928  77.7949677  68.4792099  47.2760582
  11.7452564  49.3595123  51.8712959  11.2200174  49.3186951  52.6704788
  11.2319975  48.8779869  51.2225075  68.1717529  44.8274612  57.2874374
  68.6439133  45.5558701  57.6908188  68.1090088  45.0656281  56.3624649
  63.5764961  47.8744774  10.3168707  64.2449188  47.2222862  10.5268421
  63.7239876  48.0799446   9.3936901  45.4971352  41.7215424  60.7111473
  45.9805336  42.3753204  61.2162628  45.3966408  42.1149025  59.8443146
  54.3647995   4.9820766  66.4451904  55.3104401   5.0468607  66.3117599
  54.0015984   4.9246402  65.5614395  12.6885509  24.0363064  10.2020369
  11.9402084  24.2901802  10.7421875  13.4397326  24.4565411  10.6208000
   8.8196411  19.2689705  56.9819756   7.9197774  18.9459896  56.9354897
   9.2318249  18.9457169  56.1808243  28.5863075   1.1979846  31.7402325
  29.1880493   1.6146709  32.3570900  27.7241058   1.5373081  31.9804363
  37.8966484   4.3445311  62.8125687  38.7337761   4.8055096  62.8669014
  38.0898399   3.5561652  62.3052330  27.0497284  46.4448700  16.7110767
  26.7762623  45.7525291  17.3128357  27.9322681  46.1919556  16.4401741
  14.9051743  54.4174690  30.9295979  14.3484945  53.6394386  30.9613438
  15.7017641  54.1241302  30.4872971  68.4854050  49.9884109  83.9845505
  68.9494247  50.6106606  84.5446548  68.4174500  50.4317894  83.1389542
  50.3339195  22.3585587   2.9460289  50.6942329  22.7116356   3.7595062
  50.5727577  21.4317513   2.9606788  78.0526886  34.4451408  27.1451397
  77.2598953  34.9747925  27.2298946  78.7550812  35.0834923  27.0211391
  18.9307423   7.5919180   3.8311341  18.5172558   6.7335968   3.7386863
  19.7248726   7.5336747   3.2999141  29.3198032  38.2125015   1.3542207
  29.1455460  38.0846138   0.4217446  30.1108837  37.7005272   1.5224642
   3.6042757  38.8627243  16.7106705   3.8669538  38.1164665  16.1718426
   4.3992944  39.3891487  16.7946396  50.5300331  34.7435303  50.3325272
  50.5227051  35.1272621  51.2094116  49.8430557  35.2133751  49.8597298
  27.8567429  26.6688747  83.7335205  28.0285835  27.5442886  83.3866043
  27.8768692  26.7797260  84.6840668   0.4601455  62.7387390  31.0567703
   0.1889797  61.9327126  31.4961071  -0.3103257  63.3051796  31.0986099
  24.6725788  53.4869270  16.7205868  25.5183849  53.9350395  16.7143421
  24.7403145  52.8377037  16.0204792   6.6653686   1.2792729  13.7497044
   6.9843473   1.3544805  12.8503551   6.6870823   2.1747351  14.0872068
  74.1746902  63.1838417  37.6365891  74.3335724  63.7923965  36.9150276
  73.2803040  63.3752556  37.9188194  41.9688835  48.1329231  33.4572144
  41.1540718  48.0522270  33.9530029  42.4606323  47.3408394  33.6740532
  40.9691238  63.2880096  62.8253746  41.7203407  63.4011841  62.2430534
  40.4443626  64.0779648  62.6956482  21.2203350  -0.0429528  40.9701004
  21.4424477   0.3241500  41.8257484  21.9439335   0.2201977  40.4014282
  39.0117378  16.4167824   3.6723306  38.9275284  15.9909458   2.8192165
  39.7077789  15.9310265   4.1148248  41.5890846   4.3935885   3.7439911
  42.4539871   4.7933264   3.8355668  40.9757996   5.1156430   3.8809197
  40.6942711  42.3159065  25.1434956  40.3465157  42.8770256  25.8366356
  40.6896553  42.8692627  24.3624649  44.2569771  22.9618092   8.0140152
  43.6133041  22.3029079   8.2743397  45.0685158  22.6850815   8.4395199
  75.0259705   3.6086218  58.1680603  75.7974167   3.0719192  57.9862480
  74.3792419   2.9907272  58.5089111   8.5111742  27.0887241  12.0810566
   8.3906450  26.2649517  11.6087189   7.6220312  27.3903332  12.2673035
  53.8614349  11.5965605   7.8861494  54.5464516  12.2624760   7.8266683
  54.0123482  11.0294905   7.1299167  11.6653452  41.4774361  10.4681625
  11.6509905  42.3724937  10.1292038  12.0968943  41.5505905  11.3194237
  15.4031439   0.5509944  23.3480625  14.5315876   0.4840887  23.7381210
  15.3246202   0.0999112  22.5074749  12.3635349  51.7914276  80.7046051
  12.4055967  51.6381798  81.6485214  12.6775818  50.9753418  80.3152313
  14.6376600  18.8174343  78.3284073  14.4828463  18.3469410  79.1474915
  14.5662422  18.1463966  77.6495514  19.2695007  64.7830276  82.7032700
  18.3996239  64.3900604  82.7748260  19.8642769  64.0365829  82.6305084
  54.5416374  45.6129265  17.8095188  55.1154747  46.1255913  18.3788280
  54.3507004  46.1956482  17.0745277  32.7473373   3.2848711  32.0493050
  33.1237869   3.8559921  31.3797226  31.8018723   3.4088261  31.9658718
  33.8916817  17.8885155  17.8416233  33.7870522  18.8288059  17.6962337
  33.0446930  17.5132141  17.6008129   8.7174969  38.7201691   8.2304296
   8.8634357  39.5952797   8.5897541   9.5020180  38.2280121   8.4723806
  77.0038681  13.0951281  11.2588863  77.8613663  13.5086164  11.1591473
  76.3927002  13.7103825  10.8537035  31.6067905  13.8421879  80.7700500
  32.1037292  13.0364552  80.6283569  30.8877182  13.7940168  80.1400909
  61.4779739  21.9253597  28.7628670  61.0239906  21.9697380  27.9213448
  60.9467163  21.3289967  29.2904568  81.2635193  51.1928215  52.6062012
  80.4648895  51.2995682  52.0894508  81.7441788  50.4939384  52.1626320
  86.0506592  48.0719910   4.1987491  85.7573853  47.6330605   4.9972248
  86.4929428  48.8623390   4.5085354  82.6534958  59.8153687  45.4796181
  83.2519302  59.0841484  45.3265839  83.1962051  60.4864159  45.8936157
  30.3864689  64.2679062  40.0682526  30.7715302  63.4103317  39.8878822
  29.5285301  64.0709305  40.4442482  85.8939590  29.9106274  49.4955597
  85.8744202  29.1722851  48.8867073  85.1185608  29.7897110  50.0436172
  27.0602436  30.7218151  83.4903183  27.1440487  31.6630325  83.3376160
  27.0516033  30.6336384  84.4434128  31.5962200  52.2204323  26.6657524
  31.0870056  53.0177612  26.5201416  32.1548042  52.4265137  27.4152508
  52.2819901  56.7159462  54.1626930  52.8354378  56.1947556  53.5810699
  51.9029541  56.0782661  54.7676125   5.5574217  39.9531555  31.4095631
   5.8642335  39.0770378  31.6430626   4.6113348  39.9213371  31.5514717
  64.3422775  18.9782372  69.3726044  65.0948944  18.3948536  69.2753525
  64.4729538  19.3980732  70.2228317  66.9655533   1.5751231  18.1511192
  66.8513260   1.2025957  17.2768135  66.4361191   2.3725345  18.1427441
   0.0489217  50.9019356  72.0943298   0.6344454  50.1746292  72.3050919
   0.3568825  51.2190475  71.2453079  64.9542847  33.7020416  84.9839096
  64.1110077  34.0516739  84.6960297  64.7268066  32.9799500  85.5696335
  21.9362431  61.0849228  61.6105309  21.9102859  60.1348953  61.7245903
  21.2060413  61.4094620  62.1375122  55.0836868   4.2198687  70.9120941
  55.0101891   5.0544362  70.4491348  54.9399643   3.5575430  70.2361450
  82.2304993  62.7465401  50.3424797  81.3773422  63.1397591  50.5261459
  82.7694244  63.4758873  50.0361290  83.0107040  50.7141533   6.2702746
  83.9457703  50.9158020   6.3052301  82.6290665  51.2229347   6.9856234
  20.1970711  38.7596512  15.1384583  20.1896534  39.4149704  15.8361206
  20.4122944  39.2541542  14.3476477  33.2109032   1.2709368  11.6054230
  32.7040176   0.9214464  10.8725128  33.8262711   1.8824999  11.2010136
  66.9992218  62.9541435  83.6737671  66.9651108  62.6059113  82.7828140
  67.1322098  62.1843300  84.2268829  22.9299145  12.7088881  86.8332596
  23.5828247  12.2420654  86.3117065  22.3077641  13.0485325  86.1899872
  72.1008987  19.3740196  19.1603909  71.8773880  19.9289093  18.4131508
  73.0416641  19.5027122  19.2813663  76.8360596  25.5063419  55.6238136
  76.8393478  25.5472431  54.6674919  76.6148682  24.5967941  55.8238831
  39.0015831  63.4996223  71.8612442  39.4517326  64.3408508  71.7842712
  38.6725464  63.4853935  72.7600021  70.0373535  66.2621536  89.2652130
  69.3037720  66.4452515  88.6782150  69.9118423  65.3503952  89.5282364
  80.2411804  13.0172882   9.1089392  80.9712524  13.6343336   9.0590515
  79.6266556  13.3187332   8.4398203  47.2529793  58.4688606  49.4459953
  46.4814377  57.9607811  49.1953697  47.1424980  59.3082047  48.9993095
  60.0948296  24.3390236   2.3910673  59.3034706  24.0474205   1.9383477
  59.9157372  25.2500877   2.6236989  13.9382277  65.0521088  26.4178200
  13.7650766  65.9830551  26.5577641  14.5984106  64.8299408  27.0743504
  52.5864334   4.2867012  39.5571480  53.3263550   3.7050817  39.3825912
  52.9531288   4.9843578  40.1003265  76.2736206  38.7089882  25.6158466
  75.9011536  39.5663795  25.4099655  75.8484650  38.1096153  25.0024700
  13.8739605  48.2854843  66.3630371  13.8476105  47.7130318  65.5963364
  14.0837736  47.7008705  67.0913467  21.2800236  63.7956161  59.0700073
  21.2183208  62.8478775  59.1892433  20.5037479  64.1432953  59.5090370
   4.9847007  27.3043232  81.6775284   5.1697764  27.7188492  80.8348236
   4.2251368  27.7784061  82.0159683  38.8538551  14.5689564  15.0606470
  38.9021797  14.8104706  15.9856157  39.6189728  14.9855328  14.6640472
   4.3956914   0.7894673  10.0068312   5.0172029   1.5005863  10.1626043
   4.9415922   0.0070960   9.9286060  72.9897156  15.1947060  15.8372326
  72.8443375  14.6210232  16.5895519  73.7497787  15.7225962  16.0819130
  38.4982033  35.5046005  82.6364594  39.0239449  36.1052704  83.1646881
  38.9146729  35.5162468  81.7746887  35.4003868  65.8143311  62.4858704
  35.6072464  64.8848267  62.5831680  36.2351570  66.2227554  62.2565613
  10.3213940  38.1265564  23.7080402   9.5373726  37.6261864  23.9342556
  10.6270924  38.4828644  24.5422020   7.0232744  48.1763611  64.0120163
   7.2214546  49.0533371  63.6835823   7.5750556  48.0809860  64.7883377
  49.4752007  71.7605057  80.0096283  49.0081787  71.1510696  79.4380417
  49.7955360  71.2164459  80.7290878  81.3115082  46.4480629  76.2232056
  81.0246811  47.0782547  76.8841324  82.2584534  46.5754700  76.1658096
   6.4890480  47.7540894  11.7556658   7.4103694  47.7651367  11.4962883
   6.4153843  47.0041847  12.3459606  14.3080540   9.4582853  87.8842087
  14.3290691   9.9416399  87.0582809  13.6610231   9.9213562  88.4163284
  75.2723541   3.2397845  25.6744347  75.2980499   4.0877638  26.1177216
  74.8182678   2.6623669  26.2881298   1.6815419  40.9860458  43.6660690
   1.8210132  41.2615852  42.7600555   1.2306973  40.1447601  43.5938530
  80.2054443  62.1423569  76.8688278  79.3888855  62.4011421  76.4416351
  80.8480988  62.7836685  76.5655975  47.8324280  67.6171417  28.3640308
  48.2053337  68.2210159  27.7217617  48.5586662  67.0399551  28.5999603
  11.3762093  47.6417618  60.5995941  11.8903427  46.8930244  60.9017410
  11.3927937  48.2556419  61.3338318  55.3593903   3.5335119  15.2060966
  54.6401482   3.6269653  15.8307447  55.3325729   2.6127315  14.9459505
  76.7727356  63.1244850  15.1864357  76.7007828  64.0188675  15.5198097
  76.8430481  62.5812225  15.9713898  61.7302322  13.0650654   3.1749430
  61.2130318  12.3863316   2.7412891  61.1006851  13.7602177   3.3664305
   2.4830327   4.0846891  73.4675064   2.0561996   4.4334297  72.6849289
   2.4027991   4.7842016  74.1159439  56.3225746  11.2919750  53.9420509
  55.7744370  11.6703205  53.2545700  55.7234573  10.7490540  54.4544258
  69.4185638  67.3631516   2.7979856  69.5851746  66.9735641   1.9396762
  69.0148392  68.2088318   2.6028712  80.0673218  46.1957932  48.0252419
  80.1479492  47.1032143  47.7314377  79.3615799  45.8326149  47.4902039
  84.8739319  54.0878754   7.0804582  85.8056412  54.2100372   7.2627611
  84.4556503  54.8725471   7.4348097  23.4104900  53.5971489  73.1726532
  24.0888691  53.8905869  73.7808685  22.9916153  52.8607559  73.6181793
  28.0467815   3.4247780  21.4222183  28.3496189   2.5301521  21.5776730
  27.6119080   3.3858180  20.5703964  85.0406189  69.6299896   1.7821983
  84.9196243  69.8877640   0.8683356  85.9521027  69.8501129   1.9744792
  17.4591103  37.3728676  37.3516960  18.3571033  37.3918495  37.0208168
  17.2486553  38.2902260  37.5260391  67.8796082  50.7283897  20.3751545
  66.9633331  50.8421593  20.1227245  68.2434464  51.6136436  20.3616905
  54.2252045  54.9377174  52.5415535  54.4337120  54.3161469  51.8441238
  54.3528023  54.4418907  53.3503227   4.7724643  51.3840179  33.8187408
   5.2604513  51.2762718  34.6351280   5.1202521  52.1896629  33.4363594
  42.4082603  46.9761543  53.1956062  41.8326683  47.6698074  52.8734665
  42.7262344  47.3007469  54.0380783  36.8733559  11.3789263   5.5987892
  36.0671692  10.9781713   5.2736855  36.5805931  12.1626520   6.0638652
  42.0975800  34.3212585  27.9009190  42.9249916  34.6585274  27.5575981
  41.7164841  33.8333168  27.1709118  36.4074402   3.2533414  18.3387985
  35.8489075   2.5005426  18.1449795  35.8613930   3.8237178  18.8798504
   7.9448786  10.2979565  47.8781548   7.3041420  10.7149429  48.4541855
   8.2259159   9.5183229  48.3571358  51.4042168  65.5946503  48.4877853
  51.3858109  66.2593307  47.7992439  51.0158463  64.8192596  48.0826111
  47.2317772  34.3531227  81.0710220  47.8469086  33.7089691  80.7204361
  47.0042877  34.0194588  81.9388657  79.5294647  68.0068970  31.8816681
  78.8717804  68.4860764  31.3776207  80.3498154  68.1618729  31.4134293
  69.7360229  38.0440941  87.7192459  70.5696564  38.1798286  88.1696548
  69.2099380  38.8086739  87.9535217  33.2505379  13.4823456  11.2087212
  33.1185036  14.2363338  10.6340027  33.4572639  13.8645763  12.0615969
  54.4840240  68.2810516  19.1792946  54.1638832  67.9717789  18.3318920
  54.6868858  67.4815674  19.6649857  71.0778122  39.4001999  72.2470703
  70.9548264  40.3110886  72.5142670  70.1916428  39.0405350  72.2072983
  47.2890816   6.3248329  28.3973637  47.8500862   5.7901740  28.9591885
  46.7282219   5.6927261  27.9477978  52.4698219  56.8246880  82.5751877
  53.3917122  56.5763664  82.5067062  52.4731102  57.6086578  83.1243820
  24.1009102  53.2024498  81.1302032  24.2271252  52.8554192  82.0133057
  23.9649353  54.1411591  81.2589111   1.4730127  57.8478394  69.8919754
   1.5892874  56.8997269  69.8303452   0.6658961  57.9579887  70.3946304
  19.9818954  70.4836121  17.1391392  20.9178886  70.4865799  17.3394814
  19.6694527  69.6403427  17.4670124   1.8736690  29.0095005  44.1878395
   1.9700112  29.4842072  45.0134354   1.0574397  28.5194626  44.2871628
  68.0685730  61.1066475  22.6841354  68.5752869  61.7702217  23.1522579
  67.9774857  61.4560738  21.7976627  76.8795166  19.9747543  43.0241661
  76.8171005  19.0402946  43.2219543  76.1242218  20.3638573  43.4650230
   9.9745255  41.1562729  19.8635960   9.8351736  41.8207893  20.5383034
   9.0934000  40.8664513  19.6272640  32.0437355   9.3965359  27.6151199
  32.5438957   9.5346270  28.4194832  32.0439034  10.2508154  27.1833344
  75.2268066  18.6520004   7.8220963  75.0046310  18.8889923   6.9217043
  75.5525360  19.4641438   8.2101097  27.4032688  53.8411140  13.3405714
  26.9941463  54.6889153  13.1671257  28.1706486  54.0499840  13.8732367
  59.9401665  44.6575737  68.6823883  59.2409363  45.0313148  68.1460724
  60.6760139  45.2593117  68.5698090   0.3690678   0.8191347  81.7529221
  -0.2523707   0.6858612  82.4686661   1.0142416   1.4313226  82.1067734
  84.9300308  60.2937546  75.1496735  85.3887558  59.4559135  75.2115326
  84.0101318  60.0746880  75.2980957  25.7044315  68.9189453  55.1870384
  24.7734547  69.0717621  55.3487740  26.1498184  69.3791046  55.8984528
  11.8908043  31.3614044  74.1007538  11.9855766  32.2168808  74.5195694
  11.5015488  30.8058949  74.7761230  66.6836624   1.8073283  53.4784737
  67.2467117   2.5785966  53.5444489  65.9943085   2.0656641  52.8666878
  46.2677917   3.8053615  24.6587563  47.1576004   3.8226068  25.0111389
  46.3692551   3.4688694  23.7684135  24.2389202  62.1718826  49.6665230
  25.1379757  61.8646355  49.7828407  23.9505806  62.4081078  50.5481606
  33.0416183  29.1962872  24.5787792  33.0178871  28.5832920  23.8439980
  33.4879456  28.7165871  25.2765694  74.8523331  28.9344902  29.1163082
  73.9026566  28.8306255  29.0566750  75.0088882  29.1881199  30.0259190
  43.7532425  50.6808434  45.0704041  44.3874474  51.2790680  44.6752586
  43.0199203  50.6687546  44.4553223  17.9371090  63.9637032  22.6637268
  17.0992508  63.8420982  23.1103115  18.2805214  63.0770874  22.5532284
   1.2023419  67.0962906   3.9343896   1.0533249  66.7122421   3.0703681
   1.9768938  67.6472015   3.8212700  86.4932785  40.1156731   6.0303173
  86.5383377  40.1849670   5.0766926  85.7050552  40.6035271   6.2689328
  34.4290733  11.2010145   7.5159426  34.1383858  11.0529413   8.4158354
  35.1368408  11.8405733   7.5950408  77.5065842  37.5507545  56.2472191
  77.0284042  37.8941803  57.0019646  78.3983002  37.8804703  56.3583870
  80.1002502   9.7978411  86.5642548  80.3921432   8.8870983  86.6040039
  80.9087677  10.3057489  86.4967117  51.6641083  58.3769951  66.0988998
  52.0122032  57.7512627  66.7341309  52.2310829  59.1436653  66.1825104
  44.4630699  49.2626839  58.8229790  44.1311264  50.0239372  58.3470192
  43.7443047  48.6311264  58.7958260   2.7656252  51.1640701  16.9962826
   2.3811402  51.8338699  16.4307995   3.1869459  50.5531960  16.3916759
  11.9531460  63.8715172   3.5697780  11.2033834  63.7630272   4.1548576
  12.5664282  63.1868477   3.8368788  54.5800858  27.7433395  81.4985733
  54.6333313  26.8059483  81.3123169  55.0777626  27.8552475  82.3085251
  67.0580292  10.5519886  72.0063553  67.5716248  10.4483852  72.8074341
  66.9827652   9.6652908  71.6537476  16.6588821  16.5245914   4.0749002
  15.7377357  16.3683186   3.8668110  16.6413727  17.2216644   4.7306547
  17.9433327   3.5418301  55.4487953  18.5405388   4.0173402  54.8713303
  18.0608864   3.9523852  56.3054504  26.9263287  21.6739674  28.7393341
  27.5748386  20.9751434  28.6538181  26.0874367  21.2438202  28.5736027
  76.8577728  28.2435093  74.8240204  77.3904266  28.4325142  75.5965424
  76.0366898  27.9009743  75.1771927  54.7454224  14.9638014  65.2285004
  54.5158310  15.8928986  65.2457581  54.0659065  14.5394020  65.7523117
   6.9007921  32.2698860  76.7550735   7.5654898  31.9764271  77.3782043
   7.0439954  31.7279453  75.9791718  83.3402252  60.9578209  79.1834183
  83.4530334  61.8937035  79.3496323  82.4157028  60.7916107  79.3674316
  40.2248764  52.6800919  21.2983150  40.0733643  53.0253639  20.4185066
  40.2444382  53.4551468  21.8596878  25.5687771  54.7092361  74.4957428
  25.8890610  54.0719261  75.1340866  25.3774548  55.4913216  75.0133972
  20.9613476   5.8156505  79.2479935  20.6423836   5.8205676  78.3455124
  21.8469830   6.1743026  79.1909714  38.7249374  18.4476452  81.7881851
  38.9191666  18.6563053  80.8744202  38.6447601  19.2998371  82.2166367
  84.3399048   6.1780262  63.7905579  83.9814758   5.2921700  63.7356224
  85.0842133   6.1729937  63.1887207  55.4064636  64.0767212  79.8900604
  55.9948082  64.6293030  79.3755341  55.0025406  63.4935341  79.2474365
  63.0238533  31.6663380  25.4042664  63.1261444  32.6159859  25.3414822
  63.7490196  31.3127537  24.8891525  21.0498600  26.1102161  79.0269699
  20.6879730  25.3198967  78.6261368  20.3714104  26.4021702  79.6358185
  62.4713669  26.9179668  27.3395710  63.1806183  26.9314899  27.9822330
  62.8165245  26.3993721  26.6128273  84.4615936   3.6430292   9.4918108
  83.8191147   2.9336033   9.5048466  84.1298370   4.2782979  10.1263227
  78.6532059  66.9632492  48.0369835  78.7970200  66.7459412  48.9580269
  78.3183289  66.1545563  47.6495552  47.9836769  45.2316895  24.1774292
  48.6445084  45.1559067  23.4891052  47.3891792  44.4980812  24.0205173
  76.8467026  61.7997780  53.3895187  76.7390823  61.1393356  54.0739632
  77.5725250  61.4758644  52.8561325  24.0134678  25.8128586   9.6228676
  24.9540272  25.7422180   9.7859230  23.9348354  26.5111752   8.9729424
  43.3423538  44.8575745  27.6340694  42.7740936  45.4709511  28.0999889
  43.3556366  45.1805000  26.7330837  43.7238083  68.7581329  89.0487747
  43.4317970  68.1170349  89.6968079  43.5306931  68.3503647  88.2045746
  49.4830055  57.6005402  35.0705376  48.7919121  58.0862885  34.6203461
  49.1280975  56.7173347  35.1716423  49.7773476  54.3111076  63.4149513
  50.2201271  54.1150322  64.2406235  50.3670616  54.9158363  62.9646492
  68.1349030  57.4047279  84.6154709  68.4486237  57.3044777  83.7167130
  67.7886658  56.5425987  84.8458633  54.3549995  32.8560944  77.8951263
  54.1568642  33.5890770  78.4779739  53.6329384  32.2420425  78.0285339
  63.9240227  52.6789551  13.8134661  64.4125824  51.8600464  13.8966818
  64.2911758  53.0989113  13.0356045  85.3548126   6.6494575  54.6679497
  85.8970718   6.0388083  55.1672478  85.5044098   6.4099207  53.7533607
  54.6172905   5.6852665  13.8594322  54.9435577   4.9276457  14.3450165
  53.9255600   6.0456219  14.4143105  47.8779297  20.9269295  86.6959152
  47.8668594  21.0052204  87.6498413  46.9811363  21.1283245  86.4286423
  74.7450333  11.5348539   4.1353502  73.8385086  11.6716108   3.8601291
  74.6973343  11.4604053   5.0884581  19.7551975  46.4058151  83.6052246
  18.8559780  46.1187782  83.7641068  19.6626835  47.2515221  83.1665268
  24.8410816  57.0542755   7.7688632  25.7590752  56.9799004   8.0296078
  24.8728676  57.3946724   6.8747988   5.8870988   5.2381835  82.3051605
   5.7758169   6.1740537  82.1378403   5.8701196   4.8359365  81.4367447
  24.2393303  41.2315865  75.3451614  24.6450195  41.8054008  74.6952515
  23.7975674  41.8284645  75.9491577   5.1197591  71.0350189  33.6594505
   6.0724177  70.9430542  33.6447945   4.8314972  70.6755447  32.8204536
  41.6874237  30.1104774  15.3448706  41.2224693  30.8463116  14.9466295
  42.4907913  30.0284061  14.8309612   2.0213916  57.4197235  27.1031570
   1.1893514  57.6282234  27.5279732   2.4693763  58.2622223  27.0274029
  43.1625443  50.1064987  54.4020462  43.4789658  50.8471298  53.8847694
  42.2448883  50.0109329  54.1470871  37.1308098   2.4885812  43.1009789
  36.5862007   1.9050664  42.5726357  36.6691055   3.3269145  43.0849457
  33.2205429  66.8297806  73.4763794  34.0598526  66.6273117  73.8896561
  33.2318726  66.3357620  72.6565933  12.9037600   5.9846435  40.4318047
  12.3702326   5.4954386  41.0581093  12.3820009   5.9950018  39.6293755
  36.6544228  38.8896370   2.1066968  35.9780846  39.5617905   2.1903970
  36.1705322  38.0846214   1.9222327  37.0393829  60.1899529  28.6073933
  37.6198502  59.8177109  27.9435215  36.1629601  60.1109238  28.2307320
  71.8823395  71.3699722   5.4235954  71.8780746  70.8830032   4.5995345
  71.4330597  70.7955246   6.0435905  26.2743053  61.3232574  53.5848808
  25.3533401  61.3644066  53.3272705  26.3197117  60.5870171  54.1949005
   5.0042148   7.5200119  86.4336319   4.5811305   8.1292181  85.8285675
   5.5312557   6.9517756  85.8718719  79.8047638  26.6461353  72.2613068
  79.9332886  26.7961559  71.3247147  78.8549118  26.5935211  72.3673172
  70.7475357  57.4516068  37.0235786  70.4090347  58.3187866  36.8007507
  71.1115189  57.5552292  37.9027863  77.7861252  65.9518051  80.8824158
  78.3660049  66.1144409  80.1384201  77.7518387  66.7881775  81.3466644
  62.3788605  61.4517136  49.6567459  62.9382057  61.4497719  50.4335098
  61.6954651  62.0918503  49.8553085  72.9483719  56.4167595   3.0928879
  73.8481216  56.7430229   3.0778389  72.4125443  57.1980553   3.2296274
  83.5782928  35.4453354  25.0911636  83.2380905  36.3027687  25.3467064
  84.4423599  35.6304359  24.7232513   7.6058173  43.0742874  89.0433273
   7.0129542  42.8671150  88.3209457   7.6904092  42.2525787  89.5269241
  69.0923386  56.6677513  21.0342884  69.1719208  57.3001556  20.3201694
  68.2449341  56.8633652  21.4341240  23.2631054  43.1988411  72.7582245
  23.6963100  42.5490952  72.2046890  22.4529915  42.7728729  73.0383987
  79.0658798  53.0735397  60.7311668  78.3182755  52.6934013  61.1924896
  78.7645874  53.1732483  59.8281097  63.0605545  47.0309258  17.0673809
  63.3747749  46.2326622  17.4919643  63.6985397  47.2005959  16.3742580
  84.1743698  42.5535545  48.0074387  83.4957886  41.8800888  48.0543861
  84.7001266  42.3110886  47.2451935  20.3687668  17.1765518  10.8969059
  19.7168369  16.9118481  11.5458689  21.2052269  17.1126919  11.3578701
  30.2456532  57.4751701  25.5287189  29.6046066  57.2601204  24.8511906
  30.7549610  56.6723938  25.6400166  22.0025120  52.0976830  88.8092194
  21.7580013  51.5540733  89.5581741  21.3421898  52.7903938  88.7903214
  82.5827179  61.4742241  60.9686012  82.3762054  62.0033607  61.7390518
  83.1221161  60.7593460  61.3065834  46.6433182  50.6404495   0.1154120
  46.2713318  51.5217667   0.0817329  47.3724174  50.7115974   0.7315153
  34.4701500  24.9737053  12.4167252  34.5535698  25.4170532  13.2609491
  33.5261497  24.9123917  12.2706394  19.5512371  68.4592209  29.1174774
  20.2063885  69.0489044  28.7442722  19.2689800  67.9175797  28.3804626
  60.1357689  38.0750885   2.9081268  59.4627800  38.1474304   3.5849428
  59.9278564  37.2609520   2.4496720  73.2616653  64.1625366  31.1674652
  74.0288467  63.6599236  30.8935184  73.6227646  64.9675980  31.5385494
  21.0267868  66.5866394  19.8141422  21.1113071  67.4363480  20.2466736
  21.4257030  66.7152023  18.9535789  72.5859680  27.7063675  42.3664742
  71.7478943  27.4891949  41.9581833  72.9383545  26.8637333  42.6528778
  55.2421951  30.0617409  84.1014481  54.7101898  29.2676735  84.0498962
  54.9095879  30.6189709  83.3978119  39.6052055  59.7011604  27.1684723
  39.9988785  59.0579338  27.7579727  40.2652702  60.3899574  27.0903416
  19.2870808  38.6918793  20.9265194  18.7589188  38.5802994  20.1360607
  18.9907017  39.5231133  21.2972527  65.7140961  62.4531326  13.0048914
  66.2444687  63.1739235  13.3445930  66.1499405  62.1975136  12.1919127
  75.5763474  59.8585625   2.0927629  75.5946350  59.3056488   1.3116202
  74.8560486  60.4694214   1.9370065  63.9896278  69.9843903  80.1452255
  64.7472916  70.4042892  80.5524902  64.3118057  69.1271210  79.8667984
  47.3513718  30.5571747  27.7330570  46.6947594  31.2417030  27.8615646
  47.9482117  30.9178505  27.0773716  26.6548214  45.6588097  47.1241379
  27.3727016  45.4359550  47.7167740  25.8914127  45.2169266  47.4958649
  11.7095671  40.7669563   6.7440920  12.6140690  41.0487022   6.8809338
  11.5169001  41.0114059   5.8389096  68.5946579  20.4187660  83.9689407
  69.1953506  19.9195080  83.4156418  68.9290161  20.2956638  84.8573608
  17.6050949  14.3310308  24.6495342  16.7183743  14.2456808  24.9997807
  18.0959911  13.6220589  25.0650005  68.1735001  38.4756279  80.9213104
  68.4540939  38.0889435  80.0918655  67.2243118  38.3527222  80.9339066
  63.8167191  68.7078247  35.7457771  63.1240883  69.3646088  35.8174248
  63.8765373  68.5241165  34.8082771  31.1091232  50.7623329  42.0320663
  31.2748470  51.2718887  41.2388954  31.1387959  51.4054184  42.7404442
  18.7897453  15.1863880  84.8751297  17.8839893  15.2176132  85.1831284
  18.7342548  14.7840042  84.0083847  35.4880753  15.2408304  74.9098663
  34.8923416  14.5088215  74.7501907  35.5843887  15.2679873  75.8618240
  36.7970505  70.0700378  16.6320515  37.4664574  70.6345520  17.0186310
  36.1415939  70.6768188  16.2879181  60.7295837  68.7644272   0.4743612
  61.4768219  69.0591965  -0.0461962  60.2035332  69.5531616   0.6062831
  21.2453556  57.9421501  39.3083153  21.1531410  57.8998260  38.3565063
  20.4854794  58.4456367  39.6004143  41.4411507  69.1359711  55.7431946
  40.7165298  68.8596039  56.3042488  41.0361786  69.7131958  55.0958633
  40.3599586  53.3532257  63.7443390  39.4058533  53.4049988  63.6875038
  40.5821877  53.8703003  64.5186005  19.1400299   5.2110782   5.7333660
  18.7296181   4.5579209   6.3000922  19.0950680   6.0252819   6.2346473
  68.1489029  22.6428471  68.0668793  68.3155441  23.5585232  67.8432693
  67.9355392  22.6591396  68.9998550  13.9577627   6.8488278  53.4324684
  13.9514875   6.2376289  54.1691017  14.0688620   6.2930875  52.6610794
  13.4826279  24.8083477  13.4878187  13.7958059  24.3336277  14.2577496
  12.5732651  25.0250530  13.6935587  17.2569199  25.3160477  27.8938808
  17.1989555  26.0043201  28.5565681  18.1129513  24.9136925  28.0406914
  35.8108063  24.7393265   3.6340268  35.7304306  23.9488392   3.1002634
  36.5790520  24.5808353   4.1825800  85.2037430  41.8828621  87.9350281
  85.6069717  41.1514091  88.4025803  84.7369156  42.3720245  88.6125412
  53.5842857  26.2966900  27.2060184  53.0365410  25.9656143  26.4942627
  53.1099815  26.0602531  28.0031147  76.9805374  60.6649170  43.6348343
  77.5280685  61.2816544  44.1207085  76.1028595  61.0453644  43.6691170
  61.7379379  27.4732933   4.6459260  61.3479195  27.5761833   5.5139890
  62.6063538  27.1080494   4.8152866  33.5605354   2.6398618  51.2688789
  33.2461433   2.3865061  52.1367493  33.9375114   3.5105517  51.3954582
  28.6060562  52.0176392  31.9195251  29.5084515  51.7079277  31.9969311
  28.5820847  52.8188057  32.4427757  30.3722897   2.2116518  36.4737663
  31.2017689   1.9700614  36.0616608  30.5503693   3.0521345  36.8957939
   6.3051190   6.0651827  58.5290031   5.6661735   5.8764262  59.2162819
   6.2438545   7.0114431  58.3983536  26.3947411  69.8088608  63.5230560
  25.5640030  69.5865784  63.9434090  26.9961433  69.1179276  63.8008385
  44.8184280  63.5385399  12.1812477  44.2517929  63.7502480  12.9230938
  45.6751137  63.3715324  12.5742197  41.6367760  24.2218437  72.3566589
  41.9955482  24.8273849  73.0053787  42.2841873  24.2149334  71.6516495
  69.6953735   3.0433962  76.3724289  69.1266632   2.3140302  76.6190567
  69.6948471   3.6172025  77.1385727  62.3467026  46.6864166  14.1378384
  62.1819191  46.8570404  13.2104959  63.0439529  47.2983170  14.3737488
  39.5254669  52.4879532  71.1383514  39.3894577  51.6744041  70.6526794
  39.1467361  53.1666260  70.5796051  66.0667038  56.5589752  50.3649559
  65.1456909  56.3779945  50.1773071  66.3444672  57.1434746  49.6596642
  52.5182571   3.3853226  51.3690414  52.4861717   2.4488258  51.5644302
  52.0482140   3.4732320  50.5398445  47.9151154  43.7245674  72.5579529
  47.2259521  43.2503166  72.0927963  47.4553795  44.1920509  73.2553253
  74.0909348  49.5598450  13.5766497  73.5660248  49.9818611  12.8965015
  73.9306870  48.6238174  13.4566154  68.1270142  68.6175079  81.8817673
  67.9808960  67.9040756  81.2605591  67.9887466  69.4137726  81.3688583
  19.4583359  36.3374710  11.8381281  18.8393917  36.9638367  11.4628820
  20.3171654  36.6489563  11.5524368  80.8545380  46.3704758  64.4787521
  80.4119034  45.5745354  64.1841736  80.5284424  47.0557556  63.8954124
  82.3197556  16.9755058  27.2034473  81.4737854  17.4026756  27.0689507
  82.5276031  17.1400223  28.1232128  39.0064049   5.9655948   8.1131134
  39.4922295   6.7555513   7.8761048  39.6831589   5.3233399   8.3269949
  58.1403122  49.5107269  48.4798470  57.5958672  49.6708069  47.7090149
  57.5165901  49.2936363  49.1727219  63.4700203  62.3683853  54.7826881
  63.4169159  61.4173126  54.8768921  64.3945389  62.5718575  54.9244270
  64.4809265   4.5253196  38.8685417  63.6128883   4.7721815  39.1875992
  64.4012375   3.5963614  38.6519356  51.9764862  13.6019554  26.1570339
  52.7334328  13.2140894  26.5961494  51.4593086  12.8517675  25.8638115
  51.2313919  23.7876968  20.7391682  51.0572128  23.4260197  19.8702145
  50.9742889  23.0918999  21.3441448  73.5971451  23.5620861   6.7636404
  73.2520065  24.4439774   6.9028502  74.5035172  23.6088200   7.0678511
  48.7950439  45.0865860  18.9242744  49.6404800  45.1565895  19.3676376
  48.2171936  45.6692200  19.4170780  75.7934799  46.8054390  73.7486038
  76.1861877  46.6450844  72.8905258  75.0656586  47.4013214  73.5713272
  42.7367668  60.7256737  72.4020309  42.3670158  61.6059036  72.4706879
  42.0825081  60.1585541  72.8101425  54.8571892   8.2932911  16.0509510
  54.8992653   9.1112099  15.5555010  54.3799782   7.6914992  15.4796820
  58.5871582  62.1321793  86.5803909  58.4602013  61.8747787  85.6672287
  59.4260025  61.7413597  86.8249969  81.6926956   7.7111678  87.3894653
  82.5208740   7.4925508  87.8167267  81.9193115   7.8113751  86.4648895
  39.4101181  50.2616386  69.7958069  39.7291031  49.5844727  70.3924026
  38.4751930  50.0783424  69.7033539  22.4742947   5.6871061  54.1037064
  23.1999989   5.4861212  53.5127869  22.0342770   6.4337578  53.6973495
  26.7668972  28.1394672  87.8501205  27.5861816  27.9027290  87.4154282
  26.7476864  27.5955582  88.6375351   4.1971908  35.1069450  30.9148235
   5.1247993  35.3255615  31.0041561   4.1219378  34.2268600  31.2836342
  37.3598099  33.1638603  19.4152985  38.0930099  33.6178322  19.8307076
  37.1815681  33.6712875  18.6234760  58.5622711  50.2293587  65.2131577
  58.4748306  49.2795258  65.1331177  59.4010773  50.3561516  65.6565018
  71.1057205  35.0943794  11.9519176  70.1858673  34.9137840  12.1455297
  71.5263062  34.2346153  11.9640284  25.5985756  60.8587036  82.0863953
  25.0248203  61.2520294  82.7439117  25.2838459  61.2094803  81.2532501
   7.2622080  15.0517044  51.2754822   7.6855650  14.2886152  51.6687927
   7.9773560  15.5365820  50.8635483  19.5465984  38.3441124  35.2267838
  20.2168560  37.9998169  35.8170776  18.9060326  37.6366653  35.1531105
   3.2128301  67.1340408  35.0013962   3.2517595  67.0440903  35.9535675
   4.1145883  66.9974899  34.7108498   8.1348782  16.4931736  67.9606628
   8.7497396  17.0605164  68.4257431   8.6101179  16.2161961  67.1772919
  66.7909393  38.9148064  48.5983200  65.9863968  38.8641815  48.0821991
  66.5027771  39.2071190  49.4630432  67.4684601  54.8565369  34.7514153
  67.6202087  53.9167976  34.8518867  66.5260773  54.9323158  34.6017303
  75.4785843  59.5211639  47.3600044  75.9625397  59.1557312  46.6194115
  76.1523895  59.9084282  47.9187927  42.3953667  31.6220188  77.9033813
  41.5178909  31.3149452  78.1313705  42.3690605  32.5648575  78.0664597
  10.8622055   9.2737656  10.7110529  11.5571194   9.4683228  10.0821867
  10.9413862   9.9586897  11.3750124  63.4195328   9.1670609  11.4633579
  62.6773300   8.8302422  10.9614420  63.4710884  10.0921764  11.2230759
  25.8066463  38.5477867  19.5917435  26.6759357  38.6990051  19.2206650
  25.9747753  38.2878494  20.4975014  42.9124908  48.2875786  80.9741821
  43.6705399  47.8083992  81.3088150  42.5207291  47.6969604  80.3308105
  80.3576050  50.3196259  65.0951996  80.5829239  49.9620743  64.2363510
  81.1460648  50.7843666  65.3755112  65.1525803  67.1652603   4.9625788
  65.6568985  67.5742874   5.6658459  64.3695068  67.7097321   4.8814659
  83.6988831  38.0854912  49.3579826  84.0351257  38.8516846  49.8228760
  82.7901230  38.0087128  49.6486473  38.0999908  23.4585209  24.6742992
  37.3294792  23.1712074  25.1641865  37.9227028  24.3756618  24.4653606
  65.5596161  43.7945175  61.7727661  66.3474960  44.3124199  61.6076813
  65.6115723  43.5688629  62.7015343  31.4943256  62.4789162  51.3922920
  31.6028233  63.3033867  50.9182549  31.1784267  61.8625412  50.7315941
  50.9872437  64.4709778  60.6510391  51.5185204  64.1265259  59.9331741
  50.4705467  63.7217407  60.9475174  57.0172195  45.3487244  24.1973057
  57.3577614  44.4957466  24.4669209  56.8083534  45.2408218  23.2694225
  41.7888374  58.7902260  17.7385311  41.7699547  59.6270027  18.2029476
  41.7477722  58.1308746  18.4312077  37.1782722   9.6766405   7.7819009
  37.3597031  10.0031404   6.9005880  36.2375069   9.5000315   7.7829385
  10.9109859   5.4166842  67.2299728  10.8624411   5.2379556  68.1690826
  11.1695347   6.3366208  67.1742859  26.2647114  65.8465271  42.3876724
  25.3840618  65.4765549  42.4493713  26.3000774  66.4987030  43.0874214
  82.3687668  49.5839462  75.0688248  83.0606461  49.1856422  74.5407181
  81.5591125  49.2012672  74.7308197  38.6812744   4.0873070  19.0866070
  37.8048859   3.8003440  18.8300457  38.6556358   4.1092720  20.0432129
  49.2685585  68.1482086  84.5849228  49.7865524  68.9413681  84.4477386
  49.8992081  67.4329376  84.5018768  38.7832413  41.8957901   2.6465938
  39.3231812  42.0399590   1.8694741  39.2038498  42.4169083   3.3305192
  13.8217010  14.9046497  12.0941267  13.5144930  14.0817537  11.7137365
  13.0865068  15.2127752  12.6240129  63.8409996  41.3652992  13.1636639
  64.1103439  41.0915031  14.0404310  64.4116669  42.1057854  12.9581070
   7.8642120  32.2958565   5.7193270   8.2436218  32.3202820   4.8408723
   7.3974953  31.4609318   5.7555132  44.6437721  43.5044479   9.3142748
  43.8787003  43.9372520   8.9353628  45.2287292  43.3579636   8.5709047
  67.5700226  48.9595146   2.3077176  66.7777786  49.3247032   1.9137412
  67.6524506  48.0894203   1.9173647  84.8489990  18.5680923  56.6819496
  85.7440720  18.8795033  56.8164940  84.3187332  19.0993938  57.2758904
  67.5720673  68.8959808  25.9417000  67.5551224  68.3331757  26.7157764
  67.9992752  68.3654785  25.2691708   8.5737619  57.7634621   0.4253174
   7.7675891  57.2883224   0.2239272   9.0818129  57.1560402   0.9630506
  43.1150627  34.2785530  71.3801956  43.6564293  35.0270844  71.6309052
  43.5726700  33.5199394  71.7425842  43.3536644  38.2887917  74.8156357
  43.2192307  39.1665344  75.1730270  43.5777168  38.4360542  73.8967514
  43.3996582  44.1413116  54.8366737  42.7147408  43.7020416  55.3408241
  43.1767807  45.0707321  54.8889503  50.2518654  28.8994503   5.0201650
  51.1039391  29.3270168   4.9342136  50.0395432  28.9734097   5.9505854
  20.0094318  53.7893448  61.6021729  20.3846664  53.5175362  60.7645836
  19.8134747  52.9687767  62.0543861  69.9860840  20.0589104  31.2520504
  70.0374298  19.2754097  30.7045803  70.8626022  20.1474133  31.6263657
  49.3857613  13.9153767  79.9903564  50.0340042  13.5151281  79.4108582
  49.7439346  14.7805014  80.1891098   1.1001500  12.2598906  89.3574677
   1.0857599  13.1873283  89.1210709   0.5739214  11.8323126  88.6818237
   0.3178684  68.8790894  60.6729698   0.3515335  69.8338470  60.7324257
  -0.6128502  68.6673203  60.7447090  11.2798805   4.4869919   3.8784730
  11.2039576   3.8656046   3.1543560  11.6664686   5.2686553   3.4837775
  47.4054832  39.7734261   3.6883919  47.4485016  39.1077347   4.3748584
  46.6379547  40.2995529   3.9127245  60.3198929  24.5705376  84.2007751
  61.0036697  23.9140892  84.3340149  59.7963562  24.5369644  85.0014038
  75.3226318  62.4180603  12.7283611  75.4702759  63.0488358  13.4330311
  74.9708481  61.6445961  13.1690760   8.2704210  24.4664783   7.5775328
   7.8257737  23.6472759   7.7953134   7.9174099  25.1031647   8.1990204
  47.4867783  13.3739443   7.0426240  48.1407623  13.3989077   7.7411346
  47.8046608  14.0023594   6.3943357  70.9151306  67.7663956  48.5448952
  71.2332840  68.5586853  48.1121330  69.9863815  67.7254486  48.3168983
  77.6894455  27.4783669  79.7381897  78.5022812  27.7701454  80.1509857
  77.1263657  27.2259941  80.4699554  69.1652298  63.0070152  45.9713974
  69.4875641  63.3281174  45.1292419  68.6094284  62.2608948  45.7464066
  26.2255135  70.1153564  81.8925476  26.0014229  71.0432968  81.9627838
  26.8849087  69.9760818  82.5722809  54.0150337   3.0881488  87.3206558
  53.1754723   2.6316383  87.2662430  54.2740784   3.0045695  88.2383347
  26.9603043  32.3454247  74.3810425  26.0340500  32.1413116  74.5099792
  27.3304329  31.5487843  74.0007782  49.6844559  22.5996418   9.7632380
  49.9822464  23.4891644   9.5727110  49.4160843  22.6284542  10.6815948
  59.3482094  70.7261353   9.7928391  58.4462433  70.5614014  10.0677118
  59.8841629  70.3176270  10.4726200   0.3254675  34.4674911  52.7907715
  -0.2462258  34.5430336  52.0267754   0.7173495  33.5977821  52.7116127
  53.1186905  53.8804245  46.1485596  52.9362411  53.6319923  45.2423439
  52.6914902  54.7304268  46.2545357  29.1488533  69.7026215  42.5259056
  29.4459286  70.1659698  43.3090324  28.3336926  69.2781906  42.7935028
  54.0430145  34.8555412  37.6194305  53.1307220  34.6852455  37.8538437
  54.1653366  35.7884750  37.7952309  60.3286743   8.2150965  50.8581505
  59.7225990   8.7509623  51.3697662  59.8603477   7.3923039  50.7170372
  78.8418045  26.1806297  32.0617561  79.7475586  26.2729778  32.3572388
  78.5910645  25.2968636  32.3306770  21.8495712  39.5271492   2.6480541
  21.3151455  39.4918594   3.4413860  22.6373272  40.0031509   2.9109135
  37.4801216  63.5420380  49.7541351  38.2145691  63.2319679  49.2243423
  37.7487717  63.3743629  50.6574287  80.4946213  49.8955231  54.9366570
  80.3508453  50.6361694  54.3475876  81.3683090  49.5761414  54.7110329
  10.9284048  23.8611393  76.2247162  11.0836048  23.4234428  75.3877182
   9.9773474  23.8434467  76.3315277  33.7272835  35.4880180  78.0549316
  33.6695251  34.8084831  77.3832703  34.0802574  35.0372047  78.8220139
  57.0735817  58.7817612  27.2710056  57.2996979  59.2166481  28.0931835
  57.8038292  58.9819527  26.6854343  54.9356384  12.2265491  60.8839455
  54.5005989  11.8932762  60.0991554  55.8673096  12.2146091  60.6646843
  78.5481491  36.5279312   0.5607737  78.4196014  36.7686920   1.4782379
  77.9610596  35.7844467   0.4237320  52.3811913  53.2518311  38.0727043
  53.2210960  53.6110916  37.7868347  52.6029854  52.4073982  38.4651031
   0.6641743  39.7735367  38.9614983   0.9797737  38.9777145  38.5333672
   1.2333480  40.4669418  38.6276398  79.6589584  54.4105110  31.6309261
  79.7402191  55.3370552  31.8570766  78.8093109  54.3439522  31.1951542
  59.2282867  37.4663429  65.8353653  59.1701393  38.2033920  65.2274094
  59.8047066  36.8398399  65.3978043  78.8928986  59.5293427   3.8562312
  79.7834854  59.8141251   4.0611401  79.0058060  58.8483009   3.1931601
  45.1037674   7.4691300  64.0252914  45.0417519   7.4795661  63.0701637
  45.0932045   8.3928261  64.2761002  46.9539070  26.9454517  85.9849854
  46.1379395  27.3424187  85.6802750  46.8199158  26.0046177  85.8704834
  29.3012295   3.3931477   0.4437071  29.2273369   3.3869088  -0.5106161
  29.5648823   4.2880988   0.6576754  20.9194336  56.5809898  49.1804619
  20.7527695  57.4752274  48.8824768  21.3134136  56.6865959  50.0464058
  55.9227257  45.7471085  84.7663422  55.0909653  45.5081711  84.3572998
  55.7425117  45.7250366  85.7061691  14.8813457  48.2717857  61.2120476
  14.3380156  48.9402771  61.6293526  14.6239586  48.2949791  60.2903938
  57.3658218  29.1316357  69.2697220  57.2070122  29.8747158  69.8518219
  56.5057182  28.7266407  69.1582108  84.8326416  16.3833389  49.8859138
  85.3489914  15.5851164  49.7742958  83.9718094  16.0742416  50.1681480
  34.0625687  52.1503944  41.1043930  33.8773193  51.3326492  40.6426468
  35.0025711  52.2855034  40.9845009  86.1626282  59.9365349  60.0051804
  85.5732880  59.9924393  59.2529945  85.6312408  60.2238655  60.7476730
  69.2882233  18.3210258  74.9320297  68.3470154  18.3840961  75.0944595
  69.5938644  17.6566334  75.5496063  41.2025375  63.5442429  29.4044495
  41.4665184  62.6619835  29.6655312  40.3838272  63.4172668  28.9250546
  68.2735367  36.0894089  62.2476425  68.7441406  35.9571266  61.4246788
  68.8018723  35.6321259  62.9018478  36.5153465  57.9582329  40.4722252
  36.3889389  57.8986626  39.5252838  35.8376770  57.3913078  40.8404579
  27.4111557  38.2188148  83.9238434  26.5658226  38.6671143  83.8979263
  28.0404396  38.9065819  84.1411285  11.2117233  44.1773834   4.3385077
  12.0031910  43.6623611   4.1817951  10.7027903  44.0855141   3.5330398
  49.7022018  64.2562714  36.3728371  49.8197136  63.7570305  37.1810341
  50.1745186  63.7529945  35.7096138  62.6499863  63.3224754  43.0233307
  62.0972404  62.7689743  43.5750046  63.0402870  63.9516068  43.6300354
  45.9771843  48.5354347  46.4914093  46.6866760  49.1359520  46.2628593
  45.1858597  49.0722733  46.4485512  53.5976677  56.7091370   7.4160824
  54.1127586  55.9268608   7.2187138  54.1950111  57.4379387   7.2479758
  63.7506142  26.3478203  10.7673607  64.4413528  25.9555511  11.3014374
  63.1446838  25.6276665  10.5928221   8.2152443  25.3823242  33.4535408
   8.8158035  24.6376286  33.4220734   8.3129082  25.7315102  34.3394089
  20.5458393  46.8984070  54.5279541  21.0998516  47.5853081  54.8987274
  20.0799122  46.5341759  55.2806015   4.4292264  22.0986481  20.6721916
   4.8942199  21.7038193  21.4098377   5.0719538  22.6817913  20.2683640
  61.6603470  53.3481102  64.9670715  61.1632614  52.6800346  65.4391022
  61.2851791  54.1781807  65.2611160  78.4666672  70.9075241  38.9337540
  78.2266083  71.7665024  38.5862465  79.0248566  70.5231552  38.2577934
   3.0255501   9.5574293  71.6786880   3.1131148   9.3458815  70.7492752
   2.0811722   9.6180573  71.8225861  47.4185181  54.7150345  85.7262421
  46.4847565  54.8804092  85.5959625  47.7876434  54.7171822  84.8430786
  24.5955296  17.1247330  78.0924149  25.4443226  17.5218124  77.8971939
  24.4387264  17.3351116  79.0129471  26.2137012  11.6343679  28.8713627
  27.0025349  11.9264650  29.3281460  25.6100807  11.3851938  29.5712090
  28.9693394  30.5321026  16.8053837  28.1443672  30.0763016  16.6383553
  28.7379112  31.4607201  16.7869263  78.7121735  66.5319290  67.7972260
  79.4682617  66.0046844  67.5392151  78.9618835  66.9128723  68.6391068
  59.9555092  43.7966728  13.7119770  60.2616119  42.9573898  14.0556841
  59.6130180  44.2583580  14.4773407   8.3489857   4.7999992  44.9954185
   8.2436771   3.8688452  45.1905975   9.2955027   4.9246364  44.9261093
  80.3922958  19.1288872  65.2008133  79.9374924  19.8014450  65.7078094
  79.7453766  18.8335266  64.5601120  62.3512650  41.5340767   8.9066467
  62.7431068  41.7042656   8.0500679  62.4808807  40.5961723   9.0472422
  46.9853477  58.9527359   5.8463173  46.5552483  59.7612610   5.5678735
  46.5470924  58.2639503   5.3465805  79.2806473  67.2698822  34.5292282
  79.9927750  66.6830902  34.7837524  79.4897308  67.5244980  33.6305122
  73.0869827  49.2603149  34.9049072  73.7298279  49.8264961  34.4778023
  73.0807648  49.5505219  35.8170319  79.1972427  12.9960632  44.7554436
  79.5145721  12.2729130  45.2963562  79.0478134  13.7106218  45.3745613
  52.0008698  69.9654083  48.1889496  51.1769142  69.5791931  47.8920135
  52.5729218  69.2149811  48.3497124  52.4171410  38.0641556  64.0410080
  53.1251144  38.6328430  63.7383499  52.0975914  38.4839020  64.8397141
  45.1688995  54.1685295   4.0363131  44.4180183  54.5885849   3.6168349
  45.8484154  54.1642036   3.3621662  82.1801224  48.0836105  16.0886059
  82.7104187  47.4883919  15.5587587  82.3794174  48.9537926  15.7432137
   1.2554051  38.6096191  64.8462143   0.3511758  38.7396927  65.1320190
   1.6926816  39.4360046  65.0514145   4.3870945  14.0894938  15.4966412
   4.5406365  13.5749550  14.7042351   5.0360732  13.7662582  16.1216030
  63.6195145  35.6233177  44.5175171  63.6131630  34.8576775  45.0919609
  64.2793121  35.4198723  43.8545570  14.6590624  27.0034466  68.2560196
  15.5135231  26.7355442  68.5941849  14.0601225  26.3156166  68.5465240
  12.6380291  56.9469795  39.6360130  12.6169224  56.4573555  38.8137856
  13.0659237  56.3561172  40.2557068  73.3248978  41.2345505  39.6988792
  73.1597672  41.9671974  40.2923393  73.4687576  41.6448135  38.8461075
  75.8845596  17.7594624  61.0050430  75.2740402  18.4839439  61.1414871
  76.1704483  17.8550339  60.0965462  61.6629868  -0.0065383   3.2889662
  60.7987900   0.3210215   3.5381680  61.6501198  -0.0122500   2.3318696
  80.2761307   4.6536794  78.1244354  79.7845840   5.3339648  77.6641998
  80.8153610   4.2472897  77.4459686  17.1105442  35.9057121  21.6015072
  16.7407360  35.8700409  20.7193508  17.0876579  36.8341064  21.8334465
  42.0240860  37.3774490  31.1118984  41.8672791  37.9648972  31.8511887
  42.5237083  37.9048805  30.4886608  19.3940582  67.8034744  42.9942894
  18.9157639  68.0708618  42.2094536  18.7110043  67.5799255  43.6265068
  26.2572689   2.0684452  32.8704453  26.6182899   2.3125343  33.7226868
  25.3374481   2.3293180  32.9163704  17.7440777  37.1041222  66.7605667
  18.4046116  36.4237633  66.6300354  18.1496162  37.9005661  66.4178619
  21.5985794  44.2099571   4.0140038  21.1146030  43.9392242   3.2338102
  20.9284916  44.5560684   4.6034279  45.0619583  26.0587921  19.1177311
  45.7662621  26.7068844  19.1048508  45.4754753  25.2622738  19.4505863
  26.7593403  28.0767803  75.1328125  26.9811783  28.2681732  76.0440674
  26.9103565  27.1359348  75.0420685  72.7037048   6.3659530  42.4448166
  73.4273911   5.7799969  42.6665573  71.9231491   5.8148904  42.5021744
  50.4446678  53.5515251  68.6056519  50.8794479  52.8162003  69.0375061
  50.2590294  54.1690178  69.3130951  10.1404371   1.2755047  26.9788380
  11.0225239   1.0843115  27.2975864   9.7465038   0.4152740  26.8337460
  26.7223797  57.0083199  51.8089104  26.7660789  57.7122574  51.1617661
  26.2740936  57.3997040  52.5586357   8.1831875  18.5611362  27.9817009
   7.3943815  18.1615391  28.3482227   8.7852259  17.8282166  27.8528080
  30.6053467  55.1061554  72.0165482  30.1598301  54.2892876  72.2412186
  31.1284676  54.8892555  71.2448425  67.5660706  20.9275608  51.6853104
  67.0353775  21.6392822  51.3274765  67.0353088  20.1423321  51.5513611
  35.6581268   1.5709548  79.9274292  35.1528130   1.1545182  80.6256180
  35.4729500   1.0434871  79.1504364  37.1827927  71.3991470  32.0873451
  36.6813698  70.8612366  32.7000923  36.5256844  71.9427414  31.6526623
  79.4568634  71.0291824  32.3526917  79.9634628  71.6940842  31.8863354
  78.9785995  70.5662766  31.6647835  28.4612465  36.1878242  18.2253342
  28.1866322  36.9861603  18.6764164  29.2040653  36.4604988  17.6867237
  55.1743546  50.4502449   8.2876558  55.1145477  50.9019890   9.1294298
  54.2770653  50.4449921   7.9543700  59.6773796  59.4302025  34.2655563
  60.6154823  59.6152840  34.2214813  59.6035767  58.5075226  34.0217400
  56.2206078  45.6197357  51.5568199  56.9855690  45.5707359  50.9835243
  56.5072403  46.1602402  52.2929764  14.7961798  55.1859360  84.0708160
  14.4244080  55.4386559  84.9158936  15.1911001  54.3285904  84.2296524
  27.5187702  29.8502426  73.2645340  28.4737320  29.8111897  73.3170166
  27.2176723  29.1749210  73.8724060  38.9821472  21.3688374  75.3804779
  39.1010284  22.1876659  74.8992081  39.8288498  20.9272537  75.3146820
  47.9986877  71.4012680  28.4758244  48.3820572  70.7724533  27.8643913
  47.1318779  71.0460815  28.6725807  11.9680901  19.2374916  80.2762604
  11.7610922  18.6704941  81.0191574  12.8613930  19.5370140  80.4451675
  49.8110008  60.3852348  74.1204224  50.4779549  59.6986465  74.1220398
  49.0223656  59.9522896  73.7935486  46.7302284  22.2558517  77.2234192
  46.2482872  23.0828724  77.2210693  47.4799957  22.4171886  77.7961731
  40.2469330  46.0860443   1.8880702  40.2200623  46.9417648   1.4599899
  39.6542854  45.5407219   1.3707461  59.0558090  53.5224609  56.7866440
  59.8922157  53.2672653  56.3973732  58.6124306  54.0179749  56.0980835
  38.4890747  43.8555603  77.7850571  39.0003281  44.4316521  77.2167511
  39.1395798  43.2874718  78.1977921  63.6222992  25.5731411  67.0569916
  64.0598755  24.7677803  67.3329544  64.0176926  26.2576084  67.5968094
  35.2584038  51.4023743  22.7251549  36.1572571  51.7289276  22.7658043
  35.1318970  51.1627998  21.8070946   0.9373156  21.6486511  67.4422226
   1.6112217  22.2333031  67.7890167   0.1125261  22.0252151  67.7490692
   1.8947849   1.1191611  36.8923607   2.8015308   1.1082745  36.5858879
   1.4666547   0.4197943  36.3985748  55.3104477  68.7112274  58.7753983
  55.1777992  69.6424179  58.5978508  56.2194252  68.5466843  58.5245628
   9.9376488  45.1929703  10.6265841  10.2877550  44.7486610  11.3987541
  10.2961206  44.7040749   9.8858347  54.6288376  35.2985497  79.1270447
  55.2508698  35.9839706  78.8830948  54.5085907  35.4088898  80.0702286
  61.8115349  43.2282600  78.5536118  61.4673233  42.5336037  79.1150360
  62.0483704  42.7832870  77.7398911   1.1084110   5.3685055  71.0389404
   0.3893521   4.9953713  70.5290756   0.6869732   5.7290654  71.8190765
  50.5011597  20.8459721  77.6774216  50.8867264  21.2454376  76.8976746
  51.2358742  20.4146786  78.1137848  33.4856491   6.8065023  16.3942623
  33.3808937   7.5193996  15.7641544  34.3305473   6.4143019  16.1739140
  75.8630142  12.0889549  71.1731491  75.0665970  12.4025812  70.7446823
  76.3846283  11.7134638  70.4638062  49.6917610  39.3206253  69.8804474
  49.2507782  38.6652565  70.4210510  49.7576714  40.0912628  70.4443665
  75.8923416  36.1720047  48.5329857  74.9943924  36.0972633  48.2099800
  76.1977921  35.2675476  48.6029167  17.1471272  67.4131393  74.7750015
  17.3015594  67.5348358  75.7117844  17.5213146  66.5539093  74.5802002
  20.7666073  55.7516365  84.5499268  20.0064297  55.7704773  83.9685440
  20.7654724  56.6099854  84.9735641  28.5214367  69.3663177  33.5311203
  29.4491634  69.3991318  33.7645264  28.1329727  70.1123352  33.9880524
  64.0868988  41.7936745  74.2498016  64.2959900  40.9160347  73.9300156
  64.4742508  42.3830070  73.6025925  40.0198784   4.0026960  15.6810570
  40.2043266   3.2289526  16.2135334  40.8392868   4.1752052  15.2173347
  22.1659470  60.4996643  28.8502102  23.0252342  60.6196136  29.2545242
  21.5595379  60.9495850  29.4384899  25.1639843  27.4466686  13.0249109
  25.1268978  28.1946545  12.4287777  25.9903812  27.0124817  12.8132896
  45.9889526  30.5619488  16.8780556  46.2915878  30.5857563  15.9702692
  45.7577095  31.4691753  17.0773067  15.6066141  25.6561718  63.5329170
  14.6993322  25.3886147  63.6794930  15.6477919  25.8617649  62.5989647
  33.5667343  27.5698013  22.3785572  34.3610420  27.3435364  21.8947048
  32.8514061  27.3405685  21.7852707  73.1339874  25.8069515  36.3991737
  73.1485901  26.2491798  35.5503769  73.4350204  24.9179592  36.2112846
  47.3136978  69.6316376  20.1931839  46.4240837  69.6377335  19.8399372
  47.2102547  69.3357315  21.0975990  40.0658226  69.4412842  84.4164505
  40.0259438  70.1851578  85.0175247  39.3106308  68.9023361  84.6519165
  72.0401230  37.6906586  57.5623779  72.3576813  38.4027863  58.1175842
  72.7965317  37.4476471  57.0284996   0.3850138  36.3894882  83.4268112
   0.0109757  36.8541489  82.6781998   1.1290406  35.9093666  83.0633011
  62.8215752  10.3124580  23.6768665  62.8855782  10.7487411  22.8272820
  62.7854996  11.0281134  24.3115063  22.1942940  36.8040619  11.3881731
  22.5362358  37.6969147  11.3421841  22.7579498  36.3011398  10.8002987
   4.3595467  30.1206493  15.9264240   4.5027738  30.6261196  15.1262884
   3.6228967  30.5555859  16.3558521  52.4754601  29.7048149  81.3911514
  51.7492561  29.1334133  81.1414413  53.2064934  29.1076145  81.5498199
  72.6520386  48.3494720  17.1648483  72.7479401  49.2947578  17.0487919
  73.5369568  48.0411224  17.3599720  55.8114624  20.8932610  32.8553505
  55.1652985  21.4842262  33.2419586  55.3112488  20.3657608  32.2326431
  23.4970188  54.4901772  67.5581741  23.7861691  53.8325195  68.1907196
  23.2074318  55.2278290  68.0950546  15.0139494  51.1229973  21.5825558
  14.6050663  51.9875069  21.5417709  14.3138781  50.5406075  21.8774414
  76.2035065  38.4121857  44.9286919  75.7602768  39.2057152  44.6285515
  75.6282425  37.6981010  44.6541290   4.9319711  31.1390953  38.1578407
   4.9383655  31.5926056  39.0007629   4.5038896  31.7515373  37.5595970
  49.8532257  42.6146660   0.2107997  50.5401649  42.1783676   0.7147778
  49.6951942  42.0326729  -0.5325310  59.1209755  13.1443853  83.9178238
  58.4107819  12.8950710  83.3264694  59.4434776  12.3140717  84.2682571
  36.6733360  17.3319130  37.7465820  36.5211220  16.8636608  38.5674362
  36.4723778  18.2451839  37.9509926  67.5111618  29.4004269  32.3744011
  66.7303162  29.7732372  31.9651108  68.2365265  29.9130669  32.0176353
  15.0866041  53.2810173  33.6078911  15.6255112  53.3625412  32.8210182
  15.0505981  52.3395729  33.7770500  62.0770950  19.4328213  77.3707809
  62.9432373  19.2408218  77.7301788  62.1798172  20.2804718  76.9381485
  64.2477264  34.6260338  70.5151672  63.3830605  34.2337914  70.6365433
  64.0666275  35.5184860  70.2202606  14.5149536  45.1963577  26.9024658
  14.2324905  46.1041756  26.7914867  15.1968737  45.0752220  26.2417507
   8.6867456  24.8443966  69.4179077   9.5673323  25.1804066  69.5849304
   8.3288403  25.4311962  68.7517242  20.6170406  42.9614868  79.4955521
  20.4644203  42.0397530  79.7037506  19.7520809  43.3017960  79.2669296
  39.0922813  46.9515457  40.7358284  39.4640579  46.1568642  40.3530731
  38.1458702  46.8111763  40.7069740  67.6724091  53.2739143  37.6427269
  68.4358749  53.8039360  37.4137535  67.0102158  53.9110069  37.9107628
   8.4384108  71.2317886  39.2513885   8.5517464  70.8038940  38.4026871
   9.3273306  71.4543228  39.5280304  39.7734261  37.0825348  85.9991684
  39.8890228  36.7712784  86.8969345  39.1711845  37.8223648  86.0778427
  65.5453186  11.4612284  83.1274567  65.4527283  10.9030657  83.8995361
  64.7633057  11.2803288  82.6059570  85.5089951  35.1966133  50.6176414
  85.9080048  35.9268761  50.1446190  85.3593521  34.5301094  49.9471130
   6.0104532   1.5791208  42.0103531   6.4384370   0.7310772  42.1281815
   6.4770541   2.1674247  42.6039963  20.3339691  50.2846375   4.4900098
  20.4074230  49.3377647   4.3705721  20.0373001  50.3897209   5.3939886
  54.5185661  36.6458206  34.8149910  53.7733421  37.2370453  34.7085495
  54.3466606  36.1896820  35.6387749   2.8660939  69.8253632  17.2184715
   3.5794077  69.9157944  16.5866184   3.0509131  69.0030899  17.6722736
  84.3227768  13.3279514  23.4796009  83.6912155  12.6818562  23.1634903
  84.0010223  13.5728188  24.3472099  22.7129498  33.0474434  11.4058075
  22.4469948  33.7320290  12.0196800  23.3586922  32.5310059  11.8880320
  77.7677155  21.1166134  30.8128872  77.2784729  21.9165859  30.6207485
  78.1162796  20.8396778  29.9655132   4.5358195  70.2543106  52.6605225
   3.7547677  70.7112732  52.9725723   5.2557521  70.8578720  52.8439598
  22.4967327  48.9802895  18.5813007  23.2794456  48.4518967  18.7374840
  21.8382778  48.6131287  19.1711006   5.7425656   2.1765921  68.8758774
   6.6873026   2.0350673  68.8152618   5.6279626   3.1093600  68.6940994
  70.7306137  19.9249249  79.0959930  71.4752731  20.3781853  78.7006836
  70.7057648  19.0755806  78.6552811  33.5128555  71.1008301  85.4408264
  34.2526321  70.7647095  84.9348755  33.1156578  71.7619858  84.8739624
  34.9124451  29.1391621  80.0071106  34.9357872  29.7459755  79.2671967
  34.0235214  29.2177200  80.3533401  10.1044788  18.3333073  23.9425545
  10.0650396  17.4508514  24.3112679   9.3703346  18.7951202  24.3475151
  67.0924759  61.1117973  57.1544075  68.0227203  60.9641113  57.3249016
  67.0404434  61.2435532  56.2077484  27.7410965   1.1125751  42.1480446
  27.0199299   1.7365589  42.0656090  28.4628563   1.6270711  42.5094147
  32.5786934  69.2702866  44.3767662  32.2850533  69.4920502  43.4931221
  32.1782265  69.9357147  44.9362907  23.1370316  27.3659859  28.9037628
  23.2026463  26.4110622  28.8968773  24.0239601  27.6684208  28.7085171
  33.1586113  22.4114857  13.8828487  33.9145432  22.2976151  14.4589014
  33.3451881  21.8514614  13.1293278   5.4851274   3.4493163  54.2660027
   5.6033916   4.3559303  53.9826355   6.2525592   3.2656775  54.8078117
  81.7922897  55.1608047  83.8512268  81.9887390  54.2267418  83.7793427
  81.2337799  55.2291946  84.6255798  43.6869316  11.3119907   6.2457528
  43.7826118  11.3906994   5.2966046  43.5246773  12.2065763   6.5451245
  23.9108639  48.4671326  51.1342354  24.7987595  48.1157494  51.0678749
  23.3675537  47.8357811  50.6625977  56.5452309  17.6167336   4.5231543
  57.0724602  16.8308697   4.6669602  57.0960121  18.3349724   4.8346152
  23.7720127  59.6517792  12.5090561  24.2301159  59.4063339  11.7052345
  24.4616280  59.9761238  13.0882483  70.4135818   6.9910436  72.4717712
  70.9665756   6.8134046  73.2326050  69.8487167   7.7122149  72.7493820
  71.3391418   1.6227667  43.8638039  70.7698135   1.3969038  43.1282196
  72.1334000   1.1086615  43.7185974  69.8316650  13.0057936  11.5150127
  68.9566345  12.8362436  11.1660023  70.1253357  12.1576529  11.8476467
  14.2768116  16.2054138  76.0430984  14.4476223  15.7008076  75.2478409
  14.4180059  17.1159801  75.7839355  12.3026505  20.2014713  26.4256554
  13.2442226  20.1264114  26.5807018  12.2326031  20.7154732  25.6212139
  83.0968323  50.3106766  15.0995216  83.4823380  50.6662254  15.9002733
  83.8171387  50.3045387  14.4691629  39.7936592  31.0977383  11.0763063
  40.2963982  31.6040287  10.4382162  38.9069443  31.4537277  11.0194321
  59.0568619   0.9715691  84.0646820  58.9448624   1.7569909  84.6002197
  58.6013298   0.2837438  84.5500870  73.8997345   2.3843784  16.3046646
  74.7818298   2.6164773  16.5949612  73.8300934   2.7593534  15.4267254
  50.5734863  34.4896507   8.2408876  50.2600746  34.0956345   9.0549870
  51.3910637  34.0293846   8.0512629   1.9201038  63.1923294  61.7040787
   2.7824373  63.6016579  61.7752190   2.1047468  62.2862129  61.4569016
  84.5686417  49.9585228   2.4575090  85.3392639  49.9844055   1.8903280
  84.7542267  49.2571259   3.0818706  68.4094620  15.5075798  60.1251030
  67.8685913  15.9209356  60.7980270  69.0487213  16.1786995  59.8859711
  20.8793583  55.8876877  18.0821571  20.7303600  56.8315048  18.1390457
  21.4577599  55.7816162  17.3268871  10.5031481  22.4520168  16.1990051
  10.9471521  23.2881985  16.3400440  10.8637447  21.8730888  16.8706055
  84.9285583  17.4213009  70.7240601  84.6583557  17.1076565  69.8610153
  84.3233566  18.1367683  70.9191742  40.5706100   9.6362648   2.8429937
  40.0189896  10.4069538   2.9771092  40.0706520   9.0858345   2.2402506
  78.3241806  40.7252388  12.3107891  78.7972717  41.4680634  12.6857910
  78.4919586  40.7845535  11.3702765  47.4082527  68.2822952  72.7243500
  47.3395767  69.0413437  73.3034592  47.6752701  68.6478653  71.8809662
  75.3411713  39.4386673  16.7596912  74.9168472  38.9977455  16.0236378
  74.7471390  40.1547318  16.9846668  70.0474243   4.0859375  56.1822395
  70.8525696   4.6021080  56.1429214  70.3443146   3.1914120  56.3493156
  51.0304108  41.9117355  66.9739456  51.6709976  42.5343742  66.6301422
  50.9055405  42.1753922  67.8856049   9.5104647  34.1944504  27.6425667
   9.7380066  35.1000252  27.4318848   9.7406130  34.0984573  28.5667152
  14.8860435   3.5201595  35.5728111  15.3973570   3.3602891  34.7795715
  15.4757080   4.0143018  36.1423302  69.8964996  41.3051300  35.2856522
  69.4896851  42.1117897  34.9693718  70.3215942  40.9324455  34.5132294
  28.6085529  34.2425308  27.3176212  27.8713036  34.3697395  27.9147072
  29.3726082  34.5343742  27.8148937  34.5112343  65.0065918  29.8890781
  34.0175209  65.0348969  29.0695190  33.8408699  64.9941483  30.5722237
  78.2944260   4.2992630   5.2322946  78.2469940   5.1906548   5.5778432
  77.7445374   3.7840095   5.8225255  42.2624397  46.2501831  87.9867935
  42.4072418  47.1651993  88.2276382  41.3105469  46.1639328  87.9348755
  24.4195557  65.9741516  25.0898476  23.8467426  66.1635208  25.8329849
  24.7562199  65.0953522  25.2647915  70.2365494  19.3316174  81.9006424
  70.2978821  19.3362865  80.9454269  70.0538940  18.4190521  82.1244659
  71.0895004  20.2105389  45.6373405  71.7261810  20.7001247  46.1580849
  70.2898026  20.7346840  45.6820335  44.8536072   8.5156307   3.1965206
  45.7533188   8.6652660   2.9060667  44.5490265   9.3758287   3.4855177
  38.6030197  71.4772568  18.5410709  39.3942719  70.9401398  18.5004082
  38.8742638  72.3294983  18.1999817  37.3262215  17.7100658  12.5039520
  37.3511124  17.9670982  13.4256611  36.5475655  17.1582718  12.4301214
  30.6060581  64.6846771  29.8112335  30.6040649  65.4783859  29.2762032
  29.8410072  64.1928101  29.5129108   9.4532309  70.5311356   5.3728986
   8.9076958  70.7946854   6.1139545   9.6674004  71.3518600   4.9293079
  83.8930969  41.0323944  53.7929230  83.5662460  41.7917404  54.2754135
  84.7365875  40.8348618  54.2000313  76.2779083   8.3373680  34.0173912
  75.7803040   8.8026276  34.6898155  77.1636734   8.6937952  34.0853004
  36.8670235  64.4898300  74.7196274  37.4159927  64.4748993  75.5036240
  36.0432549  64.0885239  74.9963837   9.7634830  43.9359322  85.7176895
   8.9321089  43.4940186  85.5451736   9.7771740  44.6691284  85.1024933
  64.6014023  16.4325943  26.3306961  63.6492996  16.3879452  26.4187012
  64.9179688  15.6286497  26.7426300  75.6023102   7.1733255  50.7598572
  76.2689590   7.2185717  51.4452553  74.8746796   7.6948566  51.0986595
  54.6377068  44.9285965  34.4918709  54.6953087  45.2704544  33.5996590
  53.7279129  45.0798454  34.7480469  36.5157928  31.2007504  86.2539673
  36.3436890  31.8244228  85.5485306  37.4657059  31.2256126  86.3691940
  75.2703781  16.3372498  12.6216669  75.2951050  17.1036777  13.1945620
  75.7108994  16.6223240  11.8211002  79.3296661  26.1438694  49.7982407
  79.5088959  26.7961998  49.1210594  78.5149384  26.4386444  50.2051163
  39.6467590  54.3719940  26.8780785  39.9905930  53.5032043  27.0859528
  39.0214577  54.2189140  26.1696987  38.6112976   2.4143202  34.5640678
  38.0407639   1.8344258  35.0684967  38.1273804   2.5824242  33.7554893
  53.9587746   1.4565027   0.8170316  53.3782463   2.1686225   1.0855516
  53.7511292   0.7393972   1.4160931  72.3294296  16.6933670  10.0209332
  72.7280884  16.4226837   9.1938705  72.3599701  15.9094810  10.5694046
  64.6490402  66.3226624  68.4748611  65.1535263  65.7112961  67.9382477
  63.7602615  66.2731628  68.1229324  61.7152214  40.5459557  31.5633583
  61.3923721  39.8287430  32.1088905  62.1051445  40.1126137  30.8041439
  29.8277683  57.2020226  44.8611221  29.9745789  56.2565155  44.8347549
  29.5050373  57.4187813  43.9864235  69.6865005  63.3709488  87.4488373
  69.0873260  62.7218628  87.0801697  69.3364563  63.5518150  88.3211823
  16.3625832  48.1339569  73.5658646  16.0839176  47.2346268  73.7384338
  15.7569380  48.4476776  72.8942947  43.6182137  50.7459755  63.0958061
  42.7211952  50.6291771  63.4087791  44.0277443  51.3134880  63.7488327
  65.4742279   7.9752412  26.7275105  66.3575211   8.0201025  27.0935917
  65.5425873   8.4186668  25.8819733  10.9463367  41.6066551  86.3981400
  11.6524544  41.4637642  85.7678986  10.5108185  42.4027290  86.0934753
  12.1465578  70.2017517  20.6528549  12.0648317  69.2520676  20.5653820
  11.3183041  70.5452881  20.3178787  43.3685493   1.2756639  51.9826698
  43.2058754   1.3505279  51.0423698  44.3122025   1.4077640  52.0737495
  41.9435234  16.6232243  23.4489136  41.4733009  16.4751682  22.6284237
  41.7885208  17.5459957  23.6506519  15.3166161  37.1273766  65.1108551
  14.7787619  36.4483986  65.5181961  16.0099773  37.2981987  65.7482681
   3.3088455  33.8582954  83.6769409   2.4955416  33.8886604  84.1807785
   3.2484236  34.6036682  83.0794525  80.8584366  39.1911240  19.7250175
  81.3020859  39.7440109  19.0818043  80.6050644  39.7934723  20.4244499
   3.0717885  13.2946301  80.1177673   2.1836178  13.6283178  80.2444077
   3.5866261  13.7169542  80.8053894  20.2821312  53.3694305  51.3551102
  21.1225300  52.9734268  51.1245766  19.6345043  52.6970177  51.1437454
  55.9662209  69.1481476  30.2078953  56.6907654  68.6155930  29.8797855
  55.2406998  68.5314407  30.3054714  67.2389908  15.7297096  73.7546463
  67.5261536  15.4037304  74.6075897  66.5827484  15.0960875  73.4646378
  60.1111488  56.8152313  58.4444046  60.1372414  56.7409477  57.4904480
  60.6523132  56.0897865  58.7560196  63.2213974  51.5411415  24.8821430
  62.2697678  51.5446396  24.7790813  63.4050903  52.2997437  25.4362297
  46.5288467   8.3410845  12.5172272  47.2064896   8.7356443  11.9682674
  45.7691193   8.9130487  12.4081335  62.2551956  71.9705963  28.3034210
  63.0387306  71.5004501  28.0183353  61.5268898  71.4309998  27.9957943
  72.5803833   8.9439754  43.0166855  71.6648483   9.1761789  42.8613701
  72.6538620   8.0405607  42.7089882  79.1696472  22.4513054  49.1824646
  79.4030457  21.6889782  49.7121964  79.0569687  22.1029739  48.2980461
  71.7217407  58.2754173  69.5555191  71.9170074  57.6851959  70.2833481
  71.9815598  57.7867508  68.7745438  61.7757149  33.7519417  69.4176559
  60.8488693  33.9344063  69.2630692  61.7760963  33.0249329  70.0403061
   5.1399326  18.8832989   0.3233911   4.5002780  18.1867905   0.1752414
   5.9675889  18.4228706   0.4620329  45.1495514   0.0064769  56.7139664
  45.8237877   0.0398625  57.3925896  45.1677017   0.8765142  56.3153000
  17.8624344   0.8468738  75.4278030  17.7797928  -0.1013550  75.5291138
  17.7538147   1.1927691  76.3136902  20.1627655  45.8910370   9.6177368
  20.7008629  46.2506676   8.9125071  20.7910652  45.6443596  10.2964296
  86.7788239   4.9760332  22.8417339  87.0576477   4.6037621  23.6783333
  86.2364197   4.2943215  22.4451218  47.1635818  70.5063400  39.2415199
  47.7284851  71.1945267  39.5929756  47.7672882  69.8873825  38.8308334
  23.0922909  52.2621613  10.1999683  23.0154533  53.1937828  10.4059086
  23.4310951  51.8664970  11.0030212  33.7086639  27.9759178  17.6184502
  34.4974442  28.4863548  17.8015194  33.1047211  28.6028252  17.2203655
  80.3853683  56.3089333  33.7624969  80.0465927  55.7836609  34.4874458
  80.0262375  57.1835022  33.9121056  53.9603157  24.1716499  19.8065624
  53.0279503  24.2422333  20.0113621  54.2303543  25.0681419  19.6075268
  32.1672745  43.7426338   8.9321470  31.8426323  43.2487602   8.1791983
  31.3782387  44.0845413   9.3525677  56.7104492  47.3347168   0.2769637
  55.8157539  47.5821800   0.5104380  57.1168175  48.1513252  -0.0132883
  37.2090683  60.6915894  10.8502798  36.3582039  61.1278801  10.8940201
  37.8076172  61.3656807  10.5284557  85.6768036  39.4785652  47.3213921
  84.7442551  39.3581772  47.5005035  85.9165497  38.7244797  46.7827759
  26.7787991   7.6352530  28.8199844  27.5810146   7.7351947  29.3325233
  26.9353065   6.8615417  28.2785892  35.6418533  61.3492508  70.3264389
  35.8190498  60.8923111  71.1486588  35.7997055  60.6922379  69.6484604
  65.5301590  57.0923805  62.1804085  65.7569122  56.1648941  62.2480965
  64.5887985  57.0967712  62.0070839  23.6173363  20.6059303  14.9172201
  23.6727886  20.2683201  14.0232525  23.4907150  21.5486183  14.8098097
  73.5789871  62.3387756  60.7170143  72.6342697  62.2967796  60.8652802
  73.9432678  62.5948067  61.5643539  26.2367935  30.4081821   0.5226925
  26.4200001  30.0042763  -0.3255570  26.2550774  29.6799717   1.1436645
  81.0878983   6.6669822  27.0063591  80.3906326   7.2351394  27.3338451
  80.6321106   5.8882375  26.6869087  38.3061562  25.2357864  21.6431656
  39.1506157  25.0019779  22.0284634  38.5268707  25.8256111  20.9223175
  22.4246597   2.6521637  48.2717667  21.5938854   3.1112518  48.1481438
  22.9418259   3.2376170  48.8249550  53.8106270  15.6710968   9.1805630
  54.5166931  15.5491352   8.5458746  53.9289970  14.9598560   9.8101320
  58.5934181  51.3620262   4.8959942  59.0899696  51.8853874   5.5250912
  57.7037888  51.7122116   4.9424324  35.0104675   2.1220291   4.3709869
  35.9595833   2.1637936   4.2540665  34.6943741   1.6534370   3.5984988
  62.6362343  21.0448608  53.2820740  62.9808922  20.1830406  53.5159760
  62.3149185  21.4065456  54.1080093  59.0614853  33.9137230  12.7199287
  59.3223534  33.5554237  13.5683393  58.4046249  34.5769653  12.9317751
  20.2516785  17.6056767   0.8997415  20.6818237  17.1646080   1.6323159
  19.3525200  17.7434254   1.1976838  21.2767372   5.5976391  38.4305458
  20.8176384   4.8079805  38.1443634  20.5813408   6.1848679  38.7268867
  79.6414642  38.5583076  66.8697128  80.2302475  37.9823418  66.3820419
  79.6474380  38.2081757  67.7605591  48.5551949  25.5073147  32.9514656
  48.0088959  25.7918682  33.6841431  48.0810852  25.7976894  32.1722794
  46.9266472  63.9235992  84.3996964  46.2313232  64.1233521  85.0264816
  47.7130356  63.8275452  84.9369125   6.9126940  30.0958977  11.7557192
   6.4543667  29.4006081  12.2276726   6.8819537  30.8476009  12.3475199
   1.8788193  42.2313194  84.8035583   1.7875193  41.3612137  85.1918945
   1.2721118  42.7802162  85.3003998  29.7750454   3.0315406  33.3942490
  30.1424274   3.7217903  33.9463501  28.8522930   2.9897447  33.6452751
  86.4431610  33.8704948  12.4375763  86.0206223  33.3919754  13.1508160
  85.9539642  34.6909981  12.3768158  30.5667248   2.5987236  45.3375931
  31.0455379   3.3949831  45.1075058  31.0893497   2.1971049  46.0317116
   8.6848679  54.3330116  86.8017502   9.5646057  54.5028267  87.1385803
   8.1099730  54.8595467  87.3571625   9.5642157  31.6671371  20.8542843
  10.3132219  31.1552238  20.5490532   8.8139191  31.0831413  20.7436771
  76.4894180  15.1063614  67.1432800  75.7020721  14.6820068  67.4842224
  76.8587952  14.4696598  66.5313873  36.6793060  42.5147972  85.4024811
  37.1111374  42.6465416  84.5584412  37.3916626  42.5339127  86.0415497
  42.7523460  40.2871056  24.6007042  43.2892494  40.8186111  24.0129395
  41.9403038  40.7843361  24.6986141  15.2304831  55.1011314   4.3941121
  15.2673950  55.2381516   3.4474893  14.3804274  55.4558640   4.6544995
  73.5199966   0.4859336  58.4115791  72.8680267   1.1162304  58.1051712
  74.0271301   0.2667701  57.6299019  65.8108063  32.9527893  40.3198318
  65.2032013  32.5238037  39.7173157  66.6505966  32.9427223  39.8606186
  47.8505096  40.8434792  83.9819260  47.7752228  39.9530792  83.6387787
  47.0601540  41.2866707  83.6734543  12.9058828  21.3202686  12.4671946
  12.3399754  20.8033676  13.0406008  12.5155764  22.1942749  12.4700480
   9.3691320  41.9827194   7.2451758  10.0276890  41.3273849   7.0148129
   9.2102098  41.8446236   8.1789341  17.0809631  65.1193848  87.8160172
  17.6385307  65.4317093  87.1034164  16.3898373  65.7779694  87.8856277
  61.5837898  11.6721840  32.2363129  61.7382736  10.7328300  32.3362122
  62.4316940  12.0754843  32.4224205  55.3209038  59.4687843  21.6833496
  55.5309029  60.2219391  22.2355175  55.8050613  59.6239738  20.8723373
  75.2367706  41.9892464   5.1637645  75.3149719  41.6681480   6.0621033
  74.9118042  41.2375679   4.6681719  29.6974163  67.9132004  14.6696033
  29.2135868  68.6880569  14.3837004  29.8520565  68.0582962  15.6030197
  63.7041283  44.0203667  14.6440163  62.9915733  43.5127754  15.0324087
  63.3098717  44.8679619  14.4381495  12.4678755  31.6452866  14.8876314
  11.7247229  31.8043728  14.3056974  13.0864372  31.1453667  14.3550014
  63.9981308  66.8796082  37.7359695  63.8891640  67.4977493  37.0132942
  63.9809227  66.0181808  37.3189812  18.5167351  55.8129349  54.6681252
  18.9746532  54.9872971  54.5104408  18.2971230  56.1357193  53.7941628
  67.5092163  38.6933670  77.2108307  68.2964096  39.1063271  77.5658340
  66.9247055  39.4244690  77.0106812  84.0272751   7.4884810  20.7221260
  84.0375671   8.4241009  20.5202789  84.5528564   7.4094071  21.5182056
  79.3829193  29.4700031  34.2913666  79.8392639  29.8152504  33.5240402
  79.5174866  30.1330357  34.9684982  82.6545563   0.7575358  12.3794146
  83.5823059   0.6918020  12.6056585  82.2885590   1.3475326  13.0383387
  81.9917221  53.3938828  54.6743698  81.6277390  52.8268166  55.3542061
  82.2700119  52.7919807  53.9840775  43.0452881  66.2480087  77.5538406
  43.4863014  66.8483582  76.9527435  42.2303619  66.6946030  77.7833786
  29.2273216  33.5735359  75.3783722  29.3040390  34.5256195  75.4406891
  28.4327335  33.4304161  74.8641891  14.8379803  30.8545704  29.8797779
  14.5749226  30.3284779  29.1246223  15.4841042  31.4684505  29.5306244
  66.4344559  18.0884228   7.1958718  65.6868210  18.4882660   6.7515697
  66.3642273  18.3901234   8.1015635  66.2699890   1.0620278  20.7846127
  66.2360229   1.0529732  19.8280582  65.4269257   0.7001936  21.0576496
  16.2144890  28.5718880  87.2611160  16.8494415  27.8576031  87.2075958
  15.7557650  28.4231243  88.0879593  27.1554127  70.5054474  37.5497551
  26.5762577  71.0766602  37.0452423  27.4909191  71.0637665  38.2511482
  30.3731117  29.6733379  24.6314182  31.3075237  29.5166645  24.7676430
  30.3236103  30.0958500  23.7739429  84.9354706  69.9001160  64.4723511
  85.6548767  69.4091187  64.0753555  84.5347443  70.3708115  63.7415237
   8.1928406  55.2900887  54.8705711   9.0794992  55.6366463  54.7707253
   8.3201084  54.3742523  55.1181145  45.3429222  21.7101593  73.7179718
  45.4888420  22.6453857  73.8604050  45.9231644  21.4852562  72.9906693
  77.2838898  12.3336029  47.0844536  77.7668533  13.1600237  47.0872765
  77.4519424  11.9550323  47.9473991  78.8569870   9.0684175  48.8297386
  79.4037857   8.8332777  48.0801048  77.9719391   8.8122120  48.5703583
  77.1819077  64.7957764  11.3448343  76.7973099  65.2007751  12.1221972
  77.3349762  65.5260086  10.7451963  29.2807121  70.9045868  80.5643005
  29.1232128  71.7963943  80.8742981  28.5711155  70.7378540  79.9438934
  19.2095757  24.8513927  84.8136139  19.5401363  24.8155537  85.7112122
  19.9600735  24.6070728  84.2720566  27.1623611  14.0439224  84.5298920
  27.4847317  14.7195349  85.1264267  27.9515095  13.5925503  84.2303162
  31.4966068  64.5137177  21.1100769  31.6907120  64.9714661  20.2921410
  32.2540970  63.9461250  21.2524796  43.7803116  41.5885658  30.3631496
  43.3483391  41.7917747  29.5334892  43.8365059  42.4298477  30.8162746
  26.0190048  22.1524258  15.5302458  25.9365120  21.2066898  15.4077291
  25.3243294  22.3751507  16.1499672  18.9085197  57.5929108  65.3082581
  17.9760056  57.4635658  65.1352768  19.2079716  56.7502022  65.6494370
  56.2554626  30.6196499  22.2465630  55.6706581  31.3769188  22.2745056
  57.0513763  30.9152374  22.6885853  52.0243721  45.2853050   7.2869844
  52.7530022  45.8139153   6.9615645  52.4291077  44.6702881   7.8986859
  21.6933441  14.7340727  27.4706993  22.5908642  15.0569296  27.5510292
  21.2011909  15.2291870  28.1255875  65.6161957  47.9934921  78.2522202
  64.6597595  48.0087700  78.2171860  65.8186417  47.5513382  79.0766907
  72.0057983  35.3200035  34.0932465  72.1813812  35.0425301  33.1941299
  72.1493759  36.2663307  34.0842285  85.1381302  36.2191582  13.9626980
  85.9400482  36.6179581  14.3005142  84.6836395  36.9347382  13.5181580
  13.1682196  29.0867348   2.5309017  12.4438972  29.7090588   2.5964935
  13.0643139  28.5170708   3.2930827  23.6918259  57.5814056  56.4708290
  23.6277027  58.4129524  56.9405594  22.7833443  57.3272820  56.3086090
   8.7413940  32.2476997  10.4274054   9.1115847  32.3828850   9.5551004
   7.8580008  31.9172668  10.2641230  84.0959854  43.0470467  69.0931625
  84.9822922  43.3635483  69.2678680  83.8087692  43.5482903  68.3299484
  14.1698971  28.1989079  21.4870586  13.9794579  29.0206738  21.9394588
  14.7677670  28.4467278  20.7818146   1.5203532  62.5091629  21.4073906
   2.4118099  62.7250404  21.6811295   0.9871465  62.6591110  22.1880550
  78.7743149  10.9423971  61.1166687  79.0487289  11.2299070  60.2458839
  78.2483826  10.1590252  60.9555626  35.4635391  66.2743378  39.7851257
  35.7913742  67.0379028  39.3100166  35.5436172  65.5520554  39.1621208
  15.0163078  68.9544067  54.3189125  15.5884295  69.6316223  54.6798706
  14.2952919  68.8911285  54.9453011  33.4092560  47.4545860  66.9889832
  33.6655350  48.2606125  66.5407944  33.1666145  46.8549728  66.2834167
   6.4594765  12.2289467   8.8327236   6.1237159  11.8989944   7.9992800
   7.4100919  12.1455383   8.7578564   1.2863292  30.1223431  40.2223549
   1.6057400  31.0209312  40.1402206   1.2122601  29.8110771  39.3202133
  25.8618240  45.1361084  19.3741589  25.5473537  44.2342033  19.3116436
  26.7040195  45.0655022  19.8235512  59.9887390  70.7520523  79.5808640
  59.8482704  71.4480820  80.2227707  59.2536736  70.8346100  78.9733353
  47.6016083  66.9488754  43.5582657  47.1332741  67.1529541  42.7487946
  47.0271378  66.3380203  44.0198555  66.3249283  31.4702797  42.6129913
  66.9704666  32.0807571  42.9691200  65.8297119  31.9884815  41.9785957
  71.8392639  39.8467216   9.2924767  71.2839737  39.2603264   9.8063097
  71.2693787  40.5831795   9.0708971   4.7702680  47.6585159  40.8595314
   5.5415955  47.9714622  41.3321304   4.4672141  46.9058914  41.3674126
  54.1234589  55.7735023  37.2045822  53.6784172  56.5512390  36.8679771
  54.7874756  56.1173248  37.8021584  63.9856873  66.4464951  43.2666016
  63.4704933  66.4205704  42.4602890  64.3980026  67.3103104  43.2597084
  79.7580109  63.7924194  50.1207657  79.0984268  63.1005898  50.1713333
  79.2687073  64.5708313  49.8545113  40.0026550  48.2698326  89.4371033
  39.5689583  47.8993340  88.6684265  40.8296432  48.6161308  89.1018448
  48.7642822   2.7433929  56.4171181  48.8901749   3.4257398  55.7577324
  49.0553703   1.9388844  55.9878540   7.6969194   9.6814442   6.0084367
   7.2703772   9.0903835   5.3880005   7.9851427   9.1122751   6.7220230
  30.3411674  53.5434074  81.8152237  30.6064568  52.6482620  81.6041107
  30.5172005  53.6307526  82.7520370  15.6025991  23.3776112  24.0537682
  15.8710108  23.2902508  23.1391335  14.7559662  23.8223839  24.0134888
  70.4897614  40.9248276  61.0759430  71.2824326  40.8043976  61.5988159
  69.8220749  41.1864929  61.7099495  79.2101135  56.4377213  43.2507210
  78.2600555  56.4874535  43.1451530  79.5432968  56.3079834  42.3628082
  50.5181923  30.6036415  23.1225243  50.8564110  31.2195511  23.7725201
  50.5119667  29.7592030  23.5732059  20.3027573   2.9291637  37.3590469
  20.6973877   2.1709709  37.7899132  20.5857430   2.8606513  36.4472046
  71.7661438  53.4268303  59.6515083  70.8505936  53.3304787  59.3893700
  72.2627640  53.2747154  58.8474808   6.7091031  48.6181946  27.3744183
   6.7149668  48.5264664  28.3271942   7.4031649  49.2511826  27.1904659
   6.4767785  27.6146049  20.4211750   7.3825226  27.3193932  20.5145016
   5.9734669  27.0242367  20.9818668  24.7650547  55.6834946   2.2242589
  25.6764832  55.8368797   2.4732566  24.5059643  54.9115334   2.7274320
  31.6820850  49.1767769  47.3114586  31.7800026  50.0635643  46.9646835
  32.5335312  48.9762115  47.7001038  59.0713310  52.3780670  48.8149376
  59.0126686  52.6953125  49.7161293  58.5200691  51.5956879  48.8000755
  20.5816402  39.0722771  24.0440979  21.3727226  39.5811234  23.8666363
  20.6640224  38.2990036  23.4859772  82.7137604  58.3287277  14.2241974
  82.4867401  58.2374840  15.1495991  83.1418152  59.1828804  14.1656885
  78.1015320   1.6666310  64.6601410  77.3078766   1.3326719  64.2420273
  77.9835358   1.4700352  65.5894699  48.2469559   0.0170099  32.3564186
  47.8848763   0.8451542  32.0412865  49.1950798   0.1277134  32.2854767
  60.4171524  35.7464790   1.6037251  61.1492844  35.2318077   1.9433223
  60.7203217  36.0612831   0.7521264  84.9071655  41.9070892  72.0703735
  85.3805771  42.7204094  72.2453537  85.3417358  41.2541924  72.6191025
  62.9112358  14.7984858  68.3263855  63.4893112  14.6503429  67.5779800
  62.4411583  15.6037998  68.1102219  28.0600414  43.2156601  56.1836891
  27.1770058  43.3996391  55.8633308  28.6012592  43.1930199  55.3945084
   4.3299580  51.0514259  43.9887962   4.9799523  50.5583229  44.4893837
   4.8397841  51.5113716  43.3218956  44.0853729  28.0881424  85.9794617
  44.3283615  28.9712048  85.7012634  43.5452118  27.7518730  85.2643509
  49.7820091  34.6575928  27.8232746  49.6666374  34.8525009  26.8932571
  50.1828537  33.7884903  27.8379211  78.3350677  36.0948105  35.5114059
  77.5717316  35.9688148  36.0750313  78.7675934  35.2409897  35.4995613
  74.1094055  23.2593002  52.5517197  73.2994919  22.9342327  52.9449043
  74.6270523  22.4718323  52.3838844  73.3944397  52.3827744  33.0631905
  73.3984528  52.6734200  32.1511917  72.4667206  52.3176346  33.2897339
  34.0355415  25.4320011   0.9282360  33.1682053  25.5731773   1.3077437
  34.6136246  26.0047302   1.4322523  57.3077621   4.7615585  60.6021233
  57.0595741   4.9616685  61.5046692  57.5996056   5.5993028  60.2426147
  59.9109535  61.8049049  42.2549858  60.3859940  61.7050285  43.0799637
  59.0550385  61.4103317  42.4221725  65.2948303  58.9586639  38.8281670
  64.4480286  58.7523079  38.4324646  65.2878494  58.4938278  39.6648941
  41.8554420  63.3328247   8.1470566  42.0383530  63.6226578   7.2533159
  41.1910591  62.6511192   8.0465317   1.7588450  46.0666275  18.2276649
   1.4090992  46.9542389  18.3054581   1.1022329  45.5944901  17.7156296
  59.0842552  29.0938663  22.9827652  58.5720367  29.8900051  23.1242695
  58.9415894  28.5735779  23.7734470  50.7402344  57.7280731  71.9854507
  51.0936966  56.8545532  72.1535492  51.2798195  58.3115387  72.5189743
  40.2369576  28.7905064  87.2925339  40.5919456  28.3219681  88.0479736
  39.9428101  28.0996971  86.6988220  38.1451836  52.6224518  55.6404839
  38.0492363  53.5443497  55.4014549  38.2123833  52.6283264  56.5953026
  59.0418015  47.3724785  24.5557766  58.5319176  48.1794586  24.4848270
  58.3882332  46.6880646  24.6994953  51.7643776  59.3140907  33.3187141
  51.6237640  59.2707481  32.3728905  51.0375290  58.8155212  33.6920128
  42.6095238  53.6972351   7.2645407  43.3675423  53.6331787   7.8455205
  41.9746361  53.0813560   7.6303844  54.0819473  61.1229935  13.1149445
  54.8309441  60.6864967  12.7091093  54.3893356  61.3629074  13.9891214
  20.5559101  53.8142776  42.8795509  20.7521858  53.5748444  43.7852974
  21.3080597  53.4971581  42.3796120  36.3686142   7.6802340  37.4162178
  36.5448036   7.8402538  38.3433533  36.2152176   8.5503235  37.0479164
  22.9730797  20.1526794  78.1215668  23.8165798  19.7796230  77.8655014
  23.1615238  21.0752506  78.2935638  48.7988968   8.1759882  67.5083771
  49.1710281   8.9365444  67.9548111  48.5502243   8.5035763  66.6440353
   4.8715887  39.7393723  75.5741730   4.8124866  39.3456802  76.4446640
   4.2816963  40.4922905  75.6112747  60.3747673  28.3168468  30.7699089
  59.9708481  28.5840588  31.5955486  59.9343376  27.4981995  30.5417175
  15.2388210  38.9841652   4.0020075  14.9918871  39.8988571   4.1383739
  16.1881657  38.9716644   4.1237454  81.7490692  66.8480606  37.7328339
  82.2133942  66.6072083  38.5344772  80.9076309  67.1886215  38.0365334
  31.6218090  46.9989395  10.8341236  32.3011894  47.3273125  10.2451868
  31.8477020  47.3661537  11.6887341  39.3137703  51.1169624   9.9109535
  38.7189636  50.3680763   9.8708878  38.7468681  51.8628731  10.1070824
  17.3366890  51.8579292  19.2615356  16.4539471  51.5213737  19.4155712
  17.3134117  52.7539368  19.5974827   9.5309649  20.7630177  11.5372524
   9.2159395  19.8608303  11.5924559  10.1413202  20.8488216  12.2696018
  57.3370171  33.0141258  58.1306839  57.7518196  33.8109627  57.8002014
  56.5275154  33.3180809  58.5412369  74.3872223  51.6955719  75.5263062
  74.2339096  52.4401360  74.9446259  75.1710052  51.2738571  75.1740570
  81.4914246  64.5510406  57.0858803  80.6764679  64.0683975  57.2242165
  82.0044937  63.9923744  56.5020294  69.3558807  18.2271252  29.1317101
  69.8949051  18.6079407  28.4384117  68.4678879  18.2314930  28.7743912
  19.0369511   4.8745713  67.1149826  18.2735329   4.8677897  66.5375900
  19.7794857   5.0194879  66.5285721  24.3018799  68.7455292  84.5148926
  24.6938858  67.9817581  84.9382401  23.7254086  69.1192627  85.1814117
  32.4402466  48.2255630  82.8725510  31.9620838  48.4004326  82.0619888
  31.8916702  48.6026726  83.5603638  11.3775597  61.0058632  24.0597839
  12.1189470  60.7949409  23.4922543  11.7765341  61.2416801  24.8973045
  65.7565765   5.4207611  75.9111252  66.5954742   5.6878405  76.2868271
  65.1173706   6.0130749  76.3071213  59.9084663  68.6539154  38.3776817
  59.9616394  68.8501434  37.4423218  59.9471436  67.6986542  38.4245872
  67.5101547  33.7003098  43.6264763  66.8472519  34.3886452  43.6810684
  67.5836792  33.3671265  44.5208015  65.7022247  52.8896065  51.4461632
  66.2062302  52.9981613  52.2526550  64.8265991  52.6412659  51.7425308
  57.1467171  45.2508812  38.1419678  57.5628204  44.5917702  38.6975441
  57.7883110  45.9592590  38.0891800  41.2332420  62.4201851  88.7510376
  41.9963188  62.5185089  88.1815796  41.0748634  61.4765778  88.7784729
  17.0405674  53.1950531  29.0492001  17.1707039  52.2914314  28.7615089
  17.2909660  53.7256241  28.2928734   8.9960070  58.1552925  14.7849798
   8.2339573  58.2375793  15.3583393   8.8909922  57.2999611  14.3683052
  72.3617020  31.5579357  28.4580269  72.1081848  32.4541130  28.6789989
  73.2410965  31.4608040  28.8233547  21.9831161  26.5272675  25.7195110
  21.7714062  25.6462402  25.4109631  22.4497204  26.3868256  26.5433960
   2.7436497  52.1640320  58.8793564   3.0148211  52.8246498  58.2419548
   2.1993480  51.5567970  58.3781242  46.0402031  54.8496437  75.1961288
  46.9910202  54.7397079  75.1864624  45.8561516  55.4095154  74.4418793
  32.7920036  62.3875542  85.1196289  33.2798996  61.6394882  85.4639893
  31.8737049  62.1666679  85.2750854  60.2181854  14.4296799  25.4650917
  60.8312569  13.7423744  25.7258358  60.6961708  15.2457027  25.6129665
  86.3533096  48.0415230  17.8756409  86.6620636  47.9183044  16.9780216
  86.5892639  48.9444923  18.0882587  75.6900711  11.1367989   9.3364010
  76.3054276  10.4286661   9.5264492  75.8765030  11.8007202  10.0002413
  27.8853302  60.0926094  66.0235519  28.1580372  60.6993980  66.7117920
  27.6608448  59.2871742  66.4895020  55.1536636  56.6418877  21.1777039
  55.5817909  56.4788170  20.3372612  55.2371597  57.5862503  21.3097858
   3.1997166  62.9459572  29.9900455   2.9398136  63.1179581  29.0850048
   2.3817172  62.9847069  30.4856319  67.7489548   5.0703130  57.2271881
  67.4115829   4.1944790  57.4151382  68.6178818   4.9176736  56.8558464
  16.6515713  43.6787376  20.5045071  16.2706070  44.2092896  21.2042294
  15.9225225  43.5104828  19.9075050  46.8910103  49.1418037  17.8201733
  46.7728996  50.0480080  18.1049118  46.3859901  48.6255836  18.4484291
  51.9046478  31.0256081  19.8608723  51.8248444  30.7619495  20.7775764
  51.0110703  30.9821339  19.5204849   3.3209686  50.6282387  77.7385178
   2.7021673  51.2143555  78.1741562   3.8202577  50.2330284  78.4531860
  81.0326080   2.6470406  79.7757339  81.0399551   2.2327807  78.9128494
  80.5487366   3.4626441  79.6457443  67.5127182   5.9536157  46.7916527
  67.0226440   6.6758728  47.1846008  68.1513824   6.3803091  46.2204475
   2.9504824   1.5857271  20.1639824   2.1518364   1.0584898  20.1844101
   3.1425223   1.6935713  19.2324657  70.9279404   6.6852655  37.0631142
  71.1702499   5.7615242  36.9981270  71.4025040   7.1082759  36.3475113
  48.5083046  59.0922813  89.1151657  47.9626312  59.8491707  88.9016418
  49.3668480  59.4649429  89.3158112   6.9450092  23.7061958  45.9372025
   6.8368821  24.5447445  45.4884529   6.6310625  23.8683758  46.8267899
   0.5567700  38.1578903  14.6191845   0.6587709  37.6844368  15.4448185
   0.6399796  39.0804863  14.8602791   2.2693503  11.4712753  32.9114418
   2.4599168  11.7097616  32.0042267   1.3615634  11.1682177  32.8937950
  53.6645813  49.4246826  69.6708832  54.3643990  48.8808403  69.3093338
  53.2998352  48.9020844  70.3850861  58.1751900  68.8901138  53.8019485
  57.7403641  69.5840302  54.2975655  58.9436684  68.6663284  54.3269157
  31.5955830  36.0801086  11.2214746  31.6750965  36.0507355  10.2680349
  31.1229286  36.8936577  11.3974504  50.9932632   0.5211719  54.9219131
  51.7977867   1.0391746  54.8964081  51.2617607  -0.3524284  54.6373672
  58.4214973  27.4210682  48.2290764  58.0913086  27.4133511  47.3306618
  59.3434143  27.6638622  48.1433487  67.7615051  45.5136604  39.6861458
  67.0835266  45.7040405  40.3344688  67.5596695  46.0929375  38.9513474
  19.1244373  65.3659058  60.2302246  18.5138645  65.4715347  60.9597931
  18.8748245  66.0492325  59.6081429  23.2135754  22.1672993  20.6488476
  23.0444889  21.4726505  21.2853260  23.3257713  22.9561043  21.1793480
  35.0328751  34.4975929  13.7047367  35.2182693  34.5884819  14.6394033
  34.0776596  34.4657745  13.6520147   3.0888577  46.8802147  50.9562874
   3.6934025  47.5388565  50.6143074   2.3034866  46.9729996  50.4170151
  57.2621536  32.9055138  43.3198318  56.4984436  32.5735435  42.8478394
  57.7788162  32.1246758  43.5187645  55.3706360  13.3934994  17.8532677
  55.0086708  13.4808025  16.9714565  56.0645981  12.7403316  17.7637329
  33.1156540  17.2279854  44.0281754  33.2505646  18.1356869  44.3004036
  33.7316208  17.1002331  43.3067207  56.5570602  30.8411255  71.2635269
  56.7451286  31.5927029  70.7014008  57.0455933  31.0155220  72.0679855
  82.8379898   1.6564285   9.8124609  82.7225571   1.3924721  10.7252779
  81.9759979   1.5303438   9.4158430  66.5449066  65.1989517  59.7975006
  66.5891037  66.0702972  60.1912422  67.0167465  65.2861710  58.9692574
  69.8347778  35.7606735  30.8676682  69.5156097  35.2474289  31.6099243
  70.1576233  36.5724182  31.2589130  33.2867622  61.3027573   2.0832541
  32.8973351  60.5023499   2.4352849  34.1997528  61.0704536   1.9137989
   9.1816216  28.2917080  33.3953590   9.3649664  28.8618622  32.6486702
   9.3009644  27.4051571  33.0547485  73.0600510   3.3569431  13.5868788
  73.3020935   4.2816381  13.5360527  72.3974228   3.2449958  12.9052448
   7.2076797  45.0087929  42.9168892   7.7088504  45.7847633  42.6660271
   6.3020706  45.3146286  42.9675713  76.0591812  58.9954224  75.7656784
  76.4616165  59.6768532  76.3041306  75.2296982  59.3764801  75.4776001
  10.9965267  60.2686806  37.3601303  10.9949713  61.1056862  37.8245125
  11.0254421  60.5086823  36.4339561  75.2989044   3.4896264  43.8479271
  76.0078430   3.9829559  44.2605629  74.6475220   3.3813596  44.5408936
  10.3576021  11.1503305  16.7751732   9.7763910  10.4339323  16.5198326
  11.2221260  10.7449875  16.8424473  41.0253029  62.6417618  78.1191483
  41.4771156  61.8142204  77.9540024  40.5472527  62.8194427  77.3091278
  42.0201416  44.9280090  62.7381935  42.9366074  44.8214417  62.9930649
  41.5825310  45.2245064  63.5362015   9.4475574  70.4492111  19.4221191
   9.7471952  71.3569565  19.4716454   8.7091875  70.4735870  18.8134766
  83.6621475  46.7311630  68.4118195  84.1949539  47.1975975  67.7677841
  83.3716431  45.9414558  67.9555359  50.0670891   5.5392838  13.8314352
  50.0743866   4.8424163  13.1752691  49.3365898   5.3170762  14.4086952
  29.7657528  20.6632652  27.9219055  29.7214355  19.9352856  27.3019753
  29.9422741  21.4307652  27.3778343  21.4375324   4.4557590   9.1873283
  21.9983959   3.7182467   8.9470406  20.6276684   4.0499530   9.4966402
  23.8044910   2.6736963  35.6660004  22.8754730   2.4898157  35.8050804
  23.8329430   3.1484311  34.8353081  59.5739555  53.8095741  28.6281948
  59.7980232  53.0319481  29.1393948  58.6425095  53.9485703  28.7994251
  77.7303314  67.6781387   4.9765491  77.8856964  67.5075684   4.0475717
  78.0721283  68.5609131   5.1184120  10.5748053  67.0884705  64.9111023
  10.3982353  66.4798660  64.1937103   9.7852631  67.0573959  65.4513702
  62.3835640  17.8458157  23.0314579  62.9865875  17.9340973  23.7695656
  61.8460884  18.6371460  23.0653114  11.5173082  62.9741440  88.0953064
  11.2555256  63.0851021  89.0093002  12.3058701  63.5092278  88.0053711
  57.1223106  58.3619537  85.3904800  57.4413757  58.6734581  86.2374725
  56.8040771  57.4763107  85.5654068  61.0834351  51.6980362  18.9973755
  60.5256538  51.7209969  18.2198238  61.9761429  51.7113304  18.6522293
  33.7828598  42.2927437  11.0520649  33.7401237  42.0216331  10.1350574
  33.0992088  42.9572449  11.1374769  47.7974548  66.1739502  22.0088158
  47.0868950  65.7859344  21.4981518  47.4481316  67.0143967  22.3052273
  60.8227501  20.5298023  22.6971531  60.3141212  21.3148632  22.9001560
  60.4429359  19.8483009  23.2517071  77.2955017  56.2240601  52.5745583
  77.8620377  55.5323448  52.9163246  76.4121323  55.8597298  52.6307030
  82.2975540   7.6857066  42.9961243  83.1310730   8.0328970  42.6784325
  81.9357681   8.3882322  43.5363083  21.1960068  21.1683369  17.4716511
  21.1178989  21.6970139  16.6775284  21.3253155  21.8069973  18.1728115
  13.6229506  10.0436363   2.8602383  14.3438711  10.6668053   2.7698803
  13.8548107   9.5185823   3.6262610  13.6740160  58.4842911  78.0668793
  13.4747391  58.3757668  77.1369629  13.3436155  57.6852455  78.4774704
  16.3342094  58.7027664  79.3795700  17.0433235  58.8330917  78.7499695
  15.5448551  58.6403503  78.8417511  14.4822693  71.3784866  75.6946869
  15.0996428  71.8362198  75.1241074  14.9593601  71.2574997  76.5156479
   3.8971045  40.5880394   4.6754527   4.7783718  40.3932571   4.9942923
   3.5084352  41.1302147   5.3619041   9.1235638  51.5801888  46.3875046
   8.8506107  52.4342880  46.7225227   9.3808250  51.7494774  45.4811974
  13.7709074  58.4533997  22.3008957  13.3580637  58.8478775  21.5326653
  14.4058409  57.8344803  21.9403038  74.7442093  61.0778694  67.9699783
  74.4397736  61.6066093  68.7075272  75.6825333  61.2592888  67.9163818
  48.4900970   6.8216796  87.2304306  48.3290405   7.1313739  88.1217117
  48.2200050   7.5501285  86.6712875  56.6204529  70.6360550  55.0734711
  56.8122101  70.8690491  55.9818649  56.1996536  71.4152222  54.7100677
  15.5135641  70.9602966  48.2957268  15.1284924  71.2977142  49.1044922
  15.9162807  70.1301041  48.5503502  79.5074844  57.6019821   9.7487478
  79.7906189  56.8085938   9.2942123  80.3099594  58.1106224   9.8651752
  73.4561996   9.3177128  47.1090164  72.5277481   9.5267067  47.0063744
  73.9126816  10.0245209  46.6526451  23.8196526  67.5913010  41.8593597
  23.9083748  68.4262924  42.3188744  23.9117622  66.9296646  42.5449181
   0.6025177  36.1110039  69.9232101   1.1754013  35.3958206  70.1998825
   0.9139242  36.3425064  69.0481873  49.0800743  34.6221542   6.0603561
  49.5674934  34.6914711   6.8812399  49.2136269  33.7172928   5.7781801
   1.4047735  43.7264481  66.5692062   2.3531380  43.6986389  66.6959457
   1.2857736  43.6140785  65.6260986  25.2289600  51.3206940  65.4775391
  26.0959225  50.9582443  65.6598511  25.3251743  52.2605896  65.6310730
  47.8986664  20.1027145  21.0069504  48.2183571  20.7408428  21.6447773
  47.3909645  20.6214771  20.3829689  77.2154617   9.2727060  45.9329300
  76.7994614  10.1292744  46.0301971  76.9643707   8.7934437  46.7225456
  33.8957062  22.4662476  25.2733059  34.4086151  21.8577271  24.7414589
  34.2328529  22.3507252  26.1616879  72.9528885  37.5547600  74.0139236
  72.6732483  38.2538223  73.4228668  73.6952286  37.1468201  73.5681000
  79.4020081  36.0794754  68.3119125  79.7938309  35.6339645  69.0630646
  78.4606552  36.0558929  68.4837494  57.3941345  13.9628134  54.3204575
  56.6794701  14.1658773  54.9239922  57.3412056  13.0151138  54.1967812
  73.7719650  42.6668701  66.5348587  73.3693085  43.5165405  66.3555298
  73.0944443  42.1735725  66.9973068  25.1196079  48.8325844  76.5698090
  24.5764618  48.2733879  76.0143661  24.6977272  49.6909218  76.5309677
  41.0607681  58.4233208  31.5202885  40.5664978  58.2442169  32.3201942
  40.4414978  58.2479935  30.8117714  47.9228363  30.1246967   3.3156507
  47.3325577  29.3786430   3.2097771  48.7970123  29.7598858   3.1779687
  71.6333771  62.5986137  64.5030441  71.3708725  61.8968430  63.9073601
  71.6020889  63.3914642  63.9676514  84.3418045  13.8689795   9.8509855
  85.0366287  13.4941044  10.3922062  84.2321243  13.2433720   9.1348734
  43.7370644  10.0896463  26.1199741  44.2697601  10.4277897  26.8397846
  44.3564034   9.6136189  25.5667553  42.8116798  20.8217964   8.5707006
  42.1668968  20.7007656   7.8736787  43.2954216  19.9961987   8.5954828
  58.6037445  35.1230392  52.9485893  58.1090927  34.8332253  52.1820641
  58.8589706  34.3126183  53.3893890  33.2699966  67.7627106  53.6071510
  33.6993866  68.6164856  53.5530777  32.7710800  67.7967987  54.4233360
  32.9840660  32.1336784  21.5980453  33.0867233  32.6693268  22.3846664
  32.6082420  31.3123531  21.9149265   9.6840515  59.5062828  20.5955105
   9.2219725  59.4632607  19.7583351   9.2834969  60.2458763  21.0524426
  16.8745117  18.6515636  13.2593594  17.5941658  19.2826271  13.2497778
  17.2965202  17.8096180  13.4304352  69.1254425  27.4514484  10.3690014
  68.7918091  28.0744648  11.0145788  68.3473816  26.9880695  10.0589561
  83.3225021  16.0283680  68.8868332  82.5597687  15.8603735  69.4402237
  83.0922470  16.8162098  68.3943634   0.9100040  11.0456800  38.8459015
   0.5937042  11.0069799  37.9433022   1.2534132  11.9340315  38.9414711
  56.5564079  21.0916367  16.8328819  57.1446838  21.6989021  16.3841152
  57.1335716  20.4113922  17.1798401  78.1429443   1.0143905  41.5194893
  77.2287674   1.2911823  41.5819359  78.1239014   0.2544339  40.9378242
  55.1221809  47.0896912  43.8452644  55.5136032  46.7883835  43.0253677
  54.3948517  47.6488380  43.5721703  26.8671169  55.0529175  86.5653381
  26.2535686  54.6747971  87.1952744  26.4281998  54.9623604  85.7195358
  66.6272888  54.1954117  67.5097198  66.6252670  55.0198135  67.0233231
  65.9334106  53.6759834  67.1035690  34.4790268  62.0043411  52.1629372
  34.7374153  61.1996956  51.7134743  33.5443153  62.0931053  51.9767532
  57.0291405  16.3755379  10.1394072  56.7488747  16.1281357   9.2582293
  56.7000809  17.2670727  10.2539339  12.5321627   8.1805849  21.3845043
  13.2097740   8.2842493  22.0525837  12.6424990   7.2837844  21.0685844
  61.4219818  70.3379669  31.5320034  60.7853813  70.8383102  31.0214901
  61.7769127  70.9695892  32.1575432   2.9015088  47.3705025  36.6459389
   2.7524109  46.7017136  35.9775620   3.0407233  48.1775169  36.1503792
  75.6689758  40.6270599  12.9841270  75.1816254  40.6426392  12.1604271
  76.5826340  40.7447166  12.7241077  67.6469879  27.9234390   6.8804045
  67.2135239  27.2598839   6.3437214  67.4855881  27.6452179   7.7819438
   5.7326307  20.1336269  64.7202988   5.8012333  19.1789379  64.7301712
   5.6984186  20.3808708  65.6443787  83.0852051  14.7699060  34.8484802
  82.1612854  14.5717335  34.6957436  83.3280029  14.2204332  35.5937042
  25.8581982  67.6924210  23.3772831  25.2977810  67.0600052  23.8269653
  26.5404701  67.1597595  22.9686184  20.2149868  71.1316299   3.0113714
  21.0420666  70.6502380   2.9905405  19.9141846  71.0518951   3.9165742
  33.5708885  67.7423553  15.5222845  34.1239357  67.3875275  16.2183228
  34.1852341  68.1545334  14.9148912  59.8232689  32.7321625  14.8493395
  60.0652237  31.8060951  14.8588686  60.5486183  33.1737823  15.2910089
  60.9375839  52.9301414   3.5425215  60.2117958  52.4445686   3.1504974
  61.6614037  52.3041153   3.5626786  67.3988266  49.4324532  33.8256073
  67.7172241  49.3722000  34.7262878  66.4536819  49.2984886  33.8962212
  43.8917122  54.7680626  38.7000237  44.2893677  55.5456009  39.0918617
  43.8425522  54.1366539  39.4177513  66.7738419  42.9512215  59.2581635
  67.4895477  43.5798454  59.1641998  66.0108337  43.4874573  59.4738312
   6.3882728   1.2418571  73.6790161   6.5556149   0.4779458  74.2309875
   5.9568353   1.8677533  74.2606964  60.2639236  38.2915802  11.0628500
  61.0752258  38.6359100  11.4362917  60.0744858  37.5096588  11.5814524
  44.4156647  41.9500999  86.0201721  44.8977013  42.6663818  85.6068802
  44.0927734  41.4248543  85.2879944   1.8737497  67.6566391  50.6283379
   2.0623114  67.5513000  51.5608521   2.2991216  68.4801941  50.3894997
  67.8494720  58.2239494  89.4308472  68.4329147  57.5433197  89.0953293
  67.4272079  58.5834160  88.6506500  77.7320633  42.5579605   7.8594351
  77.2332230  43.3744431   7.8320956  78.5637283  42.7711143   7.4361911
  16.3975868  20.0632687  15.5539188  16.7282925  19.5218430  14.8371735
  16.4897671  20.9619312  15.2374678  82.6299515   3.3099689  43.2696571
  81.9184341   3.0404499  42.6888504  83.4206543   3.2190876  42.7379074
  74.2021637  44.0364685  69.0485840  73.9197540  43.5201302  68.2936859
  73.6338806  43.7474480  69.7625580  49.4452171  31.3971615  18.6442585
  48.5292282  31.6283531  18.7983532  49.4085960  30.6889076  18.0014000
  37.9825363  38.3710632  20.1871414  37.6516113  38.3842239  19.2890606
  38.7468719  37.7959023  20.1523495  84.3296280  70.4142914  79.6489258
  85.1445618  70.8957291  79.7915497  83.9078140  70.3976059  80.5080109
  37.8691711  46.0129242  64.5586090  37.2926483  46.2099571  65.2968674
  37.7257233  46.7325706  63.9439812  19.4863567  21.1609154  69.7940445
  20.4410725  21.2266521  69.8147354  19.1858025  21.8530617  70.3829727
  66.5831146  48.0493774   8.8684731  66.2593384  47.1809540   9.1077280
  67.5223999  47.9255600   8.7319212  53.8764381  65.9500198  49.4060669
  53.8241310  66.8587646  49.7021713  53.0089493  65.7650528  49.0462341
  18.2500935  62.1839142  82.2507401  18.0183735  61.8993797  83.1348114
  17.5773697  61.7968483  81.6905136  30.4093418  65.0543289  87.7268372
  30.5674267  64.3234482  87.1293030  29.5141659  64.9199753  88.0380249
  16.3160152  44.8730888  24.5575485  16.4751740  43.9298553  24.5227604
  16.0793056  45.1092873  23.6606598   5.7235384  48.7333374  81.9045715
   5.6701002  49.4484444  81.2705383   6.2002792  49.1059647  82.6462631
  84.3042374  49.1297989  86.1828156  84.4007416  48.6484566  87.0045319
  85.0922623  49.6703911  86.1279221  79.2361526  26.6773472  66.6835327
  79.6920929  27.2924309  66.1090546  78.4856796  26.3803043  66.1689453
  57.4089813  69.4966278  35.0393219  57.8873253  69.0832291  34.3206329
  56.5649948  69.0453644  35.0561562  57.4520683  66.9601440  36.7558670
  58.0997696  67.5410233  36.3567505  57.9664421  66.3714218  37.3081894
  41.7180595  49.3351936  30.0239506  40.8711967  49.3578415  29.5783710
  41.8336334  50.2224922  30.3639183  15.2570400   6.5313439  37.7856903
  14.4026585   6.4951086  38.2157478  15.1634731   7.2171264  37.1244926
  15.9715452  71.2419205  77.8934174  16.2495499  72.1391373  78.0776443
  16.4778423  70.7044525  78.5025406   4.2384968  10.6304512  12.2389097
   3.3429458  10.3978539  12.4841013   4.2744851  10.4815235  11.2940521
  73.7085648  35.6815186  50.9732513  73.0708466  36.3516617  50.7273712
  73.9508209  35.2662582  50.1455421  24.2599545  66.3489227  64.9356079
  24.4585781  65.4256363  64.7796631  23.5300407  66.5397110  64.3464966
  60.8162537  41.8645592  27.4300575  60.0523338  42.2465057  27.8622360
  61.5605774  42.3491249  27.7870026  74.7036743   5.4209738   2.0727630
  74.7176514   6.3697319   1.9466881  73.9951782   5.1145520   1.5067524
  53.8570251  30.7754135  73.8725128  53.1408463  30.5974445  73.2628860
  54.2067719  31.6207619  73.5909195  79.5026932  53.8029327  40.0558548
  78.5535355  53.8764648  40.1554527  79.8385925  54.6583557  40.3235359
   2.2797260  64.6015778  59.3233910   2.7505999  64.8316193  60.1243858
   2.4067814  65.3545532  58.7462273  76.6019669  47.0621567  70.9754333
  77.0156937  47.9070244  71.1522369  76.9840164  46.7774506  70.1452408
  36.1986923  58.9242096  23.1542377  35.9119568  58.1276207  22.7076263
  36.5370140  59.4826546  22.4543037  40.2781639  42.5519714  89.4613724
  39.6762657  42.6164894  88.7198944  41.1490097  42.6157494  89.0691986
   1.2426330  30.9413471  57.8674545   0.6884471  31.2145290  57.1363716
   0.9720635  30.0414944  58.0499001   0.4236627  43.8347549  23.5179081
   0.1277850  44.5177498  24.1197395   0.2674741  43.0162888  23.9890289
  50.3374481  27.5702477  68.2941895  49.8841629  28.2649364  67.8165131
  49.9138527  26.7630634  68.0022125  38.5859718  46.9237785  51.8958244
  39.3308220  46.9536705  51.2953758  38.1942787  47.7950554  51.8351250
  86.3865051  23.6988239   3.6462293  85.7365723  23.1583385   3.1971176
  86.6039047  24.3854656   3.0157583  32.8720398   7.9871888  21.1215935
  32.2928047   7.2336926  21.0077572  33.3177872   8.0760603  20.2791901
  85.6368027   9.1595268  39.7114105  85.6281586   8.2041035  39.6537590
  86.5645676   9.3929825  39.6800346   9.4018974  21.8408165  82.9268036
  10.1423845  22.3122826  82.5451889   9.1176434  22.3914833  83.6563187
  85.8232651  54.3979340  71.5217056  85.4403305  55.1869583  71.1382523
  86.1350021  53.8934975  70.7703094  20.7088432  69.5297852  82.5993576
  21.0407410  68.6928940  82.9244537  21.3186226  69.7752686  81.9035492
  85.8301086  18.4795895  27.9788857  85.5356903  18.6343327  27.0813313
  85.7206879  17.5374374  28.1077709  35.3368454  69.2752075  59.6369858
  34.7609863  69.2883530  60.4014778  34.7803802  68.9634018  58.9232979
   7.3386040  34.3251686  85.7821579   6.7643924  34.9531059  86.2205734
   8.1320858  34.8230553  85.5853653  25.1970348  61.9003296   7.9114151
  25.4257069  61.5697136   7.0427179  24.5439053  62.5799446   7.7447476
  11.7834892  14.0064373  69.9505920  11.5996189  14.0889091  70.8863373
  12.6657162  14.3631992  69.8474960  78.9892502   3.2460585  44.2240181
  79.2049866   3.8628058  44.9235268  78.5196075   2.5382273  44.6652031
  60.0814247   1.6859616   6.7102914  59.6459427   2.1016045   5.9660935
  60.3333969   2.4144521   7.2777801   3.7659295   9.2003889   4.5662665
   3.0314465   9.7818270   4.3695545   3.4946923   8.3480988   4.2252903
  30.8429794  10.7226000  72.1047745  31.5409451  11.1056805  72.6361160
  30.8906689  11.1922302  71.2720642  79.3326187   3.6294608  29.4313393
  78.8761597   4.1325002  28.7569275  79.6222916   4.2859278  30.0648766
  75.2855911  47.8512802   0.3018483  74.3846436  47.5441093   0.4027139
  75.5118408  48.2151299   1.1578022   7.0587640  22.8394585  19.1962776
   7.7571368  23.2475548  18.6844521   7.1873269  21.8993664  19.0700569
  59.5765724  58.4540672  41.8466110  59.3049164  59.2229156  42.3479233
  60.4068184  58.7108459  41.4453812  57.7501831  19.8313618  19.0141678
  56.8258667  19.7645817  19.2537785  58.1398201  19.0174904  19.3335838
  17.9064121  53.6856956  77.2796249  18.4640770  53.2071533  76.6662369
  17.0784683  53.7984467  76.8126907  13.4794655  55.6617279  28.3120651
  14.3955669  55.4777946  28.1043205  13.2671175  55.0522003  29.0188999
  27.0857162  21.3465004   0.5985953  26.3938408  21.0076656   0.0305022
  26.9141026  20.9452190   1.4505068  47.8200378   8.2011032   4.5218396
  47.5243340   8.8879852   5.1193213  48.6570854   8.5206757   4.1850066
  79.3841705  70.1260681  83.5561981  78.6247711  70.6978836  83.6682892
  79.7437668  70.3698807  82.7032700  73.4731140  50.0411263   4.2012320
  73.7498245  50.5941467   4.9318719  73.1531982  49.2395973   4.6152840
  65.4013748   8.1036654  71.9926834  64.7763596   7.9966664  71.2756577
  65.5242386   7.2191520  72.3373184  37.4046974  58.4938087   9.3404522
  36.9368095  58.6821976   8.5269279  37.3876419  59.3200607   9.8234091
  34.2436562  62.8282661  72.4907684  34.8707390  63.1130943  71.8260345
  33.9597740  61.9626389  72.1969528  67.5445099  34.0775375  67.9828262
  66.8125000  33.4640999  68.0468063  67.4009933  34.5361786  67.1550064
   3.1032467  58.7802048  87.0728531   3.5593457  59.6150322  87.1790009
   2.4570463  58.9459114  86.3864136   1.6407603  62.8440628  50.5981827
   2.3949361  63.4295769  50.5301743   1.1194143  63.2071953  51.3141212
  76.1928024  23.3547001  29.8158455  75.4505692  23.3078728  30.4184513
  76.3047028  24.2900257  29.6459141  10.7417088  53.8239555  26.7402020
  11.4430637  54.3928604  26.4229050  10.5056391  53.2892303  25.9821949
   6.5100083  40.8320084  39.9497719   6.3625526  41.5800743  39.3710785
   7.4241514  40.9155846  40.2210464  45.1652794  37.1510773  14.0365076
  44.3614845  37.6707840  14.0434704  45.3997231  37.0849457  13.1108227
  14.9325008   6.4031601  62.2209969  15.7269192   6.8792896  62.4627228
  14.4229383   7.0315633  61.7094421  40.9612656  59.1750526  69.8303680
  40.9397430  59.4517975  68.9142990  40.4657249  59.8488579  70.2958374
  57.8286514  25.1705551  87.0990906  57.6955070  25.3945904  88.0201340
  58.3991776  24.4022369  87.1195374  76.2376480   3.5733280  15.8349752
  75.9886093   4.4806886  15.6591759  76.8711014   3.6330781  16.5501022
  69.1276398  68.2011337  35.3266754  68.7208328  68.2932663  36.1882172
  68.5030289  68.6027451  34.7226906   5.9927111  37.4529991  50.9310265
   5.0923133  37.6039429  51.2186584   6.2229676  36.6011009  51.3018074
  61.5860023   9.5111790  79.1096268  62.1345787   8.7857485  78.8112183
  61.2774620   9.2384453  79.9737167  61.5731010   4.9582849  79.9046326
  61.4327545   5.5310659  79.1506729  60.8368073   4.3470879  79.8814392
  43.1571426   5.6433134  27.5796108  43.3834114   5.6175685  28.5093269
  42.8972282   6.5508647  27.4214077  69.4586487  17.2752628   9.8427906
  70.3787460  17.0118809   9.8258543  69.0692062  16.8337574   9.0880480
  46.7908325   4.8604226  70.8266525  47.1159973   5.4994588  70.1925125
  46.0926628   4.3974147  70.3636017  13.4236794  68.1583786  56.5280762
  13.0841913  68.8566055  57.0879517  14.0442333  67.6864471  57.0834351
  44.1894608  71.3558426  87.7812805  45.1078758  71.1679993  87.9748154
  43.7221031  70.5633240  88.0453110   5.7734313  26.5138569  48.0956078
   5.9931712  26.4745483  47.1648026   5.8690801  25.6122704  48.4025650
  76.5805130  26.9936371  63.0008774  75.8911209  26.4292946  62.6508942
  76.3289490  27.8761082  62.7284927  59.2118759  46.8350220  38.9179268
  59.8134193  46.1183281  38.7161140  59.6601105  47.6198692  38.6027527
  51.8620605   4.0425825  27.9596233  51.4403229   4.8676105  28.1998291
  51.3241730   3.6971779  27.2471581  22.4790115   2.7945318  78.3122253
  21.6506786   2.4938824  78.6859970  22.6361504   2.2061057  77.5737915
  85.1946487  19.3753147  32.9420128  84.6812820  18.6780262  32.5339966
  86.0948105  19.0501747  32.9269714  48.1846504  11.8487530  78.2139130
  47.4686012  11.5611792  78.7803040  48.6379700  12.5205078  78.7232971
  18.1534615  69.4301834  57.4411964  17.4296036  69.5598373  56.8284531
  18.6395321  70.2543869  57.4155350   1.9964597  61.0734215  82.1181183
   2.3347743  61.5619926  81.3677368   2.7781007  60.7427406  82.5607452
  39.0569153  49.4610596  75.9849396  38.4576378  49.1029816  76.6398239
  38.6203003  49.3016624  75.1481628  81.3296204  54.7949791  66.3477936
  80.6191254  54.8457832  66.9872055  80.9130096  54.9977989  65.5102158
  15.7671986  47.9033279  17.6071682  15.6890116  46.9524460  17.5300465
  16.6839809  48.0501671  17.8399315  68.3426285  49.0520630  64.0993500
  67.8998489  48.7194099  63.3186340  69.0153656  49.6423645  63.7599411
  75.8627853  39.7541237  75.0861588  75.7596512  40.7044373  75.1361237
  75.0486298  39.4454269  74.6885452  45.6722298  67.0444107  54.6274910
  46.2546387  66.4121933  55.0485916  44.7996063  66.8169708  54.9484825
  71.6619568  58.2366295  75.8662186  70.9869766  57.9299469  75.2607574
  71.9251633  57.4528084  76.3484802  50.7621422  38.6559181  12.1650867
  51.6454773  38.3643150  12.3907318  50.8979721  39.4198494  11.6045589
  58.4822273  53.7949982  62.4785728  58.7726364  53.8827400  63.3864250
  58.6566925  52.8798828  62.2586746   8.5303764  11.8428192  77.4067230
   9.1883535  11.3079357  76.9626541   8.5492821  12.6798601  76.9427872
  78.5021439   9.7108431  36.1859131  77.6939545  10.2216215  36.1393471
  78.9350967   9.8705988  35.3473091  58.1410561   6.0681944  86.2849274
  57.6988297   6.6219697  85.6415024  58.3363380   5.2597008  85.8111801
  82.0215454   4.2202911  30.6306438  81.7771454   3.4122555  30.1794491
  81.2350540   4.7643819  30.5903931  53.1226578  27.0908928  84.1872864
  53.2867584  26.1485786  84.1506195  52.3963165  27.2313366  83.5798874
  36.1169853  56.4519310  25.7503624  36.6329956  56.3752289  26.5529099
  36.7684021  56.5258293  25.0529194  15.6095533  54.6385918  17.9417839
  15.4304228  54.8403778  17.0234013  15.0043688  53.9277802  18.1532822
  15.2399836  66.3350296  57.8249130  15.5451603  66.9983826  58.4438324
  15.3319187  65.5071411  58.2964859  44.4994888  49.5163727  10.4236755
  43.6364288  49.1686897  10.1990042  44.9855423  48.7587891  10.7493296
  70.7273788  60.4849052  39.3723450  71.4189148  59.8544121  39.5735435
  70.7487717  60.5677605  38.4189796  40.3353882  57.5329933  15.8119364
  40.8691254  58.2311897  16.1912498  40.4759560  56.7831230  16.3900089
   3.1010277  60.9752808  41.7767334   3.0925031  61.8367462  42.1939049
   4.0248866  60.8089600  41.5895042  33.9815063  60.5814705  65.2862167
  33.9340439  61.1666107  66.0422516  33.2947273  59.9330864  65.4416809
  64.1941528  28.1271496  78.2063751  63.4921951  28.1773396  78.8552017
  63.9973297  27.3383541  77.7011108  53.6316605  36.9764328  85.8102264
  53.6458054  36.3371124  85.0979767  53.4115219  36.4637070  86.5879669
   1.1455438  30.2109394  51.2367287   1.5298663  30.9027367  50.6982613
   0.2314831  30.1686554  50.9557724  50.3043327   8.1118755  84.3575897
  50.1473083   7.1768389  84.4890594  50.3593826   8.2142334  83.4074707
  29.0690250  48.0594902  65.9861755  28.9097271  47.4454308  65.2693939
  28.2808590  48.0063248  66.5267334  35.0073013  47.3763924  14.5771446
  35.6926079  47.0159340  15.1398659  34.9693413  46.7768631  13.8319244
  20.3645954   0.8659505  69.9764862  19.7482929   0.3553357  70.5015335
  19.8838520   1.6619947  69.7497025  60.8645477  18.2395020  60.4755592
  61.5632439  18.4720192  59.8640137  60.2002220  17.8172760  59.9309196
  33.9058762  42.3471565  36.9814911  33.5960617  41.5870590  36.4890518
  34.8571739  42.3287659  36.8769379  22.9516010   7.1967392  49.7863808
  22.0390110   6.9528646  49.9410934  23.0981026   7.9508562  50.3574142
  69.1579056   0.4975896  85.8041763  69.5788040   0.7545828  86.6245651
  69.8166504   0.6722775  85.1320419  53.7360229  20.2160625   4.0018792
  53.5874405  21.1616364   3.9952548  54.0247307  20.0252228   4.8943257
  37.3772583  47.8555145  31.0487537  37.9590340  48.4358864  31.5396061
  36.9886360  47.2874489  31.7139645  13.6070747   5.1606803  59.2985497
  12.7129698   5.4065428  59.0611496  14.0509138   5.9940629  59.4557533
  68.6068726  57.6283760  70.0154572  69.1644058  57.0935135  69.4503784
  69.1265411  57.7610893  70.8082809  68.4040451  20.1842155  63.3145294
  69.3551636  20.1122570  63.3946838  68.0728760  19.3428726  63.6286964
  85.2400742  26.5849991  73.7650909  85.7930450  26.0549126  73.1911011
  85.1679611  27.4276657  73.3168259   7.2168126  46.0398865  57.1895752
   6.2793002  45.8838310  57.0757828   7.5055161  45.3440208  57.7800446
  75.5710297   0.8106220  34.7954521  76.3433838   0.2833827  34.5912132
  75.9090500   1.6999844  34.9003677  32.6025581  51.4758720  70.9430084
  32.5303650  51.0242310  70.1021500  33.5378227  51.4563904  71.1458206
  37.6450577  43.2517281  29.4094296  37.8066673  44.1179161  29.7833748
  38.0147667  42.6422768  30.0482674  12.7390242   3.7217257  62.6966324
  12.2798605   4.5604687  62.6529198  13.5886173   3.9336419  63.0833054
  18.6529922  43.7920418  77.7084885  18.1861000  44.0122986  76.9024277
  18.0941868  44.1291695  78.4087067  74.4471893   9.7487040  29.8851891
  74.7783508   9.7980986  28.9884605  73.6336517  10.2527905  29.8681812
  69.6515045  44.0512161  37.2875061  69.9983673  44.8079910  37.7599602
  68.8421860  44.3690872  36.8872643   1.9055347  60.4684753  45.9424400
   1.6163520  61.1045456  45.2882118   1.8236283  60.9294930  46.7772980
  57.8637085   3.8894188  88.8762360  57.4652138   4.6385980  89.3191376
  58.7209816   4.2070498  88.5926437  23.6006756  47.9456024  28.0156593
  23.9852619  48.2705345  27.2015686  24.2693672  47.3670807  28.3822651
  64.7120819  25.9663010  28.9441223  64.3301392  26.3461800  29.7353516
  65.0042572  25.0954952  29.2134972  83.8390427  54.2074280  65.0357895
  83.7444916  53.8815193  64.1407547  82.9466553  54.2194862  65.3818130
  28.1513615  66.0135574   9.6219254  27.7015152  66.7722702   9.9937143
  29.0484295  66.0832367   9.9484930  43.1857643  44.9184380  41.2062721
  43.2147827  44.0615578  41.6318893  42.6632881  44.7762375  40.4169502
  39.5657578  47.5055199  46.1955338  40.4671173  47.8273354  46.1807060
  39.3295441  47.4121895  45.2726440  42.6934929  45.2658577  66.9679260
  42.6381989  45.5503616  67.8801880  42.6657295  44.3101196  67.0129929
   5.5893302  11.8642120  17.7362270   5.0614915  11.9400272  18.5311298
   5.6138768  12.7520895  17.3794308  24.9889069  57.7711182  79.9869766
  25.8073120  58.1732330  79.6958618  24.3034897  58.3100586  79.5920410
  62.0571785  70.9546967  47.5422058  61.6925697  71.0065918  48.4257202
  62.9338951  71.3304138  47.6224594  84.9838791  55.6677322  22.3037548
  84.8843994  56.6143188  22.2022114  85.4882889  55.5651169  23.1107712
  22.3127346  13.9338999   0.4129160  21.4875507  13.6246681   0.7866525
  22.1578751  13.9470091  -0.5315832  75.8726654  30.4874172  60.2318268
  75.8904953  30.0036621  61.0575943  74.9433365  30.6485386  60.0686531
  82.5729294  65.3274536  17.5617867  82.2379913  65.1378403  18.4381962
  83.3834534  65.8130569  17.7150173  32.4674339  61.3998795  17.4105587
  32.8120270  60.5371208  17.1800423  32.0638771  61.2749329  18.2694874
   5.7630415  52.5728836  46.4174385   6.4671040  53.0698547  46.8340302
   5.0309439  53.1877785  46.3708649  35.1883812  71.2221909  74.3103867
  35.4561615  71.8994904  73.6892624  34.5440292  70.7001114  73.8323975
  21.6972351  49.3037415  11.8502789  21.4726295  48.6028328  12.4622526
  20.8782501  49.4937363  11.3926783  19.5539417  46.4818764  73.7270126
  19.0828323  45.6782799  73.9472809  19.2694759  46.6900063  72.8370743
  79.2101135   7.7292891   2.7977428  78.4088211   7.6695290   3.3179233
  79.0013962   7.2722940   1.9829899  70.0617294  44.2463760  31.4597816
  69.3419647  44.3453484  32.0829811  70.8065796  44.6717567  31.8846111
  86.3775711  69.2573547  39.5809822  85.6631851  69.6264114  40.1002884
  87.1227417  69.2338333  40.1813126  18.9452896  14.5195656  11.6865683
  19.3395157  15.0282230  12.3951473  18.0121441  14.4967260  11.8985806
   7.4633942  40.4554405  57.2031555   6.9847603  40.9078636  57.8977470
   6.8371234  39.8208351  56.8548851  64.9841003  33.8048325  57.2193756
  64.7675552  34.2033997  56.3764763  64.3530960  34.1825333  57.8320732
   6.0941906  59.0468025   3.8033576   5.9218287  59.7798157   3.2124104
   5.7928696  58.2757645   3.3228009  66.1361465  60.9207611   0.3691969
  65.8744888  61.7943268   0.0782507  66.5211258  61.0617104   1.2341554
  81.2018433  68.6432419  72.5374451  82.1461411  68.6712723  72.3833389
  80.8163300  68.9595871  71.7204132  11.5474529  62.9638863  35.8532066
  12.3843346  63.2642632  36.2076569  10.9669905  62.9211578  36.6131172
   5.9121060   5.2764006  33.8704414   6.4837651   4.5089068  33.8902321
   6.0784450   5.6770067  33.0171661  27.5520954  53.7459145  34.2697868
  27.4225597  54.4821701  33.6719742  27.6362877  54.1504211  35.1332207
  45.9095573  51.4698906  56.9168549  44.9984627  51.4537888  57.2099113
  46.0444565  52.3640823  56.6030731   8.1668329  17.6501694  86.1334915
   8.5362530  18.5065498  85.9181442   8.8911486  17.0377140  86.0050507
  34.8894730   4.9473224   4.2265749  35.1906052   4.0475540   4.3529372
  34.0996284   4.8627739   3.6925063  39.8533669  68.2594223  57.7630005
  39.0114784  67.8480148  57.9584274  39.9163246  68.9836426  58.3857193
  84.6362381  40.5897751  29.2606850  83.9592590  39.9193459  29.3526344
  84.4501572  41.2156296  29.9606190  37.1282921  47.0128860  82.7698517
  36.6497574  46.1885529  82.6820145  36.4683228  47.6899948  82.6208725
  39.7441483  70.6458359  79.0204620  40.3555031  71.2296143  78.5713730
  40.1566582  70.4719849  79.8665314  21.4446621  46.1815987  32.8860168
  21.6914158  45.6226997  32.1491470  22.1628380  46.8099480  32.9610481
  59.5093002   5.0725198  18.5103302  59.0831566   4.6454058  17.7672234
  59.8397865   5.8976293  18.1550789  73.4348297   1.4372621  21.9407082
  72.8832245   2.2152944  22.0221043  74.1638260   1.5967206  22.5401859
  84.0488739  41.2751846  35.8923035  83.9084549  40.7223892  35.1235809
  84.8527756  40.9370689  36.2868309  45.6515121  60.3962479   3.7197661
  45.1396561  60.9888000   3.1692054  45.2982635  59.5272408   3.5293138
  46.2409286  11.2419577   8.6208620  46.4148026  10.7789068   7.8013601
  46.2663574  12.1686316   8.3824062  39.2681732  20.4047756  13.3456011
  39.8484955  20.2171745  12.6078587  39.6303749  19.8956470  14.0707417
  41.7844887  19.4414501  27.1508980  41.0063858  18.9219532  26.9486198
  42.0276909  19.8432503  26.3168488  81.7344971  38.7926903   6.1070275
  81.9925842  38.5652618   5.2137766  81.4890594  37.9576378   6.5053806
   3.0878079  34.9804535  25.9400520   3.3090131  35.4076653  26.7675705
   3.3561411  34.0696907  26.0614662   2.9561031  41.9037552  62.9067192
   3.3692527  42.7272758  63.1662483   2.1589885  41.8588600  63.4347572
   4.0471277  23.7833595  88.6870651   3.7793641  23.9142838  87.7774506
   4.5709834  22.9824200  88.6696167  69.1928787  31.5661888  77.7222214
  68.7099152  32.3552399  77.9679489  69.9795609  31.8930759  77.2857361
  46.4647789  48.1015434  15.1234770  46.7191429  47.1798782  15.1689167
  46.3741226  48.3703423  16.0376759  40.9053040  70.1308594  18.1958199
  41.2482567  69.3558655  17.7508488  41.1694221  70.8632736  17.6389942
  34.2165222  51.6497726  34.4512062  33.3968048  51.6369286  34.9452972
  34.8918343  51.8048782  35.1116066  74.3531265  19.4115944   5.3657227
  73.4079132  19.5582981   5.4014525  74.6130295  19.7336330   4.5026054
  26.2286053  70.5222549   6.6386137  26.4451351  70.5561752   5.7068429
  26.5891457  69.6876373   6.9380589  60.4608536  47.8251572  57.2498741
  59.9825859  48.3388290  56.5990028  60.5914459  46.9731102  56.8337097
  48.8143044  37.9813652  14.1743221  49.6955223  37.9532471  13.8016300
  48.3306198  38.5759583  13.6009607   8.6280041  70.9924164  81.7769089
   9.3103514  71.6624374  81.8182449   8.0371151  71.2945633  81.0871353
  67.8910675  54.4169617  15.1883688  67.5026398  54.9238205  14.4753141
  68.1474609  55.0729828  15.8365431  50.4199104   1.6472257  84.2753906
  50.0920677   1.2594830  83.4639664  49.7908745   1.3734396  84.9429169
  50.1247635  39.0066910  49.4395981  49.6261024  39.1686325  50.2404327
  50.2495804  39.8745422  49.0555496  49.7212830  10.2229853  86.7721939
  50.0284500   9.8987865  85.9255676  48.7668419  10.1814518  86.7126083
  35.1481056  57.7029915  11.5937223  35.2288246  58.2008057  12.4072933
  35.9657593  57.8738022  11.1262856  11.9784498  62.5262489  14.4663515
  12.2088251  63.0149612  13.6762123  11.3370829  61.8804245  14.1700544
  59.2485695  27.7014904  25.2142296  59.3858795  28.4942226  25.7328377
  60.0068741  27.1517525  25.4117031  83.1370010  28.1533146  81.7508316
  82.2214050  28.0956764  81.4777222  83.5671616  28.6374741  81.0459976
  20.5222187  53.5180206  22.6772461  20.2713833  53.2991219  21.7798061
  21.4053154  53.1613350  22.7728806  63.2280922  22.0092068   8.5663395
  63.0153046  21.2741261   7.9913535  62.8960838  22.7788086   8.1040468
  12.2033005  71.1769333  10.4041796  12.4427452  70.2589035  10.5311480
  12.2077990  71.5497665  11.2857723   8.1162529   9.2288847  44.3181152
   8.1137638   8.3929186  43.8518677   7.1955605   9.4889545  44.3484497
  61.7674789  36.8211823  27.1032734  61.4256783  35.9282303  27.1484756
  61.3839073  37.1843414  26.3050117  10.0023689  51.9495430  79.2527084
  10.8753262  51.8683777  79.6368866  10.0929203  51.5835953  78.3728714
  28.0272636  42.8207817  74.9319763  27.7427254  43.7274857  74.8172531
  28.7471657  42.7151527  74.3100281  63.3559380  70.6988449  23.7705860
  63.9699478  70.3933640  24.4383507  62.5342255  70.2546310  23.9796085
  57.3512917  42.5175858   7.8791218  57.9819717  42.8021545   8.5405531
  57.1248512  41.6229668   8.1333122   9.1797943  68.6433029  74.3692551
   9.4644308  68.2342453  75.1865005   8.2363539  68.7634811  74.4774704
  21.9348755  19.5380363  10.3298111  22.2485886  18.9504642   9.6423693
  21.2162418  19.0601387  10.7438316  60.9939270  59.0734329  10.4250154
  60.5746117  58.3026161  10.0425940  60.8571815  58.9776382  11.3675413
  80.4181137   8.8285971  16.0983028  81.0387039   8.4205179  16.7021008
  80.8512726   9.6349821  15.8183966  78.9905243   5.5022106  46.4345474
  78.8195114   5.1731520  47.3169937  79.2056427   6.4263082  46.5610275
  64.1172714   9.9587250  15.0126762  64.9779053  10.2029886  14.6722822
  63.9351463   9.1073923  14.6148119  37.7056084   2.2114766  74.1060562
  38.2772446   2.7538052  73.5625992  38.2555923   1.9485536  74.8440399
  79.2536926   1.0738217   6.8091779  79.4532700   0.7566486   5.9283824
  78.4881821   1.6366712   6.6933270  44.0597000  60.0154953  11.2761297
  43.1342010  60.2558937  11.2326422  44.2114067  59.8128662  12.1992540
  64.8984756  39.6027527  73.0705872  65.1464615  38.6794167  73.1173401
  65.7308960  40.0751724  73.0815887  73.4136124  35.4535294  31.4995174
  72.8454666  35.1691933  30.7835617  74.2945786  35.2055168  31.2191334
  16.0745029  65.3332672  49.1037292  15.1533546  65.4740143  48.8848534
  16.4716225  65.0324020  48.2864113  55.8110657  15.3491631  24.7552185
  55.7528610  14.9197063  23.9017487  56.5187378  14.8893938  25.2069302
  40.5511436  62.8525352  12.8124924  40.9990845  63.3469887  13.4988556
  41.1361656  62.9077415  12.0568943   7.2446494  33.9235573  80.7537689
   8.1898546  34.0745087  80.7480087   7.1046596  33.3088646  81.4740372
  27.6599083   8.9790411  46.1216965  27.8073864   8.7601080  47.0417786
  27.1180553   8.2634897  45.7891083  21.1460400   3.5779583   5.1070147
  20.5205059   4.2200880   5.4425855  21.8926735   3.6367562   5.7030973
  80.5148010  54.8861008  20.8071404  80.6964188  55.2346725  21.6799221
  80.3025360  53.9647789  20.9565926  74.0954437   2.0627916  80.3413315
  73.2544479   1.6929116  80.0727158  74.6283188   2.0483751  79.5463104
  58.1271858  38.2786102  58.5586662  57.6383553  38.9748039  58.1198120
  57.4533958  37.6839066  58.8881645  26.7113380  36.0120087  15.6451025
  27.5080528  35.7719078  15.1719961  27.0113869  36.2180786  16.5303917
   8.2973595  36.9259949  36.5596390   7.8745279  37.7776756  36.6695747
   8.7217417  36.7588768  37.4011879  64.2751465   6.8205948  84.7320862
  64.6772308   6.1989408  84.1253662  64.4427261   6.4514894  85.5992126
   2.6028571  23.3771439  68.6954117   3.3240166  23.5837669  69.2899475
   2.3369994  24.2243176  68.3378525  57.4731827  64.2556763  60.5877342
  58.2345657  63.9188309  60.1154404  57.3857841  65.1602325  60.2871170
  57.0348206  21.2227135  85.3922195  56.7768211  21.4003181  86.2967148
  57.9727631  21.0384083  85.4424744  40.9289818  15.9840164  13.8806572
  41.1836319  15.3595610  13.2013636  40.6721992  16.7703571  13.3990335
  74.3766098   6.4983912  23.6962624  73.8062744   6.9219580  23.0547485
  74.6097488   5.6617227  23.2939415  12.7483759  55.6044388  68.4790878
  13.3545961  55.3373642  69.1700287  12.5336123  54.7915840  68.0215073
   0.2048836   6.7910309   5.3206906  -0.2455068   6.0464911   5.7194896
   0.4641821   7.3389082   6.0615191   7.5973306  61.1944962  32.1628685
   8.4727030  60.9893074  31.8344574   7.1576333  61.6169434  31.4250088
  21.7208195   7.8757195  84.4092102  21.6238766   7.3960385  85.2318497
  21.8541374   7.1951852  83.7494125  19.8056526  12.6340351   9.9601364
  19.5713940  13.2443962  10.6592894  20.0092220  13.1943703   9.2112598
  21.0819874  58.9602776  12.8403654  22.0261707  59.0810356  12.7395220
  20.9976196  58.1855354  13.3961449  36.8445358  18.9624252  27.0856590
  36.3949280  19.7932320  27.2400837  37.7474022  19.1242123  27.3593178
  69.0309448  58.9614677  23.9814911  68.5515671  59.6009483  23.4547157
  69.8735504  58.8684349  23.5369854  81.7146530  22.0636349  10.7024126
  81.1697388  22.7693615  10.3541975  82.3638687  21.9022503  10.0177879
  68.7347946  63.5450096  54.9675980  68.0569992  62.8826103  54.8332024
  69.5551453  63.0518074  54.9670525  80.2356873  41.0462036  29.1427269
  79.5565186  41.6651993  29.4106998  80.6514587  40.7773705  29.9619293
  57.0443153  26.0403137  72.7105865  56.5591164  26.8642883  72.6672363
  56.4503403  25.3923759  72.3316345  52.0030403   3.7514513  67.1617889
  52.6314621   3.8191195  66.4429474  52.4580078   4.1299706  67.9140930
  85.1099014  37.1895523  68.4534302  85.5065765  37.5147743  67.6452789
  85.8495865  36.8770943  68.9744492  72.6696777  20.3169518  76.6016769
  73.2238464  21.0897026  76.7111435  73.2813950  19.5807476  76.6075668
  23.1231747  33.1617126  24.1919498  23.7217064  32.5995979  24.6839027
  22.3454304  32.6209755  24.0543079  75.3716965  46.7620316  65.5553665
  75.2861938  46.5312843  66.4803925  76.1553802  47.3102760  65.5167160
  30.1504440   6.3593273  86.5264587  30.1836834   7.1977968  86.0659256
  29.2604828   6.3130765  86.8758316  18.0752563   9.4008923  74.4777832
  17.6888809   8.6938610  73.9610062  18.9484272   9.5208845  74.1044083
  81.7739105  24.9844627  78.9460602  82.4954605  24.5289993  78.5122910
  82.0391388  25.0333080  79.8644867  36.9303589  41.9919243  76.6806030
  37.4668198  42.6879005  77.0601501  37.0164070  41.2618599  77.2936554
  63.3008270   5.5293703  10.5280428  63.6092262   5.4259748  11.4282818
  63.8915062   6.1782379  10.1455488  69.6456070  63.9998398  40.8961258
  69.2428360  64.5040436  41.6030807  68.9509354  63.4152145  40.5930176
   0.2269370   8.9134846  35.5871735  -0.1529424   8.2974024  36.2135620
   0.1239650   9.7702532  36.0013885  66.0324478  61.9166756   7.9837379
  66.8854141  61.7770882   7.5723953  65.7043228  62.7235603   7.5868692
  17.4266777   4.1893435  75.1376648  17.4415588   5.0628123  74.7464294
  18.3360901   3.8933907  75.0974960  61.9397011   4.5406756  20.1854649
  61.2865219   5.0263720  19.6817894  61.4575081   3.7987449  20.5505142
  17.7529163  47.6382599   4.1073236  18.1122456  47.4830971   4.9808445
  17.9891720  46.8560638   3.6087401  78.2391129  34.5223427   9.5533495
  77.3352737  34.8249397   9.6413260  78.4305649  34.0939865  10.3876677
  67.7541580  17.1518192  76.9941406  67.3821793  18.0280018  77.0949554
  67.9479828  16.8695946  77.8880157   4.6984615  16.2801743   6.3211994
   4.5699115  16.5745945   5.4195209   5.1419797  15.4361534   6.2366357
  67.4245834  50.2360420  66.2588196  66.6145325  49.7295761  66.1993332
  68.0865250  49.6779213  65.8506851  39.7994308  30.8508682   2.2499607
  39.7236328  31.0475502   1.3162569  40.5620422  31.3519039   2.5391314
  77.0014496  37.9586563  66.0391312  76.5004120  38.5768661  66.5711136
  77.9027176  38.2775574  66.0864258  48.8341751  59.8960342  41.4767418
  48.3083725  59.4840584  40.7911491  49.7148972  59.9466591  41.1052704
  80.8094711  46.3554993  69.9542465  80.7786026  45.4563522  69.6274185
  81.7394485  46.5819893  69.9447708  52.8738861   2.5185628  82.9942703
  52.1012726   2.0472877  83.3060379  52.8383827   3.3618784  83.4457016
  41.0910339  69.8658829  67.3620834  40.2119637  70.0888748  67.0559006
  41.2330360  68.9715652  67.0518188  57.4447556  33.6363029  75.6091385
  57.3941536  32.7503319  75.2503662  58.2751694  33.9807320  75.2804794
  51.4881935  51.8579826  75.2121811  52.2351990  52.4509964  75.2930984
  51.5461578  51.5203171  74.3183975  52.3616714  57.9137001  16.0099831
  52.1650848  56.9775734  16.0453091  52.6378860  58.1341667  16.8995514
  74.5528870  59.7985344  63.7633209  74.6408310  60.7494659  63.8283501
  73.9856339  59.5597725  64.4964294  78.9466476  33.4796333   4.5495162
  78.7931290  34.1369820   5.2281575  79.8989029  33.3887444   4.5151515
  63.1314735  26.8172722  39.0092926  62.4358444  27.4112015  39.2913971
  62.7052193  26.2273121  38.3876114  45.4638786  56.4677391  53.9484406
  44.8004837  55.8771706  53.5915604  45.6853981  57.0474777  53.2196960
  68.4362411  11.4312401  15.4354115  68.9272842  12.1780281  15.7780781
  69.1080093  10.8309593  15.1119461  78.0566025  10.8362198  81.1765594
  77.2051926  10.8188505  81.6136246  78.6923523  10.7513990  81.8871002
  68.3603668   9.3264647  44.5326462  68.9654617   9.3598537  43.7917175
  68.3155975   8.3986492  44.7636986  33.8100700  62.7780380  21.4667721
  33.8447533  62.4316635  22.3584309  34.7221680  62.9696426  21.2486057
  85.4327774  66.2342377  63.1662407  85.8927917  65.6634674  62.5507469
  85.2360382  67.0227356  62.6604729   0.0866149  53.3434639  76.8167267
  -0.0682798  53.8376770  76.0117493   0.9764645  53.0037842  76.7217636
  51.4083176  12.2960329  78.7388916  52.1655006  11.9590521  79.2178040
  51.2275734  11.6290035  78.0765991  82.3860245  36.1587868  15.9247189
  81.4606781  36.2667732  16.1444874  82.6804428  37.0385284  15.6889105
  78.8623428  43.5135345  19.7205086  79.4022369  43.5047989  18.9301472
  78.2767334  42.7632332  19.6188393  66.5763931  14.5034370  42.9611168
  66.4694824  13.7898178  42.3321877  66.9380112  15.2245770  42.4459267
  51.0986061  20.2472973  26.2401237  51.9781036  20.0102787  26.5342903
  50.7566757  20.8090172  26.9356709  53.4424896   7.5979514  39.7946777
  54.1392326   7.1780453  40.2991219  52.6691093   7.5338469  40.3550415
  46.9883003  71.2618408  35.8703003  47.8470383  71.5500488  35.5608788
  47.0999832  70.3287048  36.0520287  69.1807327  54.1020470  58.3286400
  68.8341751  54.9925079  58.2720490  68.9870300  53.8261299  59.2245064
  53.6114197  12.8590822  63.2924080  54.1733360  13.2163668  63.9800339
  54.2090416  12.6695623  62.5691071  55.1334610  30.8194180  26.0131340
  55.8777695  30.8188992  26.6149960  55.4011536  30.2389355  25.3006649
  58.4547806  39.0534286  44.9013252  59.0832062  39.6338921  45.3307152
  58.3908005  39.3891449  44.0072136  54.9234428  24.5274124  16.2885723
  54.7880287  24.6195297  15.3454885  55.3620110  23.6822071  16.3861389
  83.7633133  48.0284920  36.7798042  84.3409195  48.7140045  37.1154823
  84.3305054  47.4829941  36.2348671  10.1855211   0.5814958  23.0919666
  10.9617138   0.1853185  23.4879475   9.7993526  -0.1202386  22.5678730
  14.6685600  63.0232430   1.5683340  14.3543034  63.9057045   1.7651502
  14.3672132  62.4917908   2.3052037  70.3908310   5.2948480   2.9405153
  69.6417160   4.9085655   3.3942235  70.3319321   6.2303467   3.1344357
  73.2742844  67.8817596  84.1003876  73.2785187  66.9276428  84.0237961
  72.6874466  68.1753845  83.4035034   7.9108620  41.8165054   5.0345116
   8.6774607  42.0006256   5.5773358   7.8203411  42.5898132   4.4777045
  77.5573959  55.4779510  75.3171005  78.0202637  54.6402969  75.3348846
  76.6304855  55.2398796  75.3369751  84.3821564  25.8765240  45.3939133
  84.0297623  25.4330902  46.1655464  84.5594025  25.1706924  44.7721252
  74.4593887  22.0757046  78.2367935  74.0721588  22.9510822  78.2388000
  74.4174271  21.7931499  79.1503754  85.5463715  30.3881092  20.8867531
  84.9649811  30.7633953  21.5480995  86.4020844  30.7744370  21.0731258
  86.0682602  59.1663513  35.0844879  87.0027390  59.0831413  34.8945885
  85.8665009  58.4072304  35.6315346  64.3088608  41.8397064  47.2939186
  64.7306137  41.8681755  46.4351120  64.7989960  42.4695129  47.8224487
  52.9106178  50.3809929  84.7702026  52.0547218  50.7712173  84.9473953
  53.5032158  50.8143425  85.3844147   4.4645357  70.1477661  47.5608749
   4.6841063  69.2279510  47.4127045   3.8607824  70.3672028  46.8512535
  21.9597988  30.7727909  86.9740219  21.6189537  29.8822708  86.8901749
  22.8900814  30.6940575  86.7628098  84.0917282   6.5806642  87.9039001
  84.0738907   5.7314796  87.4625397  84.5388870   6.4103665  88.7329254
   3.6480141  56.7960434  44.7991180   2.9195006  56.2334557  45.0617905
   3.5800793  56.8463593  43.8456612  55.7429237  47.7386475  62.3131104
  54.8537521  47.4720688  62.5466576  55.8890152  48.5448914  62.8079453
  77.7072067  50.4533157  20.3882408  77.7611847  50.1919823  21.3074913
  77.2164078  49.7476692  19.9670486  83.9579773  68.2144394  71.8494186
  83.9971008  67.2866745  71.6171417  84.7389908  68.5950546  71.4476852
  59.1377411   9.4054995  72.6867065  58.9162178  10.1114826  73.2939529
  59.2484207   9.8420105  71.8420486  32.9066772  69.6786118  37.7859688
  32.4494057  68.8378983  37.8041039  32.2855606  70.2974243  38.1700516
  53.8685265  34.6223221  75.5616379  53.2455482  33.9040070  75.4514084
  54.2207947  34.5006714  76.4433060  76.3930588  30.2434807  80.0790939
  77.0880966  29.6037998  79.9243164  75.8451385  30.1961040  79.2956619
  50.6739464  42.0978889  74.5604248  51.3815002  41.5250931  74.2646103
  49.8846855  41.5613976  74.4864426  29.4715309  35.9191055  76.6297684
  28.8857555  36.6433144  76.4092636  29.4060097  35.8392830  77.5813828
  11.4103298  50.7873726  34.2195168  11.2592869  50.1592674  34.9258461
  10.6270161  50.7259560  33.6728172  61.7899284  52.7739754  50.0556259
  60.9251938  52.5464859  49.7139854  62.0960503  53.4775543  49.4833527
  31.8146324  49.9816437  73.8003235  32.3936996  49.4651566  74.3608170
  32.3211250  50.1259995  73.0010376  80.6817627  22.5767326  14.5076246
  80.9473114  23.2030067  15.1810484  81.2342834  21.8104763  14.6619225
  79.3752899  57.4616661  19.5262108  79.6578598  56.6258888  19.8975067
  78.7761307  57.2196884  18.8200378   9.3870726  25.6027946  60.3736572
   9.2974253  24.7926350  59.8718224  10.3246031  25.6699181  60.5546608
  29.5083141  32.5293503   1.7201743  30.3535690  32.2764206   1.3489558
  29.2860813  33.3469086   1.2747028  86.3176041  58.5290642  24.5941410
  86.7327576  59.3915405  24.5978146  85.5695114  58.6258507  24.0048923
  72.2129440  29.8551216  22.8949165  71.8685608  30.5058212  22.2831764
  71.7774048  29.0395050  22.6473103   6.0146918  66.6732788   8.6564236
   6.7594209  66.5925369   8.0605278   5.3293161  67.0835495   8.1290102
  18.0979290  57.2390480  42.8936462  17.5800934  57.3230782  42.0930099
  18.9014568  56.8002930  42.6142387  85.0904846  15.8323145  28.2299862
  84.8409348  15.7105427  27.3139477  85.5533447  15.0270061  28.4612160
  74.5110626   4.2519865  78.2267914  74.2105789   5.0939584  77.8847046
  74.2153015   4.2440047  79.1371155  82.1934357  10.6370897  51.0424919
  81.2565918  10.6840124  51.2331619  82.5538940  10.0953436  51.7444992
  68.3696976  31.9133759  39.0935402  68.7539062  32.5868187  39.6548691
  68.8493500  31.1150589  39.3145790  15.2560616  38.0571022  25.3185997
  15.2184553  38.4079247  24.4288025  15.0089006  38.7940216  25.8772507
  38.7869835  46.3453827  71.6564865  38.4484596  45.4662323  71.8259888
  38.0193939  46.8497620  71.3869705  50.2718315  51.3408394  79.7573013
  50.0013008  52.1298027  80.2269669  49.4887962  51.0655823  79.2805176
  22.2120934  56.2987328   6.0744448  22.8784580  56.7915268   5.5955462
  22.5024471  56.3268433   6.9861112   4.8952622  69.8972702  71.0639343
   5.3107753  70.7581100  71.0135956   3.9565027  70.0842285  71.0666809
   8.9575329  67.5524445   0.3627439   9.2664146  66.7550278   0.7928119
   8.1820984  67.2761383  -0.1257132  18.9964848   1.9244062  82.0956802
  19.6887531   1.5678858  82.6523590  19.1427879   2.8702829  82.1076813
   3.7283299  43.9447784  89.0766373   2.8397784  44.1150055  88.7640152
   4.2790551  44.5411491  88.5694122  66.7408447  57.2626953  43.3019409
  67.0968246  57.5073166  44.1561508  67.4605560  57.4158974  42.6897507
  11.1231298   2.0966892  46.9106407  11.9994268   1.8217157  47.1803169
  10.6054411   2.0698271  47.7153206   6.1366329  48.6181679  53.2800865
   6.1069365  49.5732918  53.3356171   5.2388701  48.3397064  53.4609604
  70.7296448   8.7779436  23.1941433  70.5186996   9.3455124  22.4527931
  70.8329468   9.3775721  23.9330654  51.6490707  47.7791023   0.8799831
  50.7716599  48.1616287   0.8723952  52.0330658  48.0439720   0.0441474
  48.3798943  38.6341858  20.0468426  48.2450790  38.0272522  19.3190460
  48.4679565  39.4915924  19.6305141  83.4174118  67.1663513  10.7659454
  83.7188110  66.6048584  11.4801702  83.3785477  68.0422745  11.1499643
  77.7417908  54.0403290  45.0015678  77.1005783  54.1263351  45.7070312
  77.2873764  53.5387154  44.3247185  29.1492538  66.6630783  33.9356422
  29.8609104  66.4355240  33.3373146  28.8529339  67.5235977  33.6390953
  81.5299149  54.2456322  51.9156952  81.7072678  54.1621056  50.9787827
  81.8204651  53.4137459  52.2895584  82.0519943   8.9917507  33.3051949
  82.7304001   8.3467712  33.1052170  82.4644012   9.5868673  33.9312859
  49.1870766  41.7481194  53.7657776  49.3279839  42.6091347  54.1595192
  48.4457054  41.3824844  54.2483826  21.3872395  22.7820740  79.2799988
  21.4748840  23.1266346  80.1687241  20.4493008  22.8313713  79.0954132
  18.8775711  42.5635910  27.3317165  19.1176968  41.9504166  28.0264034
  19.4561005  43.3145218  27.4645405   3.4401720   9.1252317  47.4466019
   3.1143599   8.5820551  48.1642647   2.6811347   9.2498989  46.8769073
  46.4837379  16.7801056  10.1437426  45.7867966  16.2020779  10.4542017
  46.0341873  17.5909996   9.9058599  69.1843719   7.1256361  88.7700348
  68.2953796   7.1679921  89.1223602  69.4486771   6.2142839  88.8957748
  67.4562073  36.7884827  70.3926697  67.7839966  35.9966431  70.8190155
  66.5491714  36.8623199  70.6894226  53.1915779   6.5558753  72.5203857
  52.7202492   6.7485585  71.7098541  52.5614510   6.0725360  73.0547562
   4.6438470  20.9678822   3.2356434   4.0252552  21.3988628   3.8254154
   4.1979184  20.9547920   2.3887618   1.1377159  26.6745033  79.1114807
   1.4047118  27.2613087  78.4039459   1.1054593  27.2340660  79.8874207
  81.4088516  60.0811005  49.5693626  81.9025116  59.5527229  50.1965408
  81.8477554  60.9317245  49.5749779  67.2757187  43.2876701  50.9576797
  66.8018799  43.8742485  50.3680725  66.5900116  42.8497162  51.4618874
  26.1063290  64.6742325  69.5872421  25.9543724  64.9390564  70.4944382
  26.5739765  63.8418694  69.6558380  77.5614624  59.0474510  22.4473572
  76.8856201  59.0897827  21.7708359  78.2861252  59.5638580  22.0946178
  62.5858345  13.8218126  20.2255859  61.7125893  14.1290016  20.4691238
  63.1695862  14.2259827  20.8675461  30.0450516  68.9671326  10.2239752
  30.6091709  68.3223038   9.7971334  30.0360889  68.7053909  11.1446514
  22.9192753  52.5762405  31.3014603  22.3276100  53.0039368  30.6823978
  23.7413826  53.0597153  31.2200966   3.2667046   3.3253872  58.3844566
   3.4829099   2.9282913  57.5407715   4.0676990   3.2402117  58.9015465
  72.2578201   9.1312428  64.1904526  72.8411407   9.8735952  64.3481979
  71.7429428   9.0562611  64.9938889  85.3295059  50.7224007  79.6608353
  85.8637543  49.9954109  79.3410034  84.4270630  50.4397011  79.5128098
  54.5917702  59.2590942  58.3864937  55.3688927  59.5564804  58.8596420
  54.7676849  58.3386078  58.1915741  58.4726410  31.0303211  34.6076317
  59.2573700  30.9961815  35.1546860  58.3783684  31.9556427  34.3815269
  58.6605644  38.7789421  19.8956680  58.8144722  39.0386467  18.9873199
  57.7868767  39.1147423  20.0960331  56.7152939  23.1974430   3.9725292
  56.7644005  22.7268505   4.8046122  56.1406403  23.9416618   4.1518192
  10.6586695  45.2545433  71.0454254  10.2848377  45.4966393  70.1981583
   9.9835348  45.4909706  71.6814499  59.2456398  35.4576454  68.3275604
  59.5580788  35.3004570  67.4365463  58.3543282  35.1087074  68.3338776
   0.4071794   0.9225494   0.0914940   0.6753634   0.6121101   0.9563273
   1.0311663   0.5191039  -0.5119162  18.2300797  68.6874466  47.0632896
  18.2305450  68.7289963  48.0195885  18.6442928  69.5052338  46.7878151
  85.4372482  43.6116600  66.3949509  86.3738251  43.6295929  66.1981354
  85.1702805  42.7117805  66.2073898  86.3176575  49.4523926  65.4598083
  86.7130585  48.7023621  65.9040451  86.5057678  50.1962166  66.0321503
  68.0969925  12.2476215  78.8848953  67.8866043  11.6403646  78.1755219
  67.5327759  11.9752626  79.6085739  36.1901627  50.2511063  30.6435013
  37.0078773  50.7109108  30.8336601  36.4472084  49.3337479  30.5507145
  85.3362274  25.7634773  78.9635544  86.2577209  26.0133553  79.0316544
  84.8865356  26.5716171  78.7167358  52.5398140  67.5172272  67.9080887
  53.1758308  67.8701019  67.2858353  51.7757072  68.0867310  67.8184814
  30.9657154  69.3494797  51.9722710  30.8390999  69.5509644  52.8994217
  31.7922955  68.8676987  51.9425735  34.9056778  47.8301773   8.2810030
  34.1633072  48.2310753   8.7331095  34.9775772  48.3171997   7.4601068
  18.9557343  30.6544209   4.4113517  18.6827297  31.3931770   3.8673453
  19.3290234  31.0587654   5.1945457   2.4972947  49.3165054  42.7998657
   3.0318449  49.6535721  42.0809250   2.5776646  49.9768715  43.4881134
  83.8946915  45.0705338  41.3372078  83.2614288  44.4149971  41.0448341
  84.7375488  44.6175995  41.3113098  73.8641815  59.4539108  41.4830780
  73.5579376  60.3551636  41.3821373  73.7984085  59.2823982  42.4224892
  15.3658981  43.0993576  49.8262978  14.8309965  43.2740746  49.0519676
  16.1456413  42.6615143  49.4849358  16.6850471   6.7957053  79.7136154
  15.7675638   7.0331511  79.5791702  17.0080166   7.4366927  80.3469086
  61.0255165  12.4492035  79.6509628  60.5056152  13.0586185  79.1269913
  61.0536499  11.6477184  79.1284103   6.1816139  54.3953743   1.1530408
   5.5984092  53.6454811   1.0357087   6.9479070  54.0352783   1.5995352
  78.7497025  63.3772583  57.4126053  79.3108978  62.9502907  58.0599022
  78.1002045  62.7126312  57.1831284  78.2004318  10.7467871  12.4297619
  79.0202103  10.9588318  12.8761244  77.9115601  11.5775137  12.0520353
  46.6461372  24.1003361   2.7172081  46.9773712  23.4945431   3.3801782
  45.7041588  24.1436462   2.8816071  84.7425079  27.6030140   3.8054128
  85.4377060  28.2595329   3.7616260  84.0567322  27.9416027   3.2298329
  36.1496010  62.3876228  40.9433327  36.3127899  62.4577179  40.0027542
  35.1968727  62.4308205  41.0250015  18.6581440  17.2708168  24.7610645
  17.9971046  16.5866852  24.6551418  19.4751854  16.7939072  24.9067707
  26.7331390  40.3703194  75.7605057  27.1680031  41.1357803  75.3847504
  25.8002167  40.5804939  75.7191162  78.0418091   0.5194246  67.2161713
  77.2389221   0.7278075  67.6938477  78.5795975   0.0424243  67.8482208
  84.3675537  14.7451048  59.6044807  83.9381104  14.0645437  60.1227875
  85.2131500  14.8752947  60.0337296  19.1246128  61.2011070  18.6583328
  18.9947166  60.4694977  19.2617474  19.4632912  61.9077415  19.2080593
  65.2262802  67.1945648  24.5182972  64.2921066  67.4017487  24.5431442
  65.5621719  67.5015182  25.3604279   7.5785027  31.8669510  13.6648407
   7.8895545  32.7128105  13.9873371   8.0663557  31.2214985  14.1763296
  84.2846451   1.0107610  32.4339714  85.1798019   1.2620180  32.2063599
  84.2172318   1.1883659  33.3721313  38.4674835  65.7829895  79.6545105
  39.2602692  65.5143890  80.1188126  38.4992599  66.7396469  79.6599045
   4.5319309  33.1544533  75.4615021   4.7128482  32.6229935  74.6862259
   5.3245840  33.0803909  75.9929581  50.2466812  64.7927094  56.6265030
  49.9881935  63.9230576  56.9316521  51.2028122  64.7879181  56.6714630
  36.9547539  29.7257519  15.3656731  37.5762138  30.3610172  15.7212820
  36.7846718  29.1250725  16.0912685  76.6996155  10.3189077  73.2407532
  75.8734970  10.6402769  72.8795471  76.9635544   9.6162920  72.6467056
  78.1970673  23.8572884  33.1687813  77.2690811  23.9057350  32.9391670
  78.3414307  22.9371777  33.3896637  84.6811218  33.6096573  77.9330444
  85.4265366  33.0226326  78.0595169  84.6311035  33.7324524  76.9850693
  47.4644585  65.9449387  82.5254822  46.6943741  66.3837585  82.8869247
  47.5442123  65.1403885  83.0378876  68.4393768  17.5620556  35.5608711
  68.3245087  17.8160591  36.4765778  67.8959274  18.1793385  35.0711136
  69.8508377  34.2443657  64.6125717  68.9422379  34.0322914  64.8263550
  70.0779877  33.6399117  63.9059830  22.4726620  50.6095734  51.1120720
  22.9457836  49.8163528  51.3634491  21.7258625  50.2922478  50.6043053
  23.6377354  62.9476738  52.3370514  24.2465992  63.6698952  52.4917030
  22.8998623  63.1275444  52.9196510  76.4612961  30.8921318  51.7289238
  77.2873993  31.2817020  51.4425354  75.8463516  31.6252785  51.7529030
  61.0180473  57.8256645  46.9860268  61.6707916  57.1368141  47.1111031
  60.8688354  57.8454475  46.0407333  59.5243034   7.9646754  17.9449406
  60.2109528   8.5349140  18.2907295  59.0810699   8.4969578  17.2842941
  75.9496460  49.3906898  63.0390930  75.1465836  49.0469284  62.6477432
  75.6542587  49.8582191  63.8203735  46.5010490  24.3314438  63.7957230
  47.3077927  23.8619289  64.0077515  46.7098961  25.2515144  63.9572296
  32.6063766  59.0899429  74.4486542  32.6616516  58.9417953  73.5046005
  33.3050499  59.7174416  74.6339417   5.1988482  12.6284065  87.0936890
   5.6629796  12.9757605  86.3320084   4.3693213  12.3053665  86.7418900
  84.7202225  31.5124073  33.7710419  84.5498123  30.6753387  34.2029076
  84.0698929  31.5570545  33.0701065  54.4458275  41.7620735  15.6803713
  55.0623436  42.1280861  15.0461998  54.7167931  42.1337471  16.5198174
  47.8220177  11.5454082  68.9485016  46.9853134  11.1186476  68.7640305
  47.6210403  12.1789093  69.6373520  19.9315243  16.3517513  22.6426506
  20.2059746  17.1666203  22.2220592  20.5632763  16.2227783  23.3501034
  73.9138031  60.5395584  30.0883217  74.4360733  61.2110634  29.6495190
  73.9077835  60.8039742  31.0082569  13.4085617  56.1886597  32.3778343
  13.8348961  55.5213432  31.8400936  13.4056187  56.9727516  31.8288155
  84.1348343  27.1718121  66.2777863  83.5957031  27.6080437  66.9375381
  84.0005264  26.2377472  66.4381485  29.2254295  62.4521332  48.5727921
  28.7640171  62.1377602  47.7952957  29.9258423  63.0060234  48.2280350
  55.7531776  47.4564552  57.0481262  55.3367310  46.8267822  56.4596405
  55.9229355  46.9600334  57.8487396  53.7272606  20.0089512  11.3293991
  53.0297050  20.5887661  11.6351166  54.5101700  20.5596085  11.3214922
  28.9569607  61.1220741  52.7027092  28.1362953  61.1350899  53.1952248
  29.5596046  60.6235657  53.2545624  12.7612934  68.5908890  11.0641537
  13.6612988  68.2667770  11.0984144  12.2599239  67.8664551  10.6899090
  69.0321808   2.6381004  33.1392593  68.8155746   3.5685530  33.1990051
  68.4308472   2.2124686  33.7503738  58.1054497  66.9368591  31.0431824
  57.3799248  66.6123199  31.5765877  57.8458405  66.7432098  30.1424408
  77.3901901  57.3474655  56.4356384  77.5525436  57.3293839  57.3787956
  78.2587738  57.2670670  56.0415077  51.2580338  65.5725708  29.7259579
  50.5176659  65.7737274  30.2983437  50.9141541  65.6877975  28.8401260
  69.3289490  28.6959534  78.1921463  69.9146729  28.3195019  77.5353012
  69.4308701  29.6421890  78.0897598  35.9626579  40.8753700  11.8419209
  35.4598198  40.3135757  12.4316435  35.3194275  41.4918022  11.4919310
  31.6180592  71.2133408   9.8784943  32.2339516  70.9346848   9.2008085
  30.9236317  70.5549240   9.8564177  73.0054703  35.8206596   3.0658712
  73.1605225  35.9902000   3.9950905  73.2055664  36.6512413   2.6342163
  22.9026451  42.0401306   5.9119053  22.3562202  42.7762070   5.6365037
  23.2257977  42.2922058   6.7769270  45.1098747  70.0549774  25.3743668
  44.8719025  70.7868500  25.9435406  44.2976723  69.5595322  25.2690582
  51.5543289   3.8377335  75.6791916  51.9390602   3.5812287  74.8410873
  51.6682701   4.7874765  75.7143707  68.5156021  62.3032990   6.6316695
  68.7967682  62.8032417   5.8653569  69.2989273  61.8275414   6.9078679
  85.7761002  50.4425774  59.8302956  85.0942612  49.8050957  59.6183014
  85.9392548  50.3168449  60.7650719  13.3233261  70.4073410   6.6428051
  13.7681723  71.1232376   6.1891050  14.0324736  69.8734512   7.0009947
  27.0715828  63.3271675   1.4485359  27.8102245  62.9423141   0.9768061
  26.8303165  62.6653824   2.0966611  84.4025116  10.9832296  27.5074596
  83.6157455  10.5224819  27.7989140  84.6455536  10.5486698  26.6899509
  25.4790649  62.3835564  79.2355347  25.5765839  63.2422829  79.6470032
  24.5466156  62.3217773  79.0282822  79.9343719  30.0212383  61.9841690
  79.6449280  30.1095543  62.8922729  80.8664780  29.8133698  62.0490227
  70.7679596  17.4278336  78.3049850  71.4756699  17.2286606  77.6920319
  70.2540588  16.6214142  78.3477020   6.0852137  67.8718185  22.4706078
   5.1757584  67.9661407  22.1873665   6.2183027  68.5882721  23.0912704
  84.5698395  57.8579063  10.0602694  84.0624008  57.4863243  10.7818384
  84.6194534  58.7929459  10.2589417   1.9934939   5.6684098  57.9386177
   1.6904012   6.0750923  58.7503929   2.2126143   4.7705679  58.1878128
  84.0325470  42.5434151  22.7877960  84.7253647  43.1868591  22.9368477
  84.1377029  42.2860603  21.8718586  28.3545475  37.6658936   5.4177222
  27.7184563  37.0779037   5.8250179  29.1949062  37.4100952   5.7979798
  86.0526733  43.8128777  37.4347496  85.1087646  43.8328667  37.5924339
  86.4259186  44.3283081  38.1497650  62.5454712  64.8250732  12.5066442
  62.3531303  64.1124268  13.1160421  61.7211151  65.3058853  12.4325237
  41.9441414  20.3569603   5.7619185  41.7481689  21.2517185   5.4840102
  41.5104103  19.8039112   5.1121149  11.3090725  67.4658356  29.3002701
  12.1640320  67.1135483  29.5476017  11.4712849  67.9361725  28.4825306
   0.0712677  12.6714430  66.2593765   0.8590134  12.4154377  66.7391129
  -0.5250223  12.9963436  66.9339905  24.7925587  52.8729210  34.4525833
  25.6970081  52.7117958  34.1838036  24.4319019  52.0011787  34.6145210
  27.1060390  30.7805519  23.2000179  27.5323029  29.9237442  23.1798229
  27.0842609  31.0154285  24.1276970  64.3778839  21.0481014  16.4513817
  64.0266876  21.9377117  16.4128399  64.7573624  20.9781513  17.3273582
  72.7298584  32.6522942  66.0553436  71.9349289  32.2098618  66.3529510
  72.5407791  33.5841713  66.1653061  10.5980997  30.6007500   2.4432957
   9.7464943  30.5244370   2.0129755  10.7125587  31.5407791   2.5828466
  45.8493233  64.3475952   9.7867289  46.5558357  64.2719803  10.4281006
  45.4628716  63.4725685   9.7518244  20.6599369  65.3250885  69.3179398
  20.5839462  66.1934662  68.9224777  21.1600571  65.4705658  70.1210251
  54.8652267  14.3352060  32.4290085  54.9991989  14.7786026  33.2666740
  54.0751343  13.8107834  32.5592690  54.0125847  70.1140976  41.7530251
  54.8333435  70.6023712  41.6883888  53.5061989  70.3948669  40.9908066
  28.5014153  63.9551849  42.1675224  28.2505627  63.1655579  42.6468925
  27.6961212  64.4700394  42.1159439  31.5691700  50.4599609  56.1256294
  32.3191833  50.9551086  56.4550781  31.3966141  50.8333855  55.2613335
  44.1944199  64.6706543  25.3762360  43.9794960  65.5137711  25.7752247
  43.8312607  64.7244949  24.4922409  55.3607750   1.6748557  83.5719833
  55.7052917   2.5121679  83.8825455  54.4877663   1.8835640  83.2395248
  14.5569153   4.4761276  24.6888351  14.4478302   3.8621264  23.9626560
  13.6807003   4.5605206  25.0648098  43.8293991  57.3427048   8.2022228
  44.3060875  56.8393745   7.5421791  43.0196266  57.6052513   7.7645292
  16.2813606  46.9939079  52.4598923  16.1193714  46.0578461  52.3425026
  15.5831985  47.2861595  53.0458908  58.0049362  36.3624992  88.5341415
  58.2501640  35.6569786  87.9355316  57.0677261  36.2361374  88.6821213
  60.7821579  45.0864830  49.0180435  60.8618431  44.1707916  48.7508469
  60.7297096  45.0535660  49.9732361  17.7899570  39.6133957  69.8779297
  18.4746380  39.3698158  69.2549438  18.1017113  40.4292793  70.2695618
  36.0484543  70.3042221  88.9006195  35.2048683  69.9715500  89.2070770
  35.9667778  70.3220825  87.9470749  86.6396332  68.2493057  77.3181763
  85.7785492  68.0281143  77.6729202  86.5868607  69.1858978  77.1277924
  36.6811333  16.4758015  14.9681349  35.8194580  16.0589848  14.9650917
  37.3001099  15.7460575  14.9920969  39.2066612  45.3381348  10.5406256
  39.9160156  45.9592705  10.7056799  38.4994354  45.8726501  10.1795807
  12.7063179  45.4161987  12.4936905  12.8466787  45.7218170  13.3898649
  12.0963392  44.6839676  12.5831127  72.7325363   3.9610558   3.7571390
  72.3757401   4.8480363   3.7102938  71.9936142   3.4200521   4.0356045
  84.2199936  24.3339653  13.4664259  83.3847351  24.6556282  13.8056936
  84.7519455  24.1792297  14.2470150  25.4246292  47.4420853  86.1433411
  25.8471985  48.2452049  86.4477463  24.8148708  47.7342644  85.4657974
   0.0339671  48.1241608  79.7069702   0.3522292  48.4144020  80.5617752
   0.0724087  47.1686554  79.7488861   1.7234324  49.0927391   1.0922112
   2.5543368  49.5430412   0.9403683   1.0566411  49.7188263   0.8100125
  57.5667725   5.0044227  52.9130402  56.7762794   5.2907944  52.4555054
  57.9981041   4.4114509  52.2977600  66.1481628  28.8895283  21.0433254
  66.1125107  29.5440693  21.7408485  66.8405380  28.2871399  21.3153076
  37.2131004  44.2689590  12.5088081  38.0922165  44.4513016  12.1769419
  37.2504654  43.3571320  12.7976084  66.7744827  14.3858013  13.6839066
  66.4712219  15.0803356  13.0991964  67.7045364  14.5711670  13.8138056
  84.1879044  32.5000992  59.7256737  84.2921371  31.8802090  60.4475517
  84.1808090  33.3595047  60.1471024  70.9324188  37.7612000  20.5428238
  70.0759735  37.6856613  20.1220837  70.7328949  37.9391747  21.4619236
  50.9520035  33.8635979  63.0065422  51.0641479  33.4461670  63.8605957
  51.2447014  33.2042427  62.3774033  18.9713516  59.3868980  57.4714508
  18.8570137  60.2120209  56.9999313  19.8046379  59.0415039  57.1511917
  86.3643646   3.5710359  37.4852791  85.8340302   3.9990606  36.8131409
  86.8850403   4.2783022  37.8659325  12.9744244  21.4878559  85.1410446
  13.5622110  21.5355206  84.3870773  12.6087770  20.6040154  85.1041870
  63.1265717  67.0448303  88.8512573  63.9744301  67.3582764  89.1660919
  62.7805481  67.7707901  88.3321457  28.8638134  52.1448021  46.3093910
  29.2267914  52.8296089  46.8711014  28.2301025  52.6004257  45.7552719
  56.3718452  47.0193100  19.6036663  56.8577156  47.5358887  18.9607773
  55.9395180  47.6701965  20.1565437  77.2764511  43.4889297  88.6224289
  77.0427628  44.4162025  88.6647034  78.1467133  43.4791794  88.2239532
  61.8604774  11.4289474  62.9004707  62.3484459  10.6961384  62.5248222
  61.1774483  11.6169491  62.2567673  58.7254562   3.0612602  40.3594704
  59.5881996   3.4720464  40.4157219  58.9101105   2.1243355  40.2938385
  57.1798630  45.8206100   2.4904895  56.9890480  46.3359642   1.7067620
  56.3574486  45.3727837   2.6887712  69.2306290  61.8687057  20.2367687
  69.4980469  60.9915962  19.9621811  69.2542648  62.3887596  19.4335175
  37.7653809  13.1913452  21.2896137  37.5006905  12.2821283  21.4292431
  37.2881012  13.6848726  21.9565983  19.5760326  39.6135788  67.3068924
  19.6642151  40.5389099  67.0783844  20.2400036  39.1718178  66.7775269
  76.5085907  51.1697769  11.7611237  77.4650879  51.1372604  11.7443848
  76.2459946  50.9568024  10.8656263   5.4968524  20.9096584  31.4729538
   5.7703605  21.2328625  32.3314209   4.5411463  20.9597912  31.4915104
  40.7336655  45.7525291  64.8242111  39.8204422  45.4817810  64.9188232
  41.0084114  45.9827309  65.7117691  69.2456055  38.9691162   7.9656148
  68.8353119  38.3801804   8.5988951  68.5111237  39.3995323   7.5280042
  28.1795311   5.6982937  47.2231331  28.9230576   6.2190180  47.5268517
  27.4158573   6.2503152  47.3913803  16.1374454  42.2931328  22.9268703
  17.0087318  42.3717575  22.5384007  15.5621614  42.0977554  22.1872044
  13.9473038  45.8021622  49.5429192  13.5242367  46.6171532  49.2726669
  13.5010262  45.1219482  49.0385590  84.1602631  63.7910767  66.1008377
  83.6444473  64.5546799  65.8418732  84.6829300  63.5814133  65.3268280
  29.8696594  68.8933716  61.1270981  29.1320038  68.6723328  60.5585556
  29.6297779  68.5340729  61.9812622  81.5402832  32.6433868  71.7181931
  82.3853531  32.9443207  71.3842239  81.6572952  31.7030392  71.8534164
   1.4506601  19.5112953   9.9005632   1.6644536  18.5862103  10.0219784
   2.1858253  19.9807587  10.2947321  44.2703018  25.0270519  69.4246521
  44.5300941  24.3231869  70.0190506  45.0316772  25.6062546  69.3920441
  26.5378189  33.1279984  14.7595930  27.1311016  33.1488304  15.5104685
  25.8942299  33.8121719  14.9438028  17.9190216   1.4625543  87.7644272
  18.3176556   0.8651246  88.3972015  18.6406078   1.7200218  87.1906204
  76.8487473  64.7509384  67.1686478  77.1080246  64.2011871  67.9080887
  77.3807297  65.5414581  67.2597961  25.7364120  61.6632004  37.4077301
  25.2683201  62.4357605  37.0910721  26.6046963  61.9894333  37.6441345
  86.0031662   9.1502314  69.6643524  86.3869553   9.5270805  70.4561310
  86.6855011   8.5753794  69.3176651  46.0751953  47.3029633  11.0466881
  45.8029442  46.3858643  11.0789146  46.8179970  47.3535805  11.6482801
  43.5063057  49.2860413   3.3870754  43.4494057  49.1508064   2.4411867
  43.5130920  50.2373352   3.4930358  80.3708801  16.6694489  79.3785248
  80.9448853  17.4354057  79.3860626  79.5477982  16.9832649  79.7530746
  56.1223831  21.7734241  80.5913086  55.2137146  21.4783134  80.5324554
  56.1414986  22.3372173  81.3646164  27.2689953  38.2165985   3.0647385
  27.6837769  37.7569199   3.7947273  27.9799767  38.3678894   2.4419649
  66.6643600  69.5054703  14.6852798  66.8697052  69.7080688  15.5979786
  65.9572525  70.1096725  14.4590635  34.2077103  58.9977150  68.5082169
  33.4288902  58.8453674  67.9729996  34.9279518  59.0321999  67.8787003
  21.1934090  64.3311386  50.5709229  20.3233414  64.7234497  50.6437607
  21.2670517  63.7671394  51.3408012  55.5327644  39.7900581  55.4880524
  55.7968521  38.9237022  55.1783524  55.4749184  40.3210106  54.6937141
  32.9452591  64.9057846  84.3822479  32.0515404  65.1059494  84.1039810
  32.9525490  63.9558105  84.4993973  73.5133438  59.9080086  54.2428284
  73.7838440  60.6349525  54.8037338  74.2694702  59.3211975  54.2299728
  15.3353376  40.9755516  57.4579544  14.7221384  40.2710991  57.6676254
  16.1422234  40.7339897  57.9127197  49.7510033  44.9213371  63.8851357
  49.7392540  44.9052086  64.8421249  48.8444290  45.1030884  63.6375046
  74.6416702  41.4899216  21.6092472  74.7611618  41.9610596  20.7846375
  73.8361206  40.9883003  21.4839401  78.7592850  18.5275173   8.8891382
  79.5001373  17.9216747   8.9072304  79.0288849  19.2175083   8.2829542
  57.6571045  49.8765106  22.2742519  58.3001938  50.0051498  21.5770302
  57.6588936  50.7029457  22.7571964  39.5349045  33.4972305  74.2418213
  40.0613136  32.7676315  73.9150085  39.4924278  34.1097488  73.5074844
  50.1389351  45.3288383  71.5307388  50.6707039  45.4809723  72.3119659
  49.4629669  44.7145615  71.8170166  82.7491989  13.2778406   0.9250948
  81.9900589  13.8202047   0.7111401  82.4983749  12.8207111   1.7278085
  24.9774590  27.3986778  22.3283539  24.5430202  28.1453152  22.7406960
  24.7228374  26.6475201  22.8642292  11.3499508  36.6401558  87.5783920
  10.6021671  36.9710808  88.0759277  12.0748882  36.6457787  88.2034302
  70.3444138  28.9823971  89.2129211  69.4938660  28.6556759  89.5062637
  70.1384659  29.5611973  88.4788895  15.2619114  55.7809639  25.5776291
  15.5811415  56.4643784  24.9883308  14.3122301  55.7859535  25.4580002
  65.8885345  26.5405216  58.5254784  66.4123688  25.8231430  58.8821335
  66.2216721  27.3223400  58.9659500   8.9435396  67.2253647   4.1218495
   8.0997362  67.6089706   3.8829453   9.5309505  67.9757690   4.2116847
  14.4863262  26.8702431  74.2496338  15.3048458  26.4056664  74.4240723
  14.3089685  26.7036495  73.3238831  45.0385818  18.0444469  59.6158600
  45.7006912  18.7339783  59.6647797  45.2488060  17.5670357  58.8132896
  86.3331375  22.4077396  21.7147350  86.0212631  21.9420757  20.9387665
  87.1209946  21.9325333  21.9787121  61.6598930  15.8676891  12.1197996
  61.0136261  16.4045143  11.6611156  61.6578178  16.2038841  13.0160141
   7.9701900  55.5228157  13.3222151   8.6451759  55.7733307  12.6914473
   7.1891041  55.3718987  12.7898989  49.9242172  53.3137550  72.1636429
  50.5582390  52.6155548  72.3272400  49.4092178  53.0002480  71.4201889
  64.3267670  65.8085251   8.7531633  64.1361160  65.3207855   9.5544100
  65.0449753  66.3936386   8.9940996  20.6650352  49.6711922  77.6261520
  20.6825123  48.8788109  77.0894394  20.7027245  49.3509140  78.5273895
  64.7945251  18.8304520   4.8901634  65.3652954  18.4216976   4.2394924
  64.2842712  18.1051865   5.2505307  28.1866856  40.9718742   4.1370401
  28.9226837  41.4097900   3.7095282  27.9218292  40.2903824   3.5192583
  39.6017876   7.5602007  10.8347034  39.3683929   7.6264682   9.9087629
  39.0374031   6.8659511  11.1748772   7.5054264  35.3837128  44.7991142
   8.3157644  34.9552002  45.0747223   6.8144622  34.7660751  45.0385399
  79.6593704  36.8880196  41.2719269  78.7388077  37.1466904  41.2285271
  79.7311249  36.3941116  42.0887108  26.5058060  19.8874626  26.4539871
  26.3187103  19.7990360  27.3885498  26.2439728  20.7831841  26.2410088
   1.7211112  50.2954369  68.6517868   1.3470166  50.7910652  69.3802414
   1.4411302  50.7710190  67.8696976  84.8909760  40.9107742  66.3132095
  84.9819946  39.9731140  66.1436691  85.0550232  41.0014877  67.2518692
  63.6350822  60.3219299  28.1573219  63.6444168  59.3661232  28.2081051
  63.9993858  60.5195045  27.2944889  75.4903488  21.1613865  36.6452751
  75.4016876  21.6847324  35.8487320  75.3357010  21.7815819  37.3577881
  57.8471146  62.2628975  18.6380157  57.6754837  61.3584290  18.3758907
  57.4558334  62.3383980  19.5083199  28.3502922  50.5789185  20.5225716
  28.1150055  49.6620598  20.6648426  27.5176411  51.0491829  20.5646858
  53.7721519   0.9616370  80.2334900  53.5155945   1.4326217  81.0263214
  53.1502151   1.2561204  79.5681229  16.6770039  48.9730988  46.1868935
  16.0125961  49.3037910  46.7914085  16.5664368  48.0224991  46.2061386
  70.0985184  52.8045387  88.1410446  69.7202377  52.6087990  88.9982605
  69.8489685  53.7128334  87.9708710  58.4501915  24.3259983  17.6554718
  57.9653358  25.1029549  17.3771095  59.2887115  24.6660557  17.9676876
  36.8341904  43.3015556  58.9015694  36.8982239  42.5401421  58.3250427
  36.1726265  43.0570297  59.5486946  76.4995880  11.6627913  35.5162582
  76.8860779  12.4000883  35.0437622  75.5909424  11.9239883  35.6658134
  13.3509521  62.1089020  40.1000557  14.1385956  62.1679192  39.5593452
  13.6069489  61.5533829  40.8363266   6.1795635  69.3987732  50.6478806
   5.3838353  69.8951187  50.8394318   5.9124537  68.4821625  50.7165108
  49.0687981   6.8896165  24.6232357  49.7343521   7.1259565  23.9771595
  48.4595032   6.3274264  24.1447659  57.2590485  33.6727638  34.9938316
  57.2191849  34.4174652  34.3937759  57.1012001  34.0528221  35.8580513
  76.5406113  56.8204842  87.5520630  76.6315765  55.8690109  87.6036224
  76.5608444  57.0125732  86.6145554  60.1724358  31.7149887  62.0479851
  60.8294525  31.8013344  62.7387123  59.3416405  31.6340275  62.5164452
  10.1218872   2.3659692  76.5296478   9.9286346   2.1208735  75.6247635
  10.8006678   1.7497711  76.8049469  11.7985153  53.7303505  87.3657608
  12.1798372  54.5923042  87.1988373  11.5183878  53.4214439  86.5041733
  46.3843803   2.9619269  22.0462914  45.8028641   3.3215578  21.3764133
  47.2647057   3.0891738  21.6926460  53.7208252  34.6335716  16.9789467
  54.1183014  33.9268188  16.4702759  52.8559837  34.2998581  17.2175236
  14.1952448  23.9279804  16.0358696  15.0815516  24.2887344  16.0593071
  13.9874477  23.7434883  16.9518471  74.5750656  36.7777596  53.3595276
  74.8243637  37.6672287  53.1086731  74.4558411  36.3189087  52.5279808
  77.8684769  49.1873589  61.1742325  77.2303467  49.1111603  61.8836060
  77.3374252  49.2628136  60.3814354  11.8911686  41.4115524  18.0811462
  12.3806667  40.5916176  18.1469364  11.3312731  41.4191971  18.8574772
  71.0640182  45.2026978  62.8004456  71.1816025  45.3480072  61.8616753
  71.9537735  45.1807213  63.1527061  77.6766586  37.4612885  46.9928589
  77.0088120  36.9424782  47.4412422  77.2028885  37.9051437  46.2894630
  82.3836670  10.7092142  15.3968248  82.7708817  10.6257687  14.5254269
  82.5569611  11.6158848  15.6501017  27.6171074  36.8062019  58.0327644
  27.9913883  36.1262817  58.5929947  27.2296677  36.3267403  57.3004837
  75.1167679  55.2745438  32.0244102  74.5229111  54.6446037  32.4327545
  75.6655426  54.7457237  31.4452591   1.0467197  15.4744558  80.1142807
   0.7847451  15.4018545  79.1964951   1.1777077  16.4125252  80.2524796
  18.5578060  70.7649994  14.7997103  19.0619793  70.6926651  15.6101484
  17.6727638  70.4936142  15.0431871  60.7623596  25.4472313  80.9216003
  59.9585266  25.8808479  80.6351395  60.4938049  24.9157753  81.6710434
  38.0882301  68.5785370  79.1473770  38.6423492  69.3511124  79.2583389
  37.5660057  68.7682953  78.3679504   5.8609524  64.6848755  66.3402557
   6.1786962  64.1363754  65.6230240   6.1854181  64.2556381  67.1319046
   0.3093885  16.0370808  53.9362030   0.2106492  15.9303970  54.8822975
   1.0769104  16.6004658  53.8375092  58.5622902   1.8489556  65.9899445
  58.3107834   2.3429754  65.2096100  57.9706726   2.1634719  66.6735382
  50.6804886  22.9017143  17.1895962  51.1372299  22.2588863  16.6470165
  50.9844589  23.7490196  16.8641624  58.4507790  57.8232956  48.0165176
  58.5041542  57.4285622  48.8868980  59.3567200  57.8472404  47.7084122
  68.7619324  70.6407852  18.0294991  69.0508652  70.4454498  18.9209003
  67.8062286  70.6440811  18.0828075  84.1612930  71.1567154  61.9150543
  83.7297287  71.0163345  61.0722733  84.6164474  71.9927826  61.8147469
  52.0936089  41.3384094  12.1997156  51.4611931  42.0188332  12.4306011
  51.8770447  41.1066399  11.2966032  81.2212982  57.3020439  61.3008575
  80.3018494  57.1646729  61.5288353  81.6481552  56.4730682  61.5172501
   3.1743631  18.0455837  46.8877220   3.2243738  18.9711094  46.6486969
   2.2412407  17.8368759  46.8435020  39.8739700  43.4724541  27.5629749
  40.2288933  43.6465607  28.4347248  38.9244843  43.4915123  27.6827545
  64.1720734  24.0777378  64.1762009  65.0606461  23.7655163  64.3470459
  63.6692581  23.2831287  63.9973106  80.2185135   1.2480298  14.3756819
  80.0964584   0.3030291  14.2845287  79.4790115   1.6316160  13.9042692
  57.8430481  16.7504158  21.3224030  56.9003487  16.5857582  21.3433075
  58.2135506  16.0968513  21.9155388  64.9840927  53.0351715  65.7934952
  64.2357025  52.4389763  65.7670517  65.6184845  52.6501961  65.1888657
  69.1876221  50.2440033  80.9304733  68.6805038  49.9191399  80.1864777
  69.3158569  51.1742668  80.7450104   3.8381855  20.0548553  49.8304482
   3.6673899  19.1427975  50.0654182   4.7444911  20.2056770  50.0989532
  64.6087112  58.4111557   0.9445697  65.0786362  59.1973457   0.6665269
  65.2840118  57.7349052   0.9982880  33.0641479  41.8773155  28.2402649
  32.3367805  42.4987946  28.2097168  33.0561600  41.4568062  27.3804150
  22.2064800  35.0773315  85.9173126  21.9440498  35.8543434  85.4237289
  22.9549599  34.7278671  85.4336929  72.4651871  19.5974522  30.1418915
  73.3213501  20.0108566  30.0309315  71.8431702  20.3246040  30.1177864
  59.3981514  56.1494026  70.1355820  59.1513214  55.4907074  69.4864120
  58.6287537  56.7141953  70.2081985   0.5074102   9.8152771  24.4452457
   0.8042763  10.6974516  24.2219315   1.1638288   9.4905224  25.0615902
  13.3523035  71.5391769  68.7470474  13.8042574  70.8300400  69.2043152
  12.5661592  71.1289825  68.3865585  49.5970154  30.2774258  11.2627974
  49.5320663  30.5457287  12.1793270  49.9296417  29.3806000  11.2987642
  83.6085739  35.7849312  47.6008949  82.6611481  35.9149475  47.5595894
  83.9457321  36.5979576  47.9771194  75.7867661   5.6069384  30.3273144
  76.2326050   6.4242845  30.5495853  75.7199783   5.1368537  31.1584530
  32.6553078  63.2994690  26.0605335  32.6555595  64.2509537  25.9560909
  32.9658699  63.1565742  26.9546051  85.3365326   8.5448580   3.4338148
  85.9267120   7.9743524   3.9262037  85.9157715   9.0662718   2.8780727
  78.8679962   1.3850803  17.9579315  78.4864044   2.2033374  18.2758503
  79.5394592   1.6605194  17.3338261  29.2459278   6.3062944  20.4872761
  28.6537361   6.9298329  20.9076824  28.6665611   5.6549964  20.0918312
  39.4062767  71.7136230  30.0826015  38.8369179  71.8698730  30.8360271
  38.8790131  71.1764450  29.4912701  65.8779526   5.8840480  53.5035782
  66.6239319   5.2842598  53.5009727  65.1295929   5.3345089  53.7363586
  26.0008202  33.4785957   4.7978926  25.6825867  32.9899521   4.0388231
  26.7361126  33.9910393   4.4617739  14.7973261   3.7382925   1.1892962
  14.9234838   3.5517433   0.2589654  15.5195036   3.2852116   1.6245080
   4.4030175  42.4256020  32.5141640   5.1064873  43.0512123  32.6873016
   4.8554282  41.6098938  32.2992859  10.9200163  50.7469711  30.5197010
  10.3197746  50.1117096  30.9100704  10.3695850  51.2695503  29.9364624
  12.5826206  13.5891657   8.2080345  11.7834253  14.1153860   8.2327681
  12.9876823  13.8081207   7.3688588  15.4338503  11.2965870  25.5163116
  16.3409443  11.3499193  25.8172588  14.9111519  11.4690142  26.2994366
  86.4199371  64.6204758  72.7536545  85.9872818  65.2862015  73.2883072
  85.8370743  63.8624382  72.7970505  60.1787529  62.6027565  28.5837574
  59.8380394  61.9142685  29.1548405  59.6526833  62.5351448  27.7869434
  74.6732559  33.9832840  61.4280891  74.0907440  34.3939095  60.7891083
  74.1824188  33.2262917  61.7478828  36.4656677  57.3559799  74.6418152
  36.2487946  56.4371910  74.4836273  36.7368927  57.3835068  75.5593719
  18.5775661  34.4908104  83.3596268  18.7705498  33.6863899  83.8411789
  18.8147392  34.2906494  82.4541321   6.5235252  56.7344093  77.2504349
   5.9561682  57.2057877  76.6404037   6.3588877  55.8098907  77.0649872
  74.5899200  68.1769714  79.4067764  75.1684036  67.8296585  80.0857162
  73.7655945  67.7064972  79.5307922  18.6353760   0.9750623  12.6642609
  18.5893211   0.3761536  13.4095249  19.5531216   0.9502493  12.3934116
  43.0121994  32.3983383  88.1170425  42.5133286  32.5880318  87.3224487
  42.8453064  33.1473732  88.6891708  25.6799736  34.1704407  24.8100643
  24.8238811  33.8472786  24.5291672  25.5075951  34.6151581  25.6399708
  58.0098457  37.8014526   9.6119709  58.7476921  38.1747208  10.0941324
  58.0894775  36.8570023   9.7457809   7.0216837  33.1872902  48.2229843
   6.8458757  34.1154022  48.0682793   6.4416370  32.7290344  47.6148911
   2.8775568  61.4034462  75.8732224   2.6527066  60.8360176  76.6105804
   3.6242461  60.9719238  75.4579239  46.0515480  15.3545818  17.7320080
  46.4225731  14.5035267  17.9649773  45.2720680  15.4346342  18.2817650
  82.4584656  63.0220833  41.4954948  82.0692596  63.7866859  41.0710754
  81.8025055  62.7428970  42.1342468  83.9088745  47.1044273  76.6560822
  83.9279251  46.4119453  77.3166351  84.8298569  47.3178749  76.5062027
  68.7789612  14.2039404  68.4931412  67.9947891  14.1144133  69.0347137
  68.9677429  15.1423254  68.4982910  73.6819687  53.5238075  79.4747849
  72.7273483  53.5002060  79.5409164  73.9784164  53.7306747  80.3610992
  61.5790100  11.4541388  55.2304344  61.2271805  11.8399057  54.4281693
  60.9783478  11.7418232  55.9179497  62.0339012   5.2263169  45.3650665
  61.4256134   4.9115925  44.6963615  61.4923439   5.7535930  45.9523735
  19.8367290  35.0349770  57.4807014  19.8258152  35.8087120  56.9172745
  18.9394741  34.7030563  57.4491730  10.5058184   5.3376508  64.4971008
  10.5421600   5.3014293  65.4529190  10.1326618   4.4946675  64.2394867
  31.2148132  53.0829735  65.8227463  31.0559483  52.1455765  65.9335556
  30.6132298  53.5022278  66.4380112  24.7634277  49.0218735  54.7816391
  25.6041870  49.4742928  54.8499718  24.9860725  48.0927010  54.8390808
  73.4505157  31.3263874  55.2586517  72.9644089  31.0470543  54.4828224
  74.3704529  31.2272625  55.0134506  74.3814850  52.5623627  12.6569920
  74.9119492  51.7913857  12.4559183  74.9206543  53.0732384  13.2607584
  70.0463943  40.5781403  84.0303192  69.4859848  39.9091949  84.4236298
  70.9334488  40.3318443  84.2924500  10.2426252  65.7668533  58.1696243
  10.1894283  66.5915527  58.6526070  10.8608418  65.2351456  58.6709480
  19.0279484   4.1942964  84.4972305  18.9472389   4.2434125  83.5447083
  18.1384392   4.3371391  84.8206558  66.5818176  53.2456169   1.9453642
  66.5529404  52.7216225   1.1448472  66.7734070  52.6137924   2.6384172
  16.0588341  41.5299759  81.3702240  16.3909664  40.8580971  81.9656219
  15.6264973  41.0385513  80.6717911  59.8668022  11.9570713  28.2347469
  60.0459137  11.0339317  28.4135361  60.6989975  12.3993397  28.4023132
  35.7861099  69.9149628  56.1963654  35.0104790  70.1307297  56.7141266
  35.5596771  70.1786270  55.3044930  19.1308308  16.9544258  51.7299500
  18.8230762  16.7899933  50.8386154  20.0597534  17.1617374  51.6281853
  47.8886681  27.4134274  82.3680649  46.9832191  27.7216587  82.4052734
  48.4090538  28.1635914  82.6556168  72.4486771  61.2126961  52.1204872
  72.5774841  62.0939560  52.4712334  72.9124756  60.6411896  52.7324524
  33.6768990  61.5789909  48.4823380  32.9227295  61.4345627  47.9108467
  34.3912163  61.8004303  47.8848915  36.2221222  46.6691704  46.8174629
  35.5987320  46.6554947  46.0912170  37.0561104  46.9077606  46.4127769
  67.0996475  62.4694557  60.0046272  67.0285721  63.4215164  60.0736313
  66.9300156  62.2829132  59.0812340   1.1507019   9.5577135  46.1577377
   1.3182302  10.0351372  45.3451881   0.7175868  10.1953506  46.7252426
   4.6999979  19.7947407  67.2240829   4.0206466  20.2456608  66.7227020
   4.5976152  18.8721790  66.9903564   1.9644239  70.7187119  65.1553650
   2.0979099  71.5581055  64.7150955   2.8170264  70.5103302  65.5373001
  48.2363472   8.0902519  56.6993599  48.7226143   7.7741795  55.9378662
  47.4387398   7.5611749  56.7107010  62.3649178  35.5853043  88.6708908
  61.6851158  35.3863182  88.0270615  63.1863670  35.3899651  88.2200089
  28.0412941  47.3089180   0.9805558  27.1296406  47.0340309   0.8827976
  28.0557747  47.8035126   1.7999456  54.8991623  16.3040428   0.9196871
  55.0486183  15.3952627   0.6588914  55.7715454  16.6979179   0.9261920
  75.5524826  43.9628296  57.1102257  74.8065720  43.3805046  56.9661751
  75.8011169  44.2549858  56.2332687  76.0035553  68.3562469  11.6686306
  75.1173172  68.5574646  11.3680897  76.4785538  68.1192474  10.8721123
  17.0467873  32.1896553  28.8724766  17.8073101  32.5533295  29.3258839
  17.1739464  32.4356766  27.9562149  22.1422882  20.6812344  87.2465363
  21.4657822  20.7465687  86.5725174  22.7044144  19.9642487  86.9529724
  62.7729378  58.9191132  17.8782616  63.4811707  59.3932571  18.3139515
  63.0730019  58.0105095  17.8530846  43.3597832  25.7122345  10.0721102
  43.6271362  25.7421303  10.9907284  42.6072617  26.3017006  10.0223675
  57.1671448   2.4288042  75.5389252  57.9412613   2.9407787  75.7731323
  56.9754219   2.6837559  74.6364365  38.1436348  -0.0679195  68.6794205
  38.8381882   0.4543034  68.2780380  38.2917709   0.0197594  69.6210098
  29.4501915  23.0015373  26.4002647  29.7392426  22.6901379  25.5425282
  28.5356331  23.2514992  26.2686024  23.7341080  12.8761683  23.2105923
  24.5361347  12.4639034  22.8896217  23.9004860  13.8156710  23.1338768
  57.9317322  14.3119535  45.7762871  58.1979408  15.1254206  46.2048111
  57.3537407  13.8858528  46.4092140  51.4516182   0.6564363  64.5706100
  51.3298645   1.5627007  64.8536224  50.5629425   0.3134956  64.4763870
  25.1551590  47.9738388  19.1402168  24.9912243  48.1042595  20.0742130
  25.3534775  47.0408630  19.0598450  50.3654709  10.5879364  68.6221008
  49.4841995  10.9221087  68.4550018  50.5124092  10.7549114  69.5531006
  43.4624634  42.4903030  19.8863506  42.9488449  41.7103348  19.6763973
  44.1364708  42.5231361  19.2074776  57.1369324  43.5801849  76.7310104
  56.7114067  43.2210655  77.5095978  57.7286835  44.2519531  77.0698242
   1.8406373  61.8191032  58.6769943   2.0888970  62.6958199  58.9701920
   1.8144022  61.2968979  59.4787712  31.7652111  41.8737526  22.5075264
  31.0637436  41.5504036  21.9421768  31.4943085  41.6252327  23.3913136
  42.8123741  45.7897377  33.9660339  43.7413864  45.5599442  33.9468651
  42.5078964  45.4851761  34.8208809  50.8202515   2.1680787  38.4369812
  50.5318756   2.4291275  37.5623817  51.5697784   2.7342803  38.6209793
   3.6392591  11.4830112  20.1718712   3.4413042  10.5804853  20.4218540
   2.8845406  11.9869089  20.4763718  59.9641457  38.0886040  35.4625816
  59.3557854  37.8950043  36.1757774  60.0037575  37.2780991  34.9548988
  44.9418335  62.3930969  21.5699635  45.5186844  62.1062317  20.8620186
  44.8138885  61.6108208  22.1065331  18.9692841  50.1620369  29.2860222
  19.5582752  50.1844864  30.0402203  18.7464104  49.2367935  29.1836395
   4.2219467  60.3515320   1.8930069   3.5811093  59.9253426   2.4621480
   3.9571080  61.2712822   1.8807230  83.3664398  71.7443390  72.4114838
  83.6856155  70.8620529  72.2219315  82.6192169  71.6086884  72.9941483
  36.1285553  22.3058834   7.8097572  36.4981804  22.3621902   8.6909161
  35.9922180  23.2166119   7.5485711  68.6483994  57.0087204   3.1146817
  68.0114365  57.0216904   2.4002962  68.2838898  57.6021156   3.7713766
  85.5605240  56.5263557  26.2613564  84.7282791  56.8956833  26.5566521
  85.9553528  57.2189178  25.7315464   2.3364708  52.5888863   3.5662611
   1.6581389  52.2660332   4.1594405   1.8578973  53.0868912   2.9035447
  55.1161613  33.2753944  73.2152557  55.3959198  33.0983772  74.1133804
  54.6543961  34.1121407  73.2687454  14.3838167  47.8112259  40.7676048
  14.0853815  48.0385628  41.6482239  15.1624222  48.3511772  40.6317368
  10.8175678  11.5978832  84.7166290  10.4105473  12.3216915  84.2405319
  11.2236176  12.0107889  85.4787750  67.4422989  40.7528801   3.0198386
  67.5649490  39.9785309   2.4706819  66.5058136  40.9421120   2.9613161
  68.7143402  71.3298340   9.4727573  67.9212265  71.7118225   9.0968761
  69.3135910  71.2442245   8.7312689  83.7161560  11.6705723  87.8144379
  83.3363724  12.2144718  88.5044861  83.2768021  11.9578018  87.0139999
  67.5858459  41.8931618  82.5776367  67.0293121  42.6111183  82.2759171
  66.9927979  41.1455421  82.6523972   5.3109379  17.6540585  31.3434944
   5.2647114  17.2353382  32.2030106   5.4442058  18.5821686  31.5360680
  41.5022354  70.5084076  63.6523628  41.3155518  71.2472916  64.2315216
  41.4679642  70.8802872  62.7710228  26.4483261  43.1771736  79.3781815
  26.2744122  44.0365448  78.9941635  25.5849724  42.7718277  79.4590759
  61.4231071  58.9679527  76.9624481  60.6307945  59.2178268  76.4870071
  61.1679688  58.1925354  77.4623108  54.2144356  45.2117386  62.7944260
  54.4450951  45.4031410  61.8853645  53.3973389  45.6886787  62.9397163
  79.8496933  56.8720016  55.3561783  80.7196960  56.5505562  55.5928383
  79.6248474  56.3905144  54.5600357  48.0843048  53.3801537  25.6641178
  47.9724579  52.8905449  26.4789829  47.6232529  54.2052727  25.8152580
  69.0780945  60.5726471  41.4530754  69.6066055  60.5337715  40.6559563
  68.3637619  61.1723328  41.2378197  18.0737476  60.2195892  88.6501617
  18.0863476  61.0994263  88.2733765  18.8705559  59.8056107  88.3185730
  73.1667023   9.9802952  86.8430328  72.4938126   9.7541599  87.4851456
  72.7672501  10.6671629  86.3092880  76.6545715  19.1137028  51.3787231
  76.9569244  18.7213402  52.1977921  77.4570999  19.2959576  50.8898811
  62.4042130  30.8867760  20.2472992  62.1987572  30.3429241  21.0077248
  61.5505295  31.1473236  19.9015007  84.0581207  18.5868587  44.6615868
  84.3610992  18.2762318  43.8083878  84.7785416  19.1245804  44.9903526
  64.0743179  40.1374092  35.3350449  64.3614578  40.7564812  34.6638336
  64.2247772  39.2757607  34.9462547  60.6821899  15.4768019  46.3516884
  61.3741341  15.5022459  47.0125923  61.1476288  15.3758020  45.5213890
  77.6560898  56.2020683  49.9029274  78.3284912  56.8481598  49.6868858
  77.3208771  56.4810104  50.7550163   4.1260281  19.3591881  62.4173241
   4.5438828  19.4592609  63.2726707   3.6896436  18.5084229  62.4620132
  30.8638020  13.8397989   0.9851885  31.6915321  14.1555738   1.3476568
  30.9170322  14.0455599   0.0518819  83.8377991   3.6439497  27.4434509
  84.3999710   4.2321801  27.9476204  83.4270706   3.0829046  28.1012955
  48.8265381   9.9785070  65.0826874  49.2274323  10.7161360  64.6228867
  47.8854866  10.1014814  64.9580841  60.6278534  52.8470993  87.1363297
  59.7255402  53.1508865  87.0374527  60.6841469  52.0759697  86.5720444
  24.2659473  68.9751663   9.6298733  23.7688198  69.0215225   8.8132048
  24.6460075  68.0966568   9.6293793  13.7677612  11.1751451  73.4157028
  13.5937548  12.0698738  73.7079544  14.4051809  11.2738867  72.7084732
  29.1088085  34.2701454  11.0327854  29.9015388  34.7146873  10.7324657
  29.1516762  34.3229942  11.9875631  79.0204010  29.6976490  86.5722733
  78.0714493  29.6781445  86.6961441  79.2048798  30.5886269  86.2750168
   7.1406388  57.4485626  23.5089588   6.7139254  57.7308502  22.6999722
   7.7095017  58.1804390  23.7476768  84.4282837   8.7472553   8.0963602
  83.7113113   8.1486769   7.8868647  84.1741638   9.1428356   8.9301291
  84.2494507  69.5082474  47.4454041  83.7587738  69.6298370  46.6325760
  85.0608368  69.0793610  47.1734962  24.9111805  48.4667435  88.9453354
  24.6427441  47.8744125  89.6476974  24.3302822  48.2517166  88.2155685
  36.7467194  49.2960510  27.7607059  37.0610199  48.5929222  27.1923256
  36.2548294  48.8466759  28.4479733  15.6953201  32.6216393  16.3095226
  16.3148346  32.0323982  16.7399063  15.6355009  32.2927132  15.4126053
  67.7666168  25.0568581  54.2639313  67.8710022  25.2659988  53.3357124
  66.8201294  25.0657406  54.4064865  53.2353058  21.9801464  80.1504593
  52.4510345  22.1404018  80.6753159  53.1383629  22.5568867  79.3927002
  65.6446228  49.7770576  30.2108154  65.3865891  49.9829216  29.3123341
  66.3444290  50.3997498  30.4076786  81.4801407  49.3575783   1.1821131
  81.3605728  49.1947708   2.1177571  80.7152405  49.8745270   0.9292873
  16.5809402   8.7804785  62.1608353  16.0426388   9.4989138  62.4929695
  16.6371193   8.9390888  61.2185402  42.8360672  53.6610413  47.3454514
  43.7476730  53.4054680  47.2044182  42.5537720  54.0162659  46.5026245
  72.6370239  17.3356323  27.6976738  72.0784836  16.6137371  27.4093323
  72.0243988  18.0270443  27.9484291  36.5172882  59.3694763  64.1207504
  36.4149475  59.1169701  63.2031479  35.7891121  59.9680786  64.2870865
  80.7717056  43.8563652  17.6939793  81.3253479  44.2973175  18.3383923
  81.0175018  44.2507591  16.8571606  40.3036995  50.9584045  60.6302719
  39.4272614  50.6366501  60.8413734  40.8876877  50.4485817  61.1917610
  36.2978973  60.0494041  54.0820122  37.2329559  60.2492332  54.0377502
  35.9369087  60.7197838  54.6621056  73.7541275  40.9383812  46.4199104
  74.4697342  40.8491058  45.7904930  73.3217926  40.0844002  46.4137421
  45.8609543  58.9316864   9.5243769  45.2714195  59.1464157  10.2472687
  45.3084030  58.4698372   8.8938074   2.6773798  11.8541651  30.4612541
   2.5596747  11.0989141  29.8850822   2.4566269  12.6087017  29.9152012
   1.1944714  56.4125671  87.0258331   1.3408964  57.2891884  86.6704102
   0.9009858  55.8958206  86.2754517  13.3255882  41.3423920  37.7795219
  14.1128321  41.0134697  37.3456039  12.8924923  41.8788071  37.1155052
   6.6880159  21.8835812  86.3939133   6.2367568  21.8416424  85.5508041
   6.0025735  21.7171478  87.0409851  30.1141949  29.8629379  14.0232973
  29.6212940  29.9047146  14.8427696  29.4478741  29.7269707  13.3496790
   7.0016046  30.1778297  20.4641418   6.3945317  30.6095905  21.0652065
   6.7912116  29.2470322  20.5388393   7.9966879  30.8759480  82.9381714
   8.5188570  30.7805805  83.7347107   7.4099507  31.6093540  83.1227951
  39.0889244  69.7923584  35.4910355  38.4999352  69.9936066  34.7638321
  39.9342232  70.1511993  35.2209625   3.9148915  67.6738052  18.8133316
   4.5470562  68.1383133  19.3618107   3.5021150  67.0441208  19.4043808
   1.7308310  60.4439545  61.2083855   1.7549604  60.1351814  62.1140938
   0.8381082  60.2597542  60.9162407  41.6343193   4.9245005  23.1191864
  41.0028801   5.6044359  22.8842354  42.4655876   5.3904452  23.2093239
  67.9486847  29.6576405  11.4844246  67.8133850  30.2355652  10.7334719
  67.0663834  29.3942757  11.7459984  58.3223648  10.1994276  88.5905075
  58.1219788  10.8979635  87.9675140  57.4701118   9.9370680  88.9384613
   0.5560989  12.7755375  24.5995846   0.2345014  13.4554224  24.0074997
   0.0880684  12.9313211  25.4198952  57.2616539  21.8892212  27.1303635
  57.0516624  22.1941395  26.2476635  57.0254135  22.6218014  27.6993523
  38.4553223  14.2487679   5.6276894  37.5120010  14.1239204   5.7315807
  38.8470154  13.5008135   6.0786576  27.3401012  12.3268042  18.8267193
  27.4967308  11.6238337  18.1962185  28.0620842  12.2539225  19.4509468
  81.4426346  56.8069611  30.9557018  81.7382202  56.4224739  31.7809486
  81.9795151  57.5925598  30.8516121  78.8088837  26.1268501  52.8525658
  78.8150253  26.5962563  53.6867409  77.9382706  25.7317142  52.8064842
  78.1682739  44.3331451  77.4395065  77.4100113  43.8027077  77.1947479
  77.7926483  45.1209869  77.8324966  28.7331810  62.2125397  31.7569885
  28.9170647  62.6366043  30.9187832  28.4743805  61.3212433  31.5228043
  29.3524876  55.1753654  75.1520996  29.3291531  54.2307510  75.3050385
  29.5426712  55.2621307  74.2180023  18.1559944   9.6531868   1.4614636
  17.8525906   9.3017845   0.6243886  19.0769539   9.8668995   1.3118227
  25.9432621  55.0090446  28.4482708  26.3821125  55.7766266  28.0815792
  26.6483860  54.3797989  28.6001892  74.5200806  49.9975243  48.6861305
  74.8320160  50.8498878  48.3821411  74.4753876  50.0845070  49.6383247
  12.3665657  56.7627563  73.2848282  11.9253988  56.8051491  74.1332397
  11.8468380  57.3306656  72.7159729  10.1391134  15.2815809  56.5788651
  10.6205931  14.4686871  56.7325249   9.5270700  15.0679674  55.8745918
  39.0187225  51.0904961  50.0539627  38.8562469  51.7205582  49.3519249
  39.8211212  50.6399765  49.7904930  26.8017101  64.4353714   4.7500386
  26.6905231  64.8998337   5.5795798  27.5134964  64.8993835   4.3092647
   9.2837391  15.9851999  30.4903603   8.5212994  15.5308046  30.8487473
   9.4111929  16.7346420  31.0720158  72.2640381   8.0865536  74.6292725
  72.2572327   8.8671398  75.1832352  72.7412567   8.3543558  73.8439178
   8.2643538  49.6104202  41.4860077   7.9236321  50.3328972  40.9585915
   8.9700584  50.0017509  42.0008583   7.8596640  26.1926918  40.7771797
   7.6935940  25.2933178  41.0596313   7.3505845  26.7317333  41.3825760
  23.7431335  20.3448029  12.0976534  24.3005772  21.0163918  11.7046394
  23.1861115  20.0453091  11.3791418   6.5290046  63.6094360  23.9898548
   7.2039137  63.5653000  23.3125191   6.4751120  62.7173882  24.3327560
  85.7581635  29.7291164  80.3399429  85.3516312  30.3043976  80.9880295
  86.6962051  29.7901001  80.5204697  69.4069138  14.5014372   2.8980086
  70.1449432  13.9530725   2.6318519  68.7892685  14.4420061   2.1691613
  39.0861893  69.5571365  44.6309891  38.5682945  68.7550583  44.5625343
  38.9334183  69.8653793  45.5242271  10.3880997  50.4106483  11.0013800
  10.8266401  49.7963257  11.5900412  11.0946465  50.7819023  10.4729929
  73.1325607  15.1747665   2.8141985  74.0828781  15.2387362   2.9092565
  73.0031586  14.8206062   1.9343928   9.6084204  60.7490578  13.8478289
   9.4080238  59.8406219  14.0732651   9.7584705  60.7337532  12.9025869
  72.1447830  30.7193871  70.7037354  72.8382797  30.6221142  71.3562927
  71.5309372  31.3395538  71.0971985  44.1151924  58.6994514  60.7574883
  44.1894646  58.0060501  61.4131660  44.2654762  58.2564888  59.9223671
  67.9536667  41.5178185  62.1693115  67.8841171  40.5763130  62.0113297
  67.4697495  41.9182701  61.4470253  71.5044022  42.9983521  26.1830463
  71.3229599  43.7226868  25.5841713  72.2462616  43.3007812  26.7068882
  74.5052872  61.9637794  44.2726555  73.8543091  62.6125298  44.5402031
  75.3096695  62.4679909  44.1503143   8.4613781  67.6400070  53.9395142
   9.2993364  67.7952576  54.3753548   8.4597092  66.7015610  53.7509880
  12.7025328  19.5706787  54.8032494  12.5207329  18.7464714  55.2547646
  12.2367506  19.4953403  53.9704208  59.8962021  18.5895634  25.0037937
  59.0238228  18.2024517  24.9307995  60.3573456  18.0255184  25.6246223
  65.8642731  70.9759216  25.7765579  65.9636383  71.5845642  25.0444965
  66.5424957  70.3158875  25.6330318  65.6894531   6.5010533  32.1491165
  65.7987137   7.3662586  32.5437202  66.3893509   6.4443669  31.4986134
  28.3176517  70.0607147  78.2736206  27.9298687  70.2365112  77.4163208
  29.2478848  69.9260101  78.0926437  77.0393372  24.4960136  77.2990036
  76.6939774  24.5112667  76.4064102  77.6493988  25.2328587  77.3324051
  36.9998322  24.3127518  16.1064701  37.3657417  24.1860619  16.9818497
  37.7424507  24.1864586  15.5158768  47.8027725  14.0868320  11.0274000
  47.0665207  13.7326498  10.5286818  47.4057503  14.7253971  11.6197176
  65.5587921  65.5885468  71.0220566  66.0518417  64.7690964  70.9817047
  65.3564377  65.7915421  70.1087723  84.3158264  24.7916775  55.8441353
  84.1438522  25.7332268  55.8559914  84.8303146  24.6321907  56.6353989
  72.1555939   5.7309823  80.6703720  73.0288010   6.0165024  80.9390945
  71.6908188   6.5422974  80.4654617  18.6266079  65.7831726  27.6445885
  19.5004082  65.8050461  27.2544270  18.7318954  65.2590942  28.4386196
  64.7207718  32.0424805  60.4224892  64.0424500  32.6889725  60.2271576
  65.4834137  32.3377686  59.9250832  63.7077370  22.3829346  48.6955872
  62.8895912  22.8758411  48.7581291  63.7073708  21.8190575  49.4690666
   2.5266256  12.7112885  67.4038849   3.2272511  12.4083424  66.8263245
   2.7371049  12.3298845  68.2562180   4.8810506  41.5512352  35.7445145
   5.5400844  42.2155571  35.9459724   4.9502311  41.4244461  34.7982750
   2.8992033  24.3464985  10.4949217   2.3399289  25.0706501  10.7760773
   3.3842757  24.0989113  11.2820921   3.7236791  48.1524010  29.6967106
   3.3542912  48.9738808  30.0206795   4.4930387  48.4179497  29.1929226
  15.8557692  63.4838715  55.9159889  15.7789888  62.8358803  56.6163101
  15.5319004  63.0331802  55.1361046  29.8634338   6.5717134   0.6760229
  30.1116199   7.0234032   1.4826281  29.8992920   7.2495837   0.0011613
  63.5068626  20.5733223  87.6253510  64.0454025  20.3782291  88.3922501
  64.1096115  20.5025787  86.8851395  85.6728592  11.8295155  58.2634659
  85.8613586  12.2612162  59.0967293  86.2177658  11.0426083  58.2727432
  51.6422005  51.3787918  41.4865723  50.8695145  51.0005684  41.0668869
  52.2692032  51.4959564  40.7728691  55.6804962  27.8817825   2.5431089
  55.5497894  27.5838833   1.6428845  56.3847122  28.5272064   2.4819520
  59.5016136  32.0638428   2.4142616  59.9089012  32.4452209   1.6365093
  60.0531540  31.3115578   2.6289735  84.5771179  63.1424332  43.1037865
  83.7187042  63.2784195  42.7027054  84.7840576  62.2257805  42.9216919
  37.2318840  10.5128212  22.2138271  37.6456108  10.3610277  23.0635452
  36.4957047   9.9013901  22.1932392  80.4768372  43.7913322  69.0973282
  79.6311035  43.8654518  68.6552124  80.4917374  42.8967056  69.4374008
  52.8033981  24.6522655  79.1097717  52.1880951  24.8123665  78.3942337
  53.5057716  25.2869835  78.9682083  49.4262695   6.4095521  21.2981281
  49.5261345   7.3609996  21.3298378  50.0785027   6.1214147  20.6595364
  75.8423233  54.8837051  47.1917877  75.5729218  55.7941551  47.0704079
  76.0657043  54.8218040  48.1204987   7.8973556   3.7463443  59.2420311
   7.4280334   2.9683423  59.5431633   7.2085094   4.3839126  59.0543327
  28.9337330   0.2480757  29.2816734  28.1068630  -0.0500621  28.9026871
  28.7067490   0.5138081  30.1727943  60.6692696  60.0774765  13.9571981
  61.2553101  60.2402649  14.6963110  60.8953056  59.1954155  13.6620617
  60.8069115  48.1147385  87.2935791  61.3928337  47.4541016  86.9241333
  61.1279449  48.9442596  86.9399338  16.3210964  51.4838829  60.6817360
  15.6472683  51.3565826  61.3495560  16.3280773  52.4282227  60.5254974
  65.3282852  32.9186859  78.7200089  64.9265289  32.0587273  78.5963135
  64.8688583  33.2917023  79.4723511   7.5305419  61.6649971   4.5496616
   8.0011625  62.1242256   3.8540640   7.0055385  61.0090714   4.0910091
  73.0403900  22.9206200   0.2703300  72.8697205  23.6095695   0.9125545
  73.3018036  23.3906956  -0.5214539  50.3609161  66.0711975  87.8407669
  51.0555420  65.7494888  88.4154205  50.4892540  65.5952759  87.0202408
  35.1038704  22.0305119  15.9057865  35.7842903  22.6877403  16.0517731
  35.5828857  21.2432709  15.6468887  21.8005257  36.3966141  31.4934502
  21.6011314  36.2256088  32.4139023  21.4395733  37.2675743  31.3279934
   7.7867556  56.5201035  50.6751633   8.6812668  56.7273979  50.9455528
   7.4933629  55.8604164  51.3036270  69.8970337   1.4482872  22.1890297
  69.2849731   1.5920012  21.4672585  70.5293808   2.1628141  22.1127071
  18.7838573  69.7994766  75.4954758  19.2637119  69.3845825  74.7786560
  18.5488701  69.0761261  76.0766678  65.9008636   9.4603577  17.3523045
  66.6952744   9.0074968  17.0693550  65.2930145   9.3578520  16.6200180
  77.2195511  48.6845551  65.6430969  78.0719452  48.6449928  66.0767899
  77.4160461  48.9846992  64.7556610  33.2819710  10.9441566   0.5205090
  32.3943672  10.6026325   0.4120899  33.2796440  11.7733154   0.0422602
  70.7867813  48.1925392  84.1797104  70.1141281  48.5495529  83.5997849
  70.3596191  47.4560013  84.6170654  79.0516663  29.4635983   6.0485158
  78.7328644  29.6593513   6.9295840  78.2789841  29.1503468   5.5783281
  24.0806084  49.9726830  63.4456673  24.8152695  49.9208755  62.8342590
  24.4603748  50.3346367  64.2462921  44.8921890  63.7827759  66.1520004
  44.7717171  62.8358727  66.0806198  45.3543053  64.0265579  65.3499756
  81.7499237  60.7815247  16.3923607  80.9911118  60.2437286  16.1660633
  82.4250259  60.1503830  16.6416206  21.2724648  64.7031784   0.0430799
  20.7244797  64.9692078   0.7814385  21.2739468  65.4623871  -0.5398639
  34.3630714  40.8902855   8.6391773  34.4382133  41.5457916   7.9457078
  35.0092354  40.2227364   8.4087877  20.2169476  40.7695122  16.9282513
  21.0520039  40.9062767  17.3756962  19.5641441  40.7896843  17.6280174
   5.1217847  69.6588516  65.7993469   5.6737823  70.4208832  65.9749756
   4.9577947  69.6939926  64.8569565  55.5544548  66.3376999  40.9819946
  56.0026207  65.4977798  40.8824005  56.2305183  66.9330063  41.3056984
  25.5603504  61.4206505  65.6447601  26.3888664  60.9553871  65.7601852
  25.0340614  61.1640778  66.4020081  80.7753677  24.3361950  47.4171104
  81.6035309  24.5853825  47.0069008  80.2474213  23.9879646  46.6986084
  55.7797661  28.6156597  72.7811813  55.2794037  29.2564716  73.2863846
  56.2795982  29.1408691  72.1562424  75.1454544  41.3361893  80.0650024
  74.7483063  41.4586868  80.9272690  75.4850235  42.2004700  79.8327408
  61.5065041  66.4256363  18.9316254  61.5507774  66.4184036  19.8877735
  60.9273872  65.6954880  18.7131424  43.9090691  11.6022978  76.2510681
  43.3652191  11.0952864  76.8538971  44.3489494  12.2446976  76.8078995
  20.2376881  70.5941925  60.0670509  20.2193222  71.2456818  60.7680893
  21.0166149  70.8141327  59.5560341  75.7877731  61.5261574   8.2736607
  76.4111786  60.8066711   8.3733263  76.1841812  62.0971107   7.6155548
  77.0718842  22.8148479  54.8025742  77.5383148  22.8603954  53.9679489
  76.3127823  22.2601795  54.6227646   2.1710067  15.9159594   7.0835190
   3.0461581  16.1646366   6.7860265   2.1342108  14.9683094   6.9537659
  69.2254105  45.6802864  52.3999405  68.7853394  45.2561913  51.6632538
  69.3929367  46.5727921  52.0972786  54.5107841  36.5646782  67.0929184
  53.6827354  36.5696831  66.6127701  54.2532272  36.5777740  68.0147171
  67.9278564   3.2324290  89.2556839  67.9815979   3.4891195  88.3351135
  67.5201187   2.3665626  89.2394867  48.9837570  51.5253906  67.0682602
  49.5329437  51.0822601  66.4215240  49.6052208  51.9209862  67.6794205
  39.6474266  46.2346153  54.4418716  39.2057457  46.6204758  53.6853905
  40.5773163  46.4000244  54.2863808  31.9200344   8.3793249  23.9296837
  32.5267448   8.1533833  24.6347275  32.4040375   8.1873436  23.1264915
  31.4676552  66.5770264   9.0685673  31.1423969  65.7208099   9.3466578
  31.4050331  66.5584106   8.1135988  25.3429184  12.7814579  83.0493240
  25.2207832  11.9159546  83.4394760  26.0921288  13.1511936  83.5164490
   0.8096933  16.3432827  32.6056786   0.0557908  15.7709923  32.4630318
   0.7643795  16.5721912  33.5340004  64.6583481  47.6757240  43.8436775
  65.4593277  48.0849190  44.1711349  63.9682884  48.0056763  44.4191628
  79.4417801   7.8506002  61.9881248  80.0646667   7.1546221  62.1975555
  79.6206665   8.5343590  62.6336517  61.7132950   6.3865194  67.7851410
  62.4183350   6.9659972  68.0738525  61.8887405   5.5565290  68.2285004
  13.0746803  11.1673059  45.4224815  12.7314091  11.5308199  46.2387238
  12.7535200  11.7597475  44.7427025  76.9295120  30.4305515  57.6270256
  76.7632370  29.4888554  57.5846901  76.4626465  30.7212181  58.4104729
  58.9655151  31.2729473  84.8344498  58.3433723  31.5258694  85.5165100
  58.5425606  31.5329838  84.0160904  46.3139229  18.9528065  26.9119263
  45.7310410  18.3521461  27.3763485  47.1938362  18.6270618  27.1013298
   3.2906349  28.0448360  72.3414841   3.4316170  27.3434544  72.9774246
   3.0236435  27.5924931  71.5412750  67.3634186   0.8440635   4.7907534
  68.0565414   0.2454575   5.0691104  67.1424484   1.3382757   5.5801573
  73.9389420  31.7137184  19.5013752  74.0442657  31.5225868  20.4333668
  74.7770920  32.0941391  19.2386799  44.5005989  26.8998032  29.3629341
  43.7021637  26.5427895  28.9739952  45.0037270  27.2284317  28.6178818
   5.3862033  69.0882416  37.2168694   5.5229888  69.7413254  37.9031677
   4.7920041  69.5122910  36.5977211  11.6065321  22.5186729  74.0082245
  12.2594213  21.8804760  74.2957535  10.9660358  22.0022659  73.5190277
  22.9793110  29.3869781  22.2925434  23.7669125  29.8286896  21.9750404
  22.4273033  29.2940979  21.5160809  56.5526047  58.2038574  51.5821991
  55.7922287  58.2944221  51.0078621  56.4371910  58.8876610  52.2419930
  27.2882271  53.2919731  55.6930542  27.9314423  52.8016357  55.1811218
  26.8319225  52.6251602  56.2062569   3.0270433  48.1662903  80.2014542
   2.1934562  48.5750198  80.4344864   3.6004434  48.3506508  80.9454041
  58.4078293  43.4268761  65.7858810  58.0370598  43.5122490  64.9075470
  57.8306427  42.8058357  66.2301788  14.4094591  65.8599014  22.8091354
  13.7931595  66.5608368  23.0215054  15.1241131  66.3004913  22.3493690
  71.8576584  38.4251480  29.0591259  71.3215942  38.1687012  29.8095284
  71.9562759  39.3730965  29.1480179  23.4787464  38.4897995  23.2651196
  24.4152660  38.3112259  23.1798439  23.0932198  37.6435089  23.4918308
  55.5149307  24.9452438   1.1105728  54.8394737  25.0633755   1.7784297
  55.0286789  24.7428303   0.3113112  41.1512680  19.6622162  75.1852112
  41.7663803  19.0970421  75.6525955  41.6850128  20.3952904  74.8787003
  17.6587124  49.0471535  86.1939926  17.7132149  48.1164818  86.4110489
  17.7491436  49.4949646  87.0351334  32.7422218  54.7188377  40.6220894
  33.1024857  53.8460846  40.4647903  31.8098316  54.6324234  40.4235725
  53.2225342   0.3613292  76.7741928  53.0270729   0.4967237  75.8469925
  52.9546509  -0.5413986  76.9461060  33.9403229  57.6625748  49.0359116
  33.5732651  57.9599228  48.2033958  33.4784775  56.8453140  49.2230301
  55.8147964   2.7700875  58.2001839  56.6404533   3.0017798  58.6254349
  55.2711601   3.5527768  58.2901344  64.8523407  52.9421272  85.6751022
  64.0836639  52.9802818  86.2442245  64.5407028  52.5090332  84.8804016
  82.9142838  38.4325943  64.4024811  82.2704468  39.0947380  64.6540222
  82.4587555  37.5989227  64.5195999  19.3178787  28.8218937  28.7930965
  19.6360168  27.9196014  28.8229465  18.3956127  28.7590179  29.0414944
  15.6830845   3.2563419  87.7110291  16.4550686   2.7357695  87.4890442
  14.9533949   2.7871425  87.3065033  44.2808952  48.2427864  74.6296387
  45.0887184  48.0943413  74.1380920  44.3762703  47.7044640  75.4153519
  82.0329742  58.5396576  72.3653336  81.5391922  58.9517708  73.0742493
  82.7765579  58.1237755  72.8016281  68.9896469   0.9878716  11.8110743
  69.0642166   0.5171677  10.9809484  68.7084122   0.3226030  12.4392109
  29.0310040  70.3976517  26.2244167  29.9353428  70.0839844  26.2285404
  28.5321541  69.6850662  25.8249092  41.3468513  63.6342697  32.1322441
  41.0279808  63.6877098  31.2313023  41.1152573  62.7499886  32.4162254
  27.3080235  68.9129181  50.9609604  26.3789349  69.0755844  50.7979660
  27.6307964  68.5297928  50.1453209   6.0432544  25.1488686  30.3187885
   5.8872356  25.0020180  31.2517014   6.5703163  25.9472542  30.2868614
  32.8227844  15.8401699   2.3665600  32.3014107  15.3833084   3.0266204
  32.5595093  16.7570267   2.4458747   1.7353141  63.6991615   8.0610485
   1.2205459  64.3959198   8.4682102   2.2546685  63.3349342   8.7778749
  59.5403709  40.9921150  13.5207300  58.7220268  40.6233826  13.1881876
  60.0764656  41.1285858  12.7395706   5.9686108  48.7785416  32.4199257
   5.0230503  48.8866081  32.3176079   6.1116700  48.8045578  33.3660164
  52.6961174  47.9390488  72.1199493  53.1550522  47.1250801  71.9124146
  52.9018784  48.1020279  73.0404510  11.6040087  42.0998001  25.5573826
  12.2978373  42.0450096  26.2145214  12.0297480  42.4841118  24.7910404
  69.7321548  39.3260193  41.6310463  70.4574890  39.0998039  41.0488510
  69.0352936  39.6177902  41.0432701  30.0886040  18.5671940  83.7494659
  29.7036514  19.4433556  83.7298431  29.7698326  18.1837788  84.5665436
  28.3792858  67.3606110  76.7442093  28.8294392  67.5966263  77.5553131
  27.5763016  66.9271774  77.0333252  75.3872375  30.4487228  31.4482365
  76.2603302  30.5233116  31.0630360  75.3336945  31.1799259  32.0636292
  28.5890541  59.6556778  63.4125404  29.4578648  59.8321609  63.7734451
  27.9869328  59.8544044  64.1296082  36.0554733  27.0585575  28.3382702
  36.8731842  27.4480915  28.6478539  35.9515076  26.2677116  28.8674088
  -0.0071614  68.7320786  19.3184662  -0.3627108  69.2574158  20.0352898
   0.7458793  68.2823486  19.7017479  10.1437025  31.4599648  27.6417351
   9.4700212  32.0972748  27.8788490  10.8748598  31.6550350  28.2278996
  66.5916748  67.4755783  12.5263329  66.6492157  68.4006271  12.7655239
  65.6586761  67.3250809  12.3743343  46.7191467  63.1397552  51.1397705
  45.8978462  63.3489723  51.5846634  47.3312950  62.9405975  51.8481750
  86.4827805  51.3513298  31.8033314  85.7047043  51.9027939  31.7213917
  86.7068024  51.3898430  32.7331505  47.9985733  16.8707390  16.6699753
  48.3732224  17.4796219  17.3064747  47.2703400  16.4574604  17.1337757
  10.7865820  16.8818645   6.6479917  10.0381432  16.2966194   6.7644339
  10.4296093  17.6371384   6.1806993  45.4911842  53.2532272  69.7565536
  46.2181282  53.8526878  69.9251862  44.7629128  53.6111145  70.2642593
  51.7931976  56.0159340  85.4018707  51.0633736  56.3462181  84.8779449
  51.9895248  55.1581383  85.0252151  64.4882507   1.4048114  52.0382729
  63.5863419   1.5593995  52.3191528  64.6020279   0.4570348  52.1090279
   1.9370742  35.1728477  81.4610672   2.7461185  35.6382217  81.2486877
   1.2945005  35.5132408  80.8386002  62.3493080  64.0745087  40.2815361
  61.5294495  63.7032242  39.9556313  62.4246979  63.7407990  41.1755104
  50.9307327  63.3259125  15.5818844  51.8550186  63.5744553  15.5693426
  50.8744164  62.6468430  16.2541370  60.0500298  29.7512894  81.8208008
  59.5918465  28.9291553  81.6464615  59.3555107  30.4087772  81.8605804
  51.8165474  35.5774231  10.3732891  51.4256439  35.5571136   9.4997835
  51.0684357  35.5976601  10.9700699  69.1541214   6.5705304  44.8451309
  69.8737106   7.1775341  45.0182533  69.5849152   5.7566662  44.5838394
  56.9517899  55.5192680  52.0457764  56.9741516  56.4712105  51.9481468
  56.0203667  55.3061829  52.1030388  29.9319420  64.6245346  66.3676910
  30.1558628  63.9331932  66.9906998  28.9778805  64.6876068  66.4126053
  53.9962883  67.2029800  73.2878647  53.1763649  67.3239670  73.7667389
  54.6606293  67.1084824  73.9704742  61.3332672  57.4278488  53.0744705
  61.8558350  56.7072105  52.7225647  61.0558891  57.9216614  52.3028221
  67.7348022   7.8355484  23.5382004  68.5462570   8.3370533  23.4590340
  67.1037064   8.4568710  23.9013958  74.0997162  39.8408394  49.8294945
  74.5804977  40.5089455  50.3180809  74.6573486  39.0640984  49.8736763
  65.2754974  37.1243095  63.3889275  64.5902023  37.5601730  62.8823509
  65.3474045  36.2545128  62.9958458  56.0583649  64.4792633  62.9310188
  56.4233475  65.3381729  63.1438408  56.6339073  64.1372910  62.2468910
  80.0404129  42.8249054  88.5755692  80.4790039  42.0831985  88.1587448
  79.5497589  42.4367447  89.3000107  34.2080956  56.4846115  85.3771973
  33.9520264  56.1900558  84.5031891  34.9746017  57.0382767  85.2283401
  64.9189377  63.3544998  -0.1721506  63.9700508  63.4643631  -0.1106871
  65.2501907  63.6553535   0.6740109  48.2275810  10.5853691  11.3726311
  47.6838531  10.9752102  10.6880789  48.4299774  11.3127489  11.9610090
  54.9231529  69.7569122  74.4208832  54.7955360  68.9854736  73.8687744
  54.0379257  70.0214157  74.6711655  75.1336746  32.0993729  68.6932831
  74.5217972  32.8298302  68.6023636  75.9314957  32.3996315  68.2579041
  60.5291405  23.7486706  57.4668999  60.8478241  23.8826447  58.3594933
  59.9448090  22.9933281  57.5320473  86.2379532  64.6156921  33.0640564
  86.1631622  63.8702126  33.6597900  85.4672089  64.5500031  32.5002594
  19.1461124  53.8197365  34.5202179  19.4131546  54.3601570  33.7766685
  19.8331280  53.9542160  35.1730270  57.6589546  39.5107460  86.3517990
  57.6719971  40.4476547  86.1561813  58.5380402  39.2066689  86.1260300
  48.8206062  32.1162872  79.5184402  48.7254906  31.2267208  79.1780701
  48.8881798  32.6656036  78.7374725  21.4395828  54.3637428  36.0460091
  21.6774006  55.2364464  35.7328568  22.1567860  54.1147919  36.6289978
  18.4428234  31.7808590  84.9062271  17.9288616  31.5222263  85.6711960
  19.2450371  32.1539040  85.2716370  65.3520966  39.3966942  50.8193398
  64.5937500  38.8296242  50.9592514  65.3382416  40.0023613  51.5604248
  10.8103380  12.5413857  56.5339165  10.6362925  11.9045973  55.8407784
  10.9601803  12.0096207  57.3155823  34.5467682  58.0023232  76.6033020
  34.5220718  58.1985626  75.6667633  34.5978813  58.8594437  77.0263443
  11.8066092  11.1980276  58.8230095  11.2294607  11.3778334  59.5651703
  12.6595612  11.5363960  59.0954285   9.3048153  11.5191870  19.9304161
   9.7883806  11.9953423  19.2553806   9.0721979  12.1876001  20.5748901
  20.6883278  47.6016769  14.9191017  20.3782234  47.0014915  14.2409830
  19.9101181  47.7952385  15.4417429  62.4354248  34.2247734  62.0835800
  62.4188919  33.4613533  62.6607704  62.1875267  34.9571114  62.6479034
   1.2108717   7.0545940  63.5451050   0.5795981   6.9346814  64.2545776
   0.7141903   7.4928141  62.8540916  13.0237331  23.6880913  30.7560539
  13.9114056  24.0230312  30.8828735  13.1292801  22.9521732  30.1531315
   3.6504884  62.9078445  38.6381302   4.5183349  63.3113174  38.6550179
   3.0581975  63.6014595  38.9285164  52.4528122  59.3438644  73.5051270
  52.9603043  59.0708923  74.2694397  53.0091858  59.9867249  73.0653458
  22.8159351  47.9681778  86.9580231  22.0600033  48.5532875  87.0075073
  23.1473751  48.0799103  86.0670166  66.1109085  59.2012215  73.9329605
  65.2891769  58.8461723  73.5939407  65.9268417  60.1282539  74.0844803
  52.6989021  35.2064438  88.3479462  52.2161636  35.9076881  88.7854996
  53.3650169  34.9421234  88.9824982  22.0789719  46.9012947   7.6327190
  22.7888680  46.3665771   7.2772584  22.4980774  47.4407043   8.3032570
  59.1384506  28.9025650  33.0867729  59.0987511  28.2971745  33.8271523
  58.9265862  29.7564297  33.4639473  30.5253792  61.3504868  41.0694923
  31.0404053  61.0819359  41.8303223  29.6581535  60.9754753  41.2228432
  35.0515747  12.8115435  29.2914314  34.4508514  13.2421904  29.8996296
  35.2561111  13.4832506  28.6408882  73.7051315  46.8613472   9.9813013
  74.6102829  46.5527725  10.0226488  73.7791748  47.7951202   9.7842932
   0.2368450  58.6299858   8.4595318  -0.1727500  58.1383362   9.1713934
  -0.0445305  59.5340500   8.5999680  48.5827827  25.3742542  75.7260742
  47.9463882  26.0890045  75.7068481  49.1599693  25.5474033  74.9823608
  55.4847870   6.2690396  74.1278229  55.4323883   5.9112277  75.0140839
  54.5897064   6.5419898  73.9264221   6.7975521  48.2878723  77.9001083
   7.2091193  47.6006584  78.4241104   5.8932939  47.9945831  77.7881775
  15.4842701   0.5456697  62.5694389  16.0982475   1.1696891  62.1823158
  14.7112885   1.0694762  62.7800522  26.3909931  38.1442223  26.3066902
  25.6425800  38.0243225  26.8912697  26.1465912  37.6795769  25.5063133
  55.6420021  58.6735344  65.2958374  56.4020996  58.4790077  65.8441467
  54.9496841  58.1070633  65.6364746  79.7063293  36.5589867  16.3118191
  78.9526596  37.0035820  16.6998196  79.4839020  35.6289711  16.3545494
  60.2668343  67.0912399  85.9671783  60.8580208  67.6005325  86.5215683
  60.1217499  67.6447754  85.1998520  55.9061508  54.1498756  72.1613541
  55.8557739  53.1940689  72.1726913  55.7734375  54.3858490  71.2432404
  19.5213375  43.7824059  20.0503578  18.6609325  44.1907883  19.9546432
  19.6704121  43.3393288  19.2150784  21.2319164  40.2963829  33.7419662
  22.0523109  39.8954544  33.4548378  20.9885445  39.8073006  34.5279694
  41.7872162  68.2761536  31.0571156  41.8293991  67.7337799  30.2695332
  41.3438492  67.7263031  31.7031212  72.1087952  33.1211281  35.5189247
  72.8657227  32.6613197  35.1557961  72.1183853  33.9758072  35.0880356
  77.2759018   4.3867025   2.4610922  76.3469467   4.5617719   2.6114969
  77.6615143   4.3707805   3.3370373  30.1190205  37.7628632  14.1152906
  30.7545471  38.4507523  13.9174433  29.4265995  37.8823433  13.4652824
  11.3557806  49.5876160  17.6947632  11.1088486  50.4318619  17.3172646
  12.0816040  49.2844620  17.1493187  36.9589043  58.9956894  81.4073334
  36.9109802  58.5150833  82.2337418  36.4359131  58.4756775  80.7971725
  11.1444588  43.1755219  72.8197098  10.9562311  44.0038757  72.3785324
  12.0300741  42.9488525  72.5359116  77.1140747  17.5187111  11.0010633
  77.4421768  17.7545795  10.1333361  77.7527618  17.8922920  11.6083126
   3.2263010  36.6465454  19.2222385   3.7229984  36.1619720  19.8815670
   3.8387306  36.7580452  18.4951000  51.4143181  11.4423227  35.9837265
  51.2314682  11.2683773  36.9070587  51.7934837  12.3211908  35.9760857
  25.6093636  60.3700600  68.5972443  25.7385349  59.5777168  69.1185303
  26.3250980  60.9488487  68.8598404  77.4562073  17.5524082  28.2756748
  77.5539398  17.8766117  27.3803711  76.5321503  17.3122196  28.3438969
   9.5805655   2.0822847  12.9973612  10.4761801   1.7458320  12.9672632
   9.6777124   3.0303094  12.9076767  69.1707916  52.1965485   1.4761426
  69.9020615  52.1786156   2.0935206  68.6295700  52.9304504   1.7671758
  50.2543755  46.1985016  16.9618759  49.5126534  45.8005180  17.4176083
  50.0823975  47.1393318  17.0005226  59.0433159   1.0534714  81.3489456
  58.1678848   0.8743308  81.0057831  58.9597778   0.9301879  82.2944946
  74.7919006  16.9002934  17.1759472  74.8043747  17.8290291  16.9445934
  74.0915146  16.8242683  17.8239536  30.8733997  57.7483368  51.8826981
  30.0978699  58.0755730  52.3384438  31.0287457  58.3861275  51.1860504
  55.1849594  71.5707321  85.9339905  55.3050766  71.9994812  85.0866470
  55.7686729  70.8127136  85.9037476  67.2633667  55.7553978  12.4597359
  68.0729523  55.9533119  11.9889555  66.9900284  54.9038200  12.1186628
  75.4464264  54.3619843  70.9685898  75.5457458  54.6409912  70.0583572
  75.4369659  53.4057655  70.9263229  76.9201813   8.9872618  60.2868271
  76.0587082   8.6467571  60.0456886  77.3070221   8.2987900  60.8277473
  18.5599899  51.6131401  63.6593132  17.8022156  51.0779877  63.8951569
  18.7521973  51.3702316  62.7536201  64.9098434  29.5801640  40.4246445
  64.0116806  29.4951687  40.1047935  64.8610764  30.2586594  41.0980644
  86.1551971  28.6087093  54.1453018  86.3513336  28.2878475  55.0255356
  85.9556427  27.8195667  53.6416550  86.5694733  43.2739334  86.1280975
  86.2660370  44.1816940  86.1165848  86.0293579  42.8492813  86.7945633
  37.7093391  71.2210617   2.7517130  37.7839088  72.0915756   3.1427066
  37.7799416  71.3748169   1.8095834  59.7253456  61.1797371  36.3010063
  60.5864182  61.3911057  35.9403038  59.1897087  60.9710617  35.5356445
  63.8486519  46.0235825  47.8244667  63.4296265  45.9668007  48.6832008
  63.3820000  45.3832092  47.2874451  81.6581039  30.7432060  24.4348602
  81.9313049  31.5146427  24.9313297  80.8069534  30.9831905  24.0685539
  52.4784927  70.5561447  71.4097824  52.6770210  69.6396255  71.6016464
  51.7525139  70.5186768  70.7870560  35.3931084  16.4951687  85.3118896
  35.8968773  15.8338947  84.8373795  35.7495461  17.3304501  85.0094223
  45.5313530  67.8256226  32.0196800  45.5389633  68.3733215  31.2346992
  44.9646873  67.0885544  31.7919750  14.1823130  54.1866646  57.6330757
  14.3860741  54.5299911  56.7631111  14.0559301  53.2477341  57.4964638
  70.4085770   7.0560546  10.2656908  69.9581909   7.8528495  10.5458755
  70.6195374   7.2113123   9.3450260  65.2638474  10.8889542  27.7033043
  65.5782776  10.2753878  28.3673058  64.5859299  11.3971863  28.1486835
  71.2794647   7.5648384   7.2293320  70.6345978   6.9148636   6.9501982
  70.9536743   8.3925810   6.8758645  20.1498280  56.5334396  21.8377094
  20.3475227  55.6151543  22.0218182  19.3621807  56.7162399  22.3499851
  27.1751137  67.4760437  67.7027359  26.9463730  66.5489960  67.7697678
  27.2884407  67.7609482  68.6095047  63.1798286  33.8547211  59.0719528
  62.5400543  33.5150681  58.4462090  62.6752625  34.4406204  59.6361923
   1.3189359  56.6945381  76.9673767   0.4985939  56.4059410  76.5673981
   2.0015943  56.3205719  76.4102783  68.5604095  23.9186764  73.5392990
  68.3070526  23.1189651  73.0783157  69.4846573  23.7897491  73.7523270
  29.1650047  59.4128609  54.7861023  29.6071053  58.8053627  55.3791656
  28.3177834  59.5777092  55.1999512  55.6664314  30.8757267  76.2282867
  55.1064224  30.5501938  75.5235519  55.1132660  31.4918079  76.7085800
  52.6156044  59.4768181  21.7310448  52.3456993  58.5594063  21.6893406
  53.5343552  59.4686241  21.4625988  58.6891899  10.7153921  79.4385605
  59.1562805  11.2891636  80.0458832  58.0758591  11.2942886  78.9858627
  12.6606388  30.3018894  35.3577385  12.0676241  30.3889923  34.6114273
  13.2375069  29.5754108  35.1217651  62.4426117  25.2857990  62.4611931
  62.6849136  24.9029045  63.3043480  62.0858917  26.1460476  62.6824570
  54.3618698  24.1500607  64.7108688  54.1797791  24.9601231  65.1871796
  55.2979813  23.9999313  64.8427429  82.8765106  54.1848640  41.3678093
  82.4243698  54.1766739  40.5241699  83.4919739  53.4535408  41.3168068
  65.7329483  71.0991974  47.5934105  65.7965927  70.6883469  48.4556084
  65.2438507  71.9072342  47.7486534  75.0809631  43.1371193  24.3636093
  74.5548172  42.3905220  24.6499557  74.6866989  43.4034920  23.5330467
  13.5120173  23.5595493  67.2040634  12.8746843  22.9928169  66.7694855
  13.4321012  23.3418331  68.1327438  26.2149696  67.2944336  44.8380699
  25.7313957  67.7550659  45.5237846  26.4807358  66.4698410  45.2450752
  55.4883499  67.0490265  75.8918610  55.8678207  67.6870956  76.4961014
  55.2269363  66.3166504  76.4499969   5.9226494  23.8062515   5.3987408
   6.0546489  24.3080425   4.5943694   5.3489518  23.0851212   5.1397514
  48.1410751  35.0282135   2.5032847  47.5267868  35.7538300   2.3920829
  48.8715439  35.4057579   2.9932952  73.8779602  22.9300861  73.0614395
  74.6109161  22.3729763  72.7994461  73.1296997  22.3350124  73.1085358
   0.4420927  41.7745628  64.5606613  -0.1139914  41.2764206  65.1597061
   0.1161268  41.5504684  63.6890144   0.1221430  59.5066719  17.9988441
   0.8633322  60.0610809  17.7549114   0.2764723  58.6831665  17.5359688
  11.3498344  33.5978966  78.3222198  11.9377995  32.8803177  78.0864029
  10.4829340  33.1940002  78.3619995  26.7521229  71.2206802  48.3974571
  26.1533070  71.9614334  48.4919930  26.5524845  70.6546402  49.1430931
  40.6041374  67.3075104  24.9080353  39.8866959  66.7532349  25.2150936
  40.2887001  67.6710663  24.0806561  31.0707321  43.0371170   3.9424193
  30.3651161  43.5918007   3.6097519  31.6525421  42.9140778   3.1923585
  47.8419838  63.6590157  48.9064941  47.3117752  63.4796104  49.6829758
  47.5651321  64.5305328  48.6235580  60.9761505  60.5037155  47.5498619
  61.1037483  59.5828667  47.3218422  61.6589851  60.6875572  48.1949730
  82.8100967  67.5242538  33.1465950  83.7118454  67.7844086  33.3347588
  82.2917480  68.3081284  33.3284798  10.6889219  40.7965775  89.2479630
  10.9961243  41.2747459  88.4777603   9.8524055  40.4182777  88.9771118
  14.3518467  43.6923828  33.1687317  14.9501848  43.0071564  32.8709297
  14.0325594  44.0983925  32.3628502  70.8652573   2.7347994  12.0924349
  70.1830750   2.0648665  12.1376934  70.4137878   3.5149751  11.7703524
  81.9015121  44.7993469   3.6648026  80.9728928  44.6311493   3.5047452
  81.9182129  45.6465607   4.1099792  26.2497177  72.0010223  27.7959290
  26.1317520  71.6044693  26.9327621  26.1283474  71.2773514  28.4105873
  23.3579483  24.3189583   1.8584747  22.4859791  24.3348560   1.4639498
  23.2122974  23.9984283   2.7485750  42.4911804  22.4910984  85.2390823
  42.8785286  23.1816788  84.7012253  42.1917419  21.8360424  84.6086273
  34.1046753  13.3514080  87.5399323  34.6059189  14.1450815  87.7271957
  34.7489624  12.6449575  87.5852432  53.9841080  21.5632954  83.2939682
  53.4685783  21.0371704  83.9052353  53.4316635  21.6361389  82.5156860
  49.4831276  33.1590118  31.0481453  50.2044182  33.3794060  30.4587440
  48.7718697  32.8908119  30.4664116  34.3271370  42.5059662  86.9362183
  34.9814377  42.3005524  86.2684402  33.5778732  42.8396263  86.4427567
  74.4557724  10.8619118  64.4493561  74.4554520  10.8545046  63.4921875
  74.6247101  11.7749748  64.6817551  24.9039497  44.5674286  32.4098930
  25.5589943  45.2224617  32.6508980  24.5187378  44.2960930  33.2430954
  54.2445221  17.7001057  61.4016418  54.7165375  18.2722073  62.0067329
  54.8101311  17.6475677  60.6312141  17.1621819  13.2660608  80.3289490
  17.1664524  13.6973534  79.4744263  16.2555790  13.3359432  80.6279755
  79.9528961   6.3739200   6.9781651  80.3968811   6.7789631   6.2331495
  80.3128357   5.4878969   7.0186863  62.3651123  25.9909782  73.5452118
  62.2680283  25.1427097  73.1124878  62.3601646  26.6268024  72.8297119
  39.6904335  67.8571091  22.0831642  40.4017220  68.1276016  21.5025349
  38.9150467  67.8440628  21.5220585  20.5080662  53.9411201  70.3497772
  21.2345467  54.5617867  70.4066010  19.8961983  54.2257690  71.0286102
  47.1369743  32.4759712  20.1420498  47.3219147  33.3830872  20.3852901
  47.1266022  32.0023232  20.9737854  85.1651306  39.8944206  69.1210403
  86.0329971  39.6321526  69.4280472  84.7837143  39.0913048  68.7664108
  34.7868881  14.6096344  27.1669312  35.3752441  15.2649603  27.5419216
  33.9089813  14.9261818  27.3797913  35.0450554  33.7219543  75.4084702
  35.8145638  33.1575813  75.3338242  34.3723145  33.1600380  75.7930527
  61.6355476   5.3684297  72.5935898  60.7685356   5.7523394  72.4626846
  62.2047729   6.1172619  72.7709732  34.6160583  57.5375366  31.1361389
  35.0499992  56.6882095  31.0550861  34.2728767  57.5468597  32.0296555
   6.0160856  13.7328825  32.9559021   5.6095815  14.5961514  32.8800430
   6.8380804  13.8118420  32.4718361  60.3368645   9.1647635  68.1402054
  60.7359085   8.3133383  67.9611206  61.0575523   9.7029238  68.4676590
  76.9832382  68.7537918  62.6416245  76.9571686  68.4864349  63.5603561
  77.1752853  69.6910934  62.6702919  44.2527466  21.7640705  80.0768509
  43.7844543  22.5975895  80.1235123  45.1700745  21.9963226  80.2210770
  36.6773033  21.1613960  86.5722961  35.7814980  20.9791031  86.2885132
  36.6881409  20.9228058  87.4992218  29.5101013  60.7792892  13.6854000
  29.1748543  61.6732597  13.7536287  30.4259262  60.8859062  13.4282427
  77.5012970  15.2775831  82.0940933  76.8860626  14.9911776  81.4190369
  77.9705505  16.0103111  81.6951675  56.6662636  17.8895664  74.0944824
  56.2680702  17.7186203  73.2409897  56.3101463  17.2089214  74.6655655
  80.1746140  32.5097961  50.3626289  79.9581299  33.1472282  49.6821556
  80.1737061  33.0166473  51.1746216  85.4699020  38.1828766  65.3716278
  84.5397797  38.3131485  65.1868973  85.5517044  37.2439194  65.5386658
  75.9676895  19.9661541  73.8790665  75.1506042  20.0538311  73.3882294
  75.6931000  19.9189911  74.7948227  51.9661255  37.6300850  34.0525589
  51.2290077  37.2755013  33.5554047  51.8057365  37.3476295  34.9529610
  70.6237259  11.8184881  40.7263031  69.9881210  11.6907253  40.0220947
  70.2252274  12.4803162  41.2914658  55.3474159  67.9145737  34.8188057
  55.5813370  66.9945374  34.6961403  54.5290642  67.8895798  35.3146973
  41.9711037  55.2801819  36.7074738  41.7152672  56.1417007  37.0369644
  42.7074318  55.0208855  37.2613869  69.1072388  58.6777039  34.3439407
  69.0477982  59.5301857  33.9126892  68.6067810  58.7831802  35.1530418
  22.6127129  71.3108978  56.5911446  22.6364269  71.5897064  57.5065346
  23.0940571  70.4836044  56.5802002  61.2451401   3.0432520  12.8854942
  61.9359016   3.2468405  13.5160770  61.7050056   2.9356327  12.0529222
  32.0742302  37.6472855  72.8824844  32.6838875  37.0596581  72.4361191
  32.1299438  37.3951035  73.8041840  76.6971130  41.1773453  30.3231068
  77.3937378  41.8298874  30.3947926  76.5641174  41.0714722  29.3811226
  54.0160713  11.9430513  56.6536140  54.4428673  12.7764530  56.4548225
  53.7044525  12.0421324  57.5532303  50.1035156  61.7215729   1.5928845
  49.5918999  61.1702614   2.1849449  50.4162941  61.1208000   0.9165176
  71.0023117  12.3619680  33.3588333  71.2032318  13.2366476  33.6917000
  70.4241333  12.5169287  32.6118851  81.1020126  49.5052071   4.0812712
  81.8972397  50.0349960   4.1375380  81.3049469  48.7147217   4.5814538
  76.1130142  52.3599358  15.8584709  76.9575806  52.5919762  16.2446003
  75.4752426  52.5469208  16.5473270  42.0983391  31.8029385   3.6563671
  42.9908333  32.1461372   3.6127722  42.1509247  31.0771694   4.2782402
  85.5490952  65.2537537  75.6430206  86.2614059  64.6154633  75.6052017
  85.9879837  66.1040955  75.6199188  20.7813473  52.6424065  77.8779449
  21.0340595  52.4592476  78.7828293  20.6803913  51.7786674  77.4779510
  86.8480301  11.2093382  48.2640190  85.9623947  11.0255890  48.5772514
  87.3117828  11.5360899  49.0349960  16.6911297  25.9117012  19.3414707
  15.9843559  26.5017395  19.0796318  17.4826736  26.3112755  18.9808712
  62.0430794  23.2025070  23.8909588  62.5951424  22.4658432  23.6286888
  61.3123398  22.7992458  24.3596134  47.8982620  59.8999977  29.3200283
  48.6057816  59.5787582  29.8790035  48.0021553  59.4164619  28.5004978
  28.0277367  49.6183739  42.6696854  28.7120972  49.5465851  43.3350639
  27.3774910  48.9632988  42.9232521   7.0478616  43.7610397  35.4180679
   7.7352982  44.1530838  35.9565506   6.3600388  44.4259605  35.3863029
  60.2847633  44.7380981  51.5094528  59.8832779  43.9198875  51.2169228
  59.7380333  45.0250816  52.2408600  30.5692368  71.7106247  17.1478119
  30.9430408  70.8894272  16.8282204  30.4338150  72.2352600  16.3587265
  25.9400005   7.1569357  45.2927971  25.7626648   6.2859135  44.9376869
  25.2629967   7.2872672  45.9568100  21.0740242  68.3171997  74.1449890
  21.0097198  67.3623123  74.1618958  21.2883778  68.5588074  75.0460510
  33.0302200   7.8516588   9.8535767  33.0514641   6.9042163   9.9882364
  33.6227112   8.2014999  10.5190067  65.5458755  47.0472527  62.8644867
  65.0836334  47.4516678  62.1303101  65.5617371  46.1139221  62.6526489
  70.1815872   4.3972225  78.8599243  70.2926407   4.6145277  79.7854996
  70.5632629   5.1399584  78.3920593  44.8622665  35.9848785  85.0964813
  44.7901993  35.7689667  86.0262222  45.4497185  35.3181801  84.7406082
  20.5547180  42.5329666  73.8524399  20.4343948  43.1497116  74.5745087
  20.5619221  41.6722908  74.2712708   8.6614323   7.1072955  75.4701385
   8.6691532   6.3781757  76.0902634   8.8987341   6.7111397  74.6316986
  21.6173954   0.8113448  46.5310135  22.1368504   1.4751166  46.9846687
  21.8984814  -0.0180800  46.9173775  74.9312744  33.9361229  14.4993935
  75.5765305  34.5237045  14.8926153  74.1152954  34.1345940  14.9587631
  54.8110809  62.2723999   7.3758039  54.4332047  62.6610985   8.1646996
  55.7387199  62.5051956   7.4148254  79.3771515  10.9299908  50.8892212
  78.7720642  11.6691208  50.8276939  79.1009979  10.3356638  50.1915474
  52.3458977  33.1158600   1.8831375  52.8533516  32.3157425   2.0192795
  51.4381065  32.8522682   2.0336893  49.8051147   4.3651915  26.1884232
  49.5135536   3.5627835  25.7555656  49.5218582   5.0688066  25.6045361
  30.2616806  68.3224258  57.8496399  29.5960007  67.7028809  58.1484146
  29.9536476  69.1735687  58.1609383  26.3446751  68.7255249  71.0068588
  26.6331921  69.6364288  70.9498825  27.1396942  68.2128830  70.8606567
  19.2402935  66.1088181  50.2181129  19.7051678  66.1260757  49.3815575
  18.3809147  66.4821243  50.0223160  82.4194412  67.4606323   2.1657486
  82.1719894  66.6791611   2.6600132  82.7915344  68.0507202   2.8211708
  71.3243027  56.3454552  15.7206879  71.8878632  56.7795982  15.0802593
  70.4445114  56.6656837  15.5215530  58.4676933  30.3714962  58.5568008
  58.1524239  31.1148491  59.0708656  58.5564003  30.7154026  57.6679306
  31.6778316  61.3425713  71.0076981  32.5308075  60.9096336  71.0427704
  31.1937408  60.9783897  71.7488174  76.4369965  50.1973763  88.4097595
  76.0059586  49.4783134  88.8716965  76.6046982  50.8514977  89.0881653
  11.9869223  14.4106503  82.9650803  12.2429152  15.2938700  82.6993332
  11.5333061  14.0529137  82.2018738  65.9275742  71.1195602  11.8247738
  65.2480392  70.5852432  11.4137115  65.6657104  71.1746292  12.7438087
   4.0213237  38.9766655  47.8876915   3.4392390  38.3757248  47.4226341
   4.8264556  38.4761086  48.0197411  33.9285965  48.2625198  45.1352959
  33.5496597  48.2515869  46.0142250  34.1802292  49.1752281  44.9942970
  74.4133301  11.4659710  33.1145706  74.1100082  10.5684967  32.9775581
  73.8793182  11.9926844  32.5198936  59.4926605  32.1472359  51.2197647
  58.5854530  32.3145142  50.9643631  59.4241142  31.6100407  52.0090408
  34.1212540  36.1351852  16.7783604  33.8886147  37.0314713  16.5359135
  34.2009239  36.1580276  17.7319660  31.8695164  36.4269943  75.4695740
  31.1870422  36.2341003  76.1124191  32.0192947  35.5942116  75.0220566
  81.4065857  42.7863045  64.6424332  81.3766327  41.8466225  64.4626312
  80.5153427  43.0068893  64.9131165  72.2426758  66.6401672  79.7829056
  71.6482468  66.3983765  79.0726776  72.3399124  65.8387222  80.2971649
  47.7230644  65.3205414  55.6842575  48.5828400  64.9394073  55.8624496
  47.9113083  66.1079330  55.1735573  85.2951965  23.2799301  67.8886185
  84.5897980  22.7294273  68.2285995  84.9206238  23.6972733  67.1128845
  20.3959103  57.2109299  81.5467606  19.6895809  56.5783730  81.6779251
  20.2517490  57.5512505  80.6637955  50.4986725  55.2180901  43.1422920
  51.0090103  55.6225586  42.4407272  49.9061470  55.9097557  43.4368172
  79.6082687  51.3704300  87.8374634  79.7523727  51.8076782  88.6766739
  78.6704559  51.4697685  87.6735535  51.6295395  23.2371788  65.3919220
  52.4337807  23.6797981  65.1207809  51.9270325  22.5270767  65.9606781
   3.3054247  56.1267357   4.7226944   3.4856319  56.5715752   3.8945186
   4.0893950  55.6033058   4.8889589  29.0650120  24.3412571  17.3419724
  29.8040161  24.9148579  17.5446720  28.2954388  24.8298912  17.6339035
  30.5854683  63.0509720  33.5803261  29.9758568  62.6784744  32.9432640
  30.0740509  63.7165718  34.0403938  72.4749069  40.1259727  85.3654633
  73.3821869  40.3639183  85.1745453  72.2411423  40.6619072  86.1233292
  39.3933411  64.6449814  82.7944107  39.7453690  65.5034790  82.5592575
  39.6324768  64.0788651  82.0605469  60.5230484  34.7605515  87.1472321
  60.2905884  34.0851364  86.5100479  60.1948891  35.5741501  86.7643433
  22.6098976   8.0681744  21.5892162  23.1896267   8.2182188  22.3359642
  22.0882797   8.8682985  21.5263863  21.4645824  48.8803520  72.9318161
  21.2309227  49.1648064  72.0482330  20.6445904  48.9276505  73.4233551
  73.4360199  46.9645004  12.8597889  73.3708420  46.7360802  11.9325314
  74.1460953  46.4154854  13.1923656  85.8572464  61.0449371  64.0096970
  86.1068497  61.8544731  63.5640793  86.6100540  60.4653778  63.8929939
  45.0688171  49.5794601  29.5622692  44.4596519  49.0103607  29.0918694
  44.8256531  49.4816360  30.4828854   8.3468590  25.9911251  36.0788994
   8.8603859  25.6500015  36.8111267   7.6983566  26.5643539  36.4876595
  83.0202560  34.4116325  31.3663654  83.8725967  34.6722527  31.0173378
  82.9922485  34.7966156  32.2422867  47.6045189   6.3746500  64.8983307
  48.0990219   6.8916173  64.2623672  46.6888771   6.5011182  64.6496582
  82.4403839  22.0608158   4.1568685  82.9908905  22.2334137   3.3930717
  81.6674423  22.6095638   4.0239363  82.1631699  43.8036499  51.8294983
  81.2512131  44.0631714  51.9606895  82.4555130  43.5111427  52.6927528
   4.1613631   2.3128691  79.2626038   5.0225658   2.5366902  79.6154022
   3.5489068   2.8456857  79.7697830  43.1624184  70.4602661  82.1860962
  43.3195343  71.0706253  82.9065247  43.7156410  69.7053528  82.3867950
  26.9664555   2.8544774   8.2238941  26.4041386   3.3060257   8.8532877
  27.4282055   2.1968238   8.7440004  67.3258362  67.8276138  40.3514709
  68.2828979  67.8289185  40.3350296  67.1022644  67.6697845  41.2687149
  39.1194077  21.9974117  85.4919891  38.4393845  21.6468029  86.0671997
  39.9344940  21.6283379  85.8320618  56.3286819  23.5661068  21.6887379
  55.5823135  23.2006836  21.2137280  57.0927849  23.1458168  21.2941017
  42.9807281  50.5490341  37.5214005  43.4861565  49.7777443  37.2647171
  42.1605606  50.1945496  37.8647614  11.7700491  38.7716064   9.8035173
  11.7260523  39.6684418  10.1351557  11.5357895  38.2266731  10.5547829
   2.8380456  65.7582626  22.7753391   3.6484182  65.4152985  22.3986416
   3.0541625  65.9308777  23.6917057  10.4538736  58.7807808  48.5441399
   9.6958017  58.9008522  47.9721756  10.3893509  57.8726959  48.8398552
  49.7439079  27.6497784  26.5171070  50.2687454  26.8832169  26.2865391
  49.8748550  27.7550716  27.4594440  70.3161469  24.7662277  25.2831612
  70.2696838  25.6422501  25.6661243  70.2961044  24.1746197  26.0353775
  15.6777716  54.2290497  75.1437454  16.1235104  53.3983154  74.9781342
  14.8976202  53.9869499  75.6427307  33.2588463  58.5627937  23.7077236
  33.4944725  57.6631699  23.9344082  34.0960007  58.9930458  23.5336933
   8.8964100   1.3871888  43.6369324   9.3086386   2.0035386  43.0316124
   8.7341700   1.9008282  44.4281883  69.6089401   6.0923347  60.3627357
  69.8497238   7.0098004  60.2342339  70.1495743   5.6126652  59.7351494
  80.6648178  48.6018333  59.6276131  80.7813492  49.0963097  58.8163528
  79.7198181  48.6104431  59.7797127  23.8286304   4.6319032  60.7178841
  23.2726841   5.2431293  61.2011642  24.5451546   5.1720476  60.3846169
  82.8158646  20.2089043  34.1078377  82.8621750  20.9583073  34.7015419
  83.6903076  20.1543522  33.7223358  40.0709496  16.7396469  78.8235321
  40.6474686  16.2810535  79.4347229  40.3957214  16.4935246  77.9574051
  69.9716034   9.0758905  76.2929230  70.2524490   9.8835897  76.7230148
  70.6107025   8.4206638  76.5730438   6.9469571   1.9503516  19.4794216
   7.3524356   2.2756696  20.2831554   6.8074889   2.7337873  18.9474354
  67.9480133  43.8253403   1.9114069  68.0183640  43.0564499   1.3456424
  67.9887772  43.4730415   2.8004827   9.4131012  49.9727707  87.6439056
   8.8854589  50.6857758  87.2841110  10.0151949  49.7401199  86.9370880
  57.1241684  18.1425114  25.1814594  56.6950951  17.3616562  24.8316097
  56.8786736  18.1565456  26.1065350  11.1115074  28.1913643  70.6467056
  10.7288008  29.0628643  70.7479706  10.5051003  27.6088619  71.1040878
  60.9221306  52.8520317  37.0619049  60.3176727  52.3182526  37.5776024
  61.6621170  53.0099716  37.6481705  50.9763184  43.3161812  24.2701359
  51.0861511  44.1017456  23.7343597  51.0836945  43.6232948  25.1703491
  86.1094284  45.4270554  59.8512459  85.5316010  44.8077660  60.2971458
  85.7330170  45.5181885  58.9758911  19.4004974  44.8087997  16.3458138
  20.2202797  44.4522476  16.6879539  19.4242840  45.7354736  16.5844479
  23.6217823  30.3977737   4.7212267  22.8891811  29.9055767   5.0917292
  23.6544533  30.1247654   3.8043673  66.7033310  26.6881714   9.6942987
  66.2680359  26.7524128  10.5443697  66.0849991  26.2071056   9.1443272
  48.6712189  54.2471733  35.3320122  49.2920761  53.5197258  35.2922173
  48.0689430  54.0097313  36.0370827  84.2228317  65.7736969  15.3344040
  83.7611084  65.5816116  16.1505833  84.6193314  66.6326675  15.4799700
   9.8176947  55.2243729  60.1035995  10.7013512  55.3974152  60.4283142
   9.9056721  55.2386169  59.1505585  43.8085938   0.4457865  84.1638870
  44.7490807   0.2734026  84.1191483  43.6446304   0.6417727  85.0863495
  15.9546385  62.7266541  49.8229828  16.0204144  63.6502647  49.5803947
  16.1192341  62.7143555  50.7658424  51.9667053   1.0132569  47.5056953
  51.8520660   0.1935768  47.9865456  51.8796005   0.7652081  46.5853081
  36.5440865  63.5736961  43.2349930  35.6997566  63.3475304  43.6251068
  36.5441971  63.1268501  42.3884964  37.0591164  25.2116547   8.0304708
  37.9923973  25.3447781   8.1962719  36.6203423  25.7985592   8.6463060
  31.9366703  43.9356384  64.4976196  32.8798180  43.7817612  64.5526047
  31.5892086  43.1469879  64.0810471  77.9102249  21.5801620  25.2269821
  77.8587875  22.3169174  25.8358974  78.6571426  21.7857761  24.6647854
  20.0547562  62.3880272  78.3257294  19.8489265  61.4691048  78.1541367
  19.2048378  62.7978058  78.4868317   2.4940255  64.4868774  84.2920456
   2.5131881  63.5971069  84.6444321   3.3458195  64.8555527  84.5260468
   3.5190935   9.2156458  68.6866074   3.8931153  10.0784206  68.8653793
   4.2460084   8.7101679  68.3228531  52.5772896  34.4465790  22.7136974
  53.0801926  35.1839294  23.0595760  51.9900856  34.8391685  22.0677128
  47.3578835  22.2114925   4.6964822  47.7978249  22.4022884   5.5249023
  47.7929611  21.4238300   4.3700953  43.4806862  58.5166283   5.2712483
  43.6883888  57.5827255   5.2409759  42.9226570  58.6627693   4.5073915
   4.5906510  44.4181328  46.7300835   3.8273063  43.8453636  46.6561127
   4.9539719  44.2226448  47.5938072   6.1687365  11.3000898  56.9427757
   5.7808414  11.9594688  56.3674583   6.9531388  11.7209082  57.2947083
  64.8363876  43.8549576  80.7509613  64.2947235  43.1213341  80.4600525
  65.7088699  43.6585884  80.4097061  20.0373230  24.7639332  74.9733582
  19.5661888  24.5887566  74.1587524  20.7336617  24.1074638  74.9932327
  73.4059601  35.2197418  83.8499222  72.7548676  34.5924187  83.5356293
  74.1176605  35.1660957  83.2120895  80.6006317   1.3593572  60.7177429
  79.6889343   1.1190709  60.5525093  81.1104813   0.6591454  60.3103294
  58.6754150  57.7491455   2.1758263  59.5145645  57.3672981   2.4332232
  58.9112740  58.5232658   1.6646106  72.8576965  36.7076836  37.7119484
  72.8300858  37.6276970  37.4491959  73.1615753  36.7267876  38.6194344
  42.6549759  42.6455193  88.1282272  43.3983421  42.4069939  87.5743866
  43.0378304  42.7910461  88.9933701   1.2165095  37.8679123  62.2054901
   1.1241360  38.2504234  63.0780640   2.0215735  37.3523979  62.2539635
  18.9785328  69.7560501  49.4976692  18.1328182  70.0466309  49.8390770
  19.5396862  70.5291443  49.5582085  32.5677223  28.0076523  14.2084646
  31.9882030  28.7690678  14.2336884  32.9572639  28.0319920  13.3344526
  35.2037086  51.3601837  84.2105865  35.8876152  51.9916496  84.4336472
  34.4627762  51.6035347  84.7655945  21.1119099   2.6179211  63.7679024
  21.4083786   2.8729749  62.8942413  20.1597919   2.7104988  63.7342529
  27.8447800  50.6360054  66.0809860  27.7517719  51.0886726  66.9192429
  27.9858017  49.7194252  66.3181000  35.5010338   3.1613071  33.0419884
  34.5473938   3.0793078  33.0508347  35.7629356   2.8191466  32.1872559
  17.4827633   7.5372477  64.3081665  17.0752258   8.0694628  63.6248703
  18.2996235   7.2286158  63.9160957  27.8372440  37.8177834   8.7753315
  27.2063885  37.2284508   8.3618841  27.6434669  38.6770515   8.4007082
  33.0547981  11.8939781  79.2922287  33.6973953  11.2814903  78.9342270
  32.7784920  12.4179001  78.5403061  30.5220776  62.1632080  56.5627213
  30.4921722  62.1450882  55.6061592  31.2357750  62.7669182  56.7686462
  57.5398445  30.8308029  73.7765274  58.2432289  30.3115292  74.1661911
  57.0743752  31.2036343  74.5252380  31.1008568  46.1929893  47.4056396
  31.3346844  47.1193848  47.3478088  31.4968281  45.7971001  46.6292953
   9.5800142  13.9918985  44.4145622   9.5516624  13.3189907  45.0947266
   9.3701487  13.5243044  43.6061401  51.5421371   2.5956271  20.4988232
  51.3874207   1.7313877  20.1175289  51.2152176   2.5237803  21.3955917
  19.9367466  52.5377579  82.7799683  19.2895813  53.1975708  82.5308609
  19.4495335  51.9169350  83.3216629  33.8437576  53.0702896  12.1209869
  34.7310333  53.3143692  12.3844233  33.4823418  53.8660736  11.7306786
   2.1859646  42.6798172  14.6695747   2.8378675  42.9464569  15.3177710
   2.7014148  42.3809319  13.9204340  34.5805168  62.9364548  82.4004745
  34.0042381  62.2725067  82.0219193  35.2963486  62.4366722  82.7929459
  86.2654190   5.1700153  42.8927765  86.5544357   6.0279293  43.2037201
  86.9306717   4.5618777  43.2150269  70.6218185  33.5605011  86.5173416
  70.2461700  34.4108696  86.2893143  70.5375214  33.0395241  85.7187729
  62.0633736  60.1310005  67.6882782  62.7042618  60.5756912  68.2430267
  62.0215416  59.2406006  68.0370865  22.0034313   4.5680461  15.0675783
  22.2480316   4.7165942  14.1541586  21.3017673   5.1977348  15.2330799
  80.9624100   1.7024702  77.1085663  81.4471741   0.8901582  76.9623260
  80.9166260   2.1128502  76.2450180  23.6804733  10.6819334  19.4752045
  24.1152229   9.8304224  19.5216084  22.8599014  10.5582190  19.9522705
  52.1854248  40.5364990  33.9941559  52.0189362  39.5955009  34.0493126
  52.4867897  40.6741791  33.0961304  79.2440491  64.5566940  13.8375063
  79.9407883  64.2877502  14.4362202  78.4820557  64.0466766  14.1122246
  36.4730110  52.9806938  18.0435352  36.9568710  53.7131920  17.6620197
  35.9711647  52.6188087  17.3131790  33.3554764  18.6167889  81.1456223
  34.0466385  19.2313690  81.3922348  33.3806419  17.9428692  81.8249054
  58.0423813  58.3589020  88.0189362  58.5444145  57.5599518  87.8580856
  58.0412827  58.4533958  88.9714584  60.0121117  56.9147491  55.2928047
  59.4485626  56.1832771  55.0406265  60.3794823  57.2298431  54.4669800
  46.3369980  44.1157341  85.5676804  47.0050087  43.5790825  85.9942932
  46.2405777  44.8773804  86.1393661  84.0387802  43.1253777  18.1579666
  84.5012970  42.4553108  18.6612759  83.7929077  43.7849960  18.8065662
  79.5300598  33.8227654  55.1135635  80.2381439  33.7735672  54.4713593
  79.6514206  33.0488739  55.6636505  29.6130161  43.7567863  70.3574982
  30.5100937  43.9683876  70.6157761  29.3927231  44.4135513  69.6969223
  45.4320107  60.2882881  23.2428837  45.7038803  59.3721161  23.1886101
  46.2227097  60.7855530  23.0337009  63.2325363   3.8168447   6.6772842
  64.1753616   3.8116508   6.8424654  63.1445503   3.4916475   5.7813287
  54.2414398   5.2895503   4.7752504  55.1807861   5.4520593   4.6889586
  54.1741066   4.3461285   4.9224024  52.9470558   7.4092660  21.8820210
  53.8829994   7.5853925  21.7860107  52.7356529   6.8313336  21.1488533
  81.4039078  38.7106552  58.8582039  81.7280731  38.4818916  59.7293015
  81.9841080  38.2441216  58.2565842  67.1375046  54.0961533  78.9634933
  66.5087738  53.6712837  79.5469513  67.9373322  53.5784225  79.0554504
  50.7789116   8.6793299  16.7425022  51.1057129   9.4504652  17.2059479
  50.2887764   9.0351915  16.0013142  17.9087124  62.4277534  35.6666565
  18.3414898  62.2833862  36.5081367  17.1781406  61.8092957  35.6638374
  17.3653851   1.3760483  34.9053726  16.9322929   0.8653871  35.5893936
  18.2927151   1.1554229  34.9926414  48.1197662  63.4759560  11.2801180
  48.1601524  62.6646500  10.7737789  49.0061684  63.8337822  11.2302542
  65.9548798  25.4583893  12.4078035  65.8458099  24.5378723  12.6465216
  66.6805878  25.7627678  12.9527187  68.1784668  24.2704372  64.8786316
  68.8772278  23.6493893  64.6730270  67.4090805  23.7225475  65.0338287
  78.2972946  69.3661423  20.1119308  77.8996124  68.4972153  20.1671524
  77.6996994  69.8682785  19.5578842  53.4221344  63.1574211  62.7504463
  53.6370239  62.2261238  62.8027840  54.2306862  63.5733490  62.4513206
  12.4351978  17.9429913  28.1969604  12.1158581  18.8009281  27.9173222
  13.3508940  18.0931721  28.4318619  72.6185837   2.8686001  69.2247314
  71.9610138   2.1763272  69.1569824  72.1637573   3.5891166  69.6608734
   1.1240891  66.8397598  48.3167114   1.5450938  67.3478699  49.0101128
   0.5722235  66.2110291  48.7818680   0.7646959  64.4168167  68.9365845
  -0.1816256  64.2747269  68.9138336   1.1168859  63.7851181  68.3095703
  86.3414841   5.4542546  84.2533417  85.6886597   5.3213720  83.5660324
  86.0111313   4.9514971  84.9978790  46.6483345  12.8713865  22.2829075
  46.8884926  12.9291449  23.2076874  47.3306961  12.3257599  21.8918743
  59.5827751  19.5442219  54.2165565  58.8797150  19.4948921  54.8642502
  60.1281357  18.7783718  54.3962402   2.4465957   1.6334130  23.4630795
   2.6994379   2.5460052  23.3235149   1.4905758   1.6398685  23.4160004
  56.5008736   6.4390211  18.7702675  56.4384003   7.1474695  18.1296196
  57.4388313   6.2612844  18.8401108   3.2142158  44.4898071  39.6965714
   3.7832453  43.7490654  39.4874268   3.7689724  45.2601318  39.5737915
  52.0936623  11.3663673  84.5118179  52.4954224  11.8438253  83.7859650
  52.5306664  10.5147505  84.5093689  67.7348175   0.8422217  77.2363739
  66.9847412   0.5242491  77.7388763  67.7988129   0.2403697  76.4948196
   2.8612556  16.6850662  83.0443878   2.4218676  15.8420391  83.1560822
   2.9737644  17.0164165  83.9353333   4.0725155  25.7284431  53.8851433
   4.4277449  26.4479275  54.4070511   4.3640823  25.9134312  52.9923973
  49.9595108  49.1121750  70.8710403  50.5508118  48.3836632  70.6816788
  49.1674004  48.6956787  71.2106400  49.2277069  24.7615814  27.8321724
  48.6061935  25.3840103  28.2097149  50.0737228  25.2062664  27.8845215
   1.0517398   3.1492155  60.1523018   0.3465590   2.9041178  59.5532379
   1.8548486   2.9583216  59.6677322  51.7917671  44.6739769  45.0324326
  52.6040993  44.2916908  44.7004623  51.1248741  44.0106430  44.8550148
  32.7687416  24.3479767  84.0746689  32.9957848  23.8892765  83.2657928
  33.0749435  25.2441864  83.9358215  56.1649857  38.0092506  53.5882950
  56.8588257  38.6139641  53.3253593  56.6201019  37.3154030  54.0654488
  14.5985355  41.8756866  88.1646042  15.4722691  41.9575157  87.7823410
  14.2511625  41.0632668  87.7964554  73.9318466  19.0672321  11.2643242
  74.3003845  18.2229309  11.0043793  74.6533203  19.6869450  11.1563063
  85.4972382   1.5842446  78.7149429  85.9147186   0.8105742  79.0935898
  86.0617065   1.8257664  77.9805984  10.4993925  30.0797405  31.1625633
   9.6194506  29.9986343  30.7946568  11.0243673  29.4496269  30.6690159
  10.9429607  66.5786972  79.0484924  11.5854635  66.1971207  79.6466675
  11.0518084  67.5241089  79.1513901  72.0203781  54.1933746  52.3419418
  72.4993591  54.5271034  51.5833702  71.0984650  54.3202820  52.1178856
  39.8294601  67.3589859  74.5237045  39.2026253  66.9847031  73.9046478
  40.6746178  67.2906952  74.0795441  51.4020195  49.3880043  50.4963684
  51.7350464  48.4981804  50.6127090  50.9803772  49.3755035  49.6371269
  70.6751556  34.7397919   7.8571296  70.8142548  35.2530670   7.0612445
  70.5700150  35.3934975   8.5483923  11.6243610  37.7514000  44.7332268
  12.4097052  37.7720108  44.1863785  11.2215071  38.6103668  44.6062889
  84.5415115  34.5805969  75.2277603  84.1302872  34.4577484  74.3721771
  85.4790039  34.6225281  75.0391083  85.2310562  28.4105625  30.8941097
  85.2692261  28.1396580  29.9768391  85.4395905  29.3446121  30.8768673
  11.1247616  55.5826302  54.5922737  11.1601362  54.6262627  54.6107063
  11.7978973  55.8592339  55.2140541   0.9407486  54.3172836  60.2090340
   1.3036124  53.5897446  60.7142563   1.6745605  54.6316414  59.6808929
  85.1605911  70.1981888  20.8612709  84.9566040  69.7653427  21.6902866
  84.3752518  70.0762100  20.3277969  85.4507828  24.4695015  25.3215790
  86.2668228  24.8843555  25.0419254  85.5412369  23.5560341  25.0502357
  80.2546005  18.1465530  74.1743088  80.7794724  17.3470688  74.1347275
  80.2760468  18.4017277  75.0966187  63.9748611  37.3552818   8.0558205
  64.0807953  36.7833633   7.2956095  63.0445557  37.5805664   8.0582781
  25.4586105  68.7556992  38.6230621  26.0846119  69.3647461  38.2313843
  25.9312859  68.3666534  39.3588982  48.7926483   1.3335298  49.4261703
  49.4036484   1.5035783  50.1431046  49.3439064   1.3008982  48.6443253
   9.7939777  51.2174149  76.6799545   9.6369162  52.0566940  76.2473145
   9.0179062  50.6948318  76.4778366  18.1803913   3.7290299  59.2951965
  18.5911980   4.5851464  59.4157524  17.6392746   3.8311458  58.5122528
  86.5380020   7.4591966  17.7501850  86.4396820   7.8244419  18.6294804
  87.1656876   8.0389824  17.3188076  22.6291656  56.9742165  68.4116287
  22.8433838  56.8279800  69.3330154  21.9040241  57.5987511  68.4305191
  67.8898697  49.4914360  78.6359787  68.5227356  49.0988274  78.0346756
  67.0588913  49.0691223  78.4183960  18.6231289  45.9107552  80.5560913
  19.5606232  46.1016273  80.5861740  18.5138817  45.1552048  81.1335297
  44.8587151  67.8407364  65.9936600  44.7934952  67.0419998  66.5170975
  44.9277229  68.5447388  66.6385269  10.2388535  38.1176224  62.9470978
  10.6735411  37.2771645  63.0916939   9.5559034  37.9265709  62.3042068
  11.1143723  25.2359810  70.2472153  10.9153414  24.9783020  71.1473389
  12.0674887  25.1730366  70.1852493   9.7824678  68.6148605   9.1234732
   9.3472595  68.5279541   8.2753744  10.0308981  67.7206955   9.3579445
  77.0964279  53.3938980  81.4778748  76.9138260  53.8574829  80.6605759
  77.9772720  53.0383339  81.3599014  31.1459675  37.3411980  84.0518875
  30.9693222  36.5219193  84.5142899  30.5155468  37.3504677  83.3316727
  59.2975426  38.2152023  79.4342270  58.5855064  38.6824570  78.9972916
  59.8319626  37.8701172  78.7190018   4.2839837  63.6428757  26.9285393
   3.9314322  63.2832527  26.1145306   4.9188437  62.9901009  27.2236137
  58.4927216  60.4546165   4.0253658  58.0477371  61.2649612   3.7772460
  58.5688934  59.9631119   3.2075300   5.5075560  11.8703814  30.1816196
   5.4062810  12.2038898  31.0731068   4.6288080  11.9213858  29.8055439
  47.4391060  39.0415421  25.8096809  47.4249725  38.8244820  24.8775234
  48.2703018  39.4989891  25.9365044  56.3900986  42.4038658  20.1189728
  55.9672012  43.0811043  20.6469250  56.0247803  42.5208778  19.2420006
  46.4931450  68.0546265  76.3058472  45.8679886  68.4977722  75.7322311
  46.8673363  67.3613739  75.7621536  78.0494919  61.8751869  65.2464142
  78.2757416  62.4532471  64.5177994  77.6234665  62.4485054  65.8836288
  53.9874382  63.3305664   5.1011591  54.0998993  62.9979210   5.9916263
  54.4177055  64.1855774   5.1087584  80.4850006  18.2337227  55.3854027
  79.6759644  18.1637287  55.8921547  80.8534775  19.0802212  55.6381836
  31.9608097  12.4174595  85.9982986  32.7710190  11.9163074  86.0912399
  32.2510643  13.3057833  85.7912598  40.4226990   1.6646909   3.4429424
  41.0498810   0.9968792   3.1656277  40.9527664   2.4505265   3.5760710
  60.3210373  28.4809780  73.2902832  60.7541847  29.1822186  73.7769775
  60.9970779  28.1448364  72.7018890  44.9866333   5.9300127  79.8688660
  45.6598320   6.1040683  80.5266953  45.4680595   5.5748787  79.1216431
  62.7406693   4.4967093  60.3246193  63.1171608   5.3102336  60.6602745
  62.8522530   3.8687611  61.0383835  65.4761276  20.7556572  12.7870455
  66.1995239  20.3763752  13.2861109  64.6882172  20.4265480  13.2196255
  45.6175461  45.2878036  35.0352936  46.5447731  45.3421478  35.2666626
  45.3773003  44.3799362  35.2204552  58.3865128  47.7446709  77.3946686
  57.5466080  47.4169807  77.0730896  58.6769218  48.3603363  76.7217255
  12.2394123  62.2434731  72.2341156  12.4833708  63.1039505  71.8930969
  12.4618635  61.6347885  71.5296707  29.3019886  53.3620567  11.2958279
  29.6234035  53.8426743  10.5329847  28.4367180  53.7342033  11.4662580
  80.9645920  18.4470043  76.8412399  80.9324875  18.9335823  77.6649170
  81.6313095  17.7755222  76.9855652  85.5068893  64.0135040  10.3949137
  84.8347778  64.2966537  11.0148487  85.9194412  63.2597313  10.8166552
   9.5713549  66.6981735  31.6207104  10.0405827  66.9159546  30.8153343
   8.7071600  66.4123306  31.3245831  78.2989883  59.8938599  68.2326889
  78.7675095  59.6240463  69.0225754  78.9319153  60.4236641  67.7479935
   6.0082688  63.7063370  82.2592926   6.9086680  63.6935539  82.5838699
   5.9731998  62.9928703  81.6221390  69.8500671  55.1057053  35.9659691
  70.0246658  56.0035324  36.2481995  68.9998627  55.1531219  35.5287781
  61.7333107  23.1512833   4.1670609  62.0878410  22.2954292   3.9261169
  61.0560837  23.3228359   3.5127149  19.2384319  34.4829636  28.4402962
  18.6818829  34.3965797  27.6663303  18.9659252  35.3087807  28.8402958
  82.0037766   0.9771100  81.6808624  81.5032730   0.1614024  81.6621246
  81.5793381   1.5335945  81.0278625  72.9037628  15.3655872  65.0086136
  72.3095169  16.1095104  65.1070404  72.6936264  15.0034418  64.1478424
  56.5071793  42.8196983  14.1799517  56.8522987  43.7123642  14.1634121
  56.6507950  42.4909058  13.2925386  77.0028763  66.1482391   7.2061253
  77.5486908  65.3700562   7.3190560  77.3104706  66.5399704   6.3887115
  54.9363785  66.6026154  52.6105995  54.1079521  66.1241989  52.6432152
  54.7638893  67.4131699  53.0896492  35.9947624  70.6330490  83.2716293
  36.2584724  69.7935333  82.8949280  35.3525581  70.9818115  82.6534271
   6.2434611   3.0057898  62.9195557   5.4157672   2.9797060  63.3996315
   6.8327217   2.4482543  63.4276466  77.9347992  54.0769043  87.9177704
  78.4328003  54.6903038  88.4581146  77.5410461  53.4703712  88.5449142
  61.1743965  50.5445137  52.4994087  60.7440491  51.2425957  52.0057335
  60.4981079  49.8758507  52.6078186  51.9885750  37.2306595  16.2283840
  52.8417091  36.9844475  16.5858364  52.0650444  37.0630836  15.2890739
  36.6155930  39.4082832  37.1542587  36.6748390  38.7881470  37.8810005
  35.6814842  39.4483910  36.9491730  84.5280151  17.1150990  31.4878101
  85.3449783  16.7530384  31.1447201  83.8910065  16.4080238  31.3853550
   1.6617260   4.0311265  43.6563110   1.8408877   4.2261310  44.5761490
   2.2897143   3.3450215  43.4302063  25.5712566  48.1884575  46.4136238
  25.2548485  48.7441826  47.1258621  25.7609577  47.3484192  46.8314514
   1.7129915  23.5685062  57.8348694   2.3715048  24.1326637  57.4295044
   2.2191617  22.8730412  58.2548103  82.7197952   8.9758329  28.2136364
  82.7385025   8.3756533  28.9590683  82.0179062   8.6420250  27.6549320
  71.3934937  64.4073181   8.1901979  71.8529053  64.8194046   7.4585147
  71.6519165  64.9212646   8.9552488  85.4746704  37.2928505  77.6868286
  84.6880951  37.0569534  77.1950150  85.4179688  38.2430077  77.7879181
  83.6115570  61.5304184   2.4950700  83.3528824  61.1147652   1.6725414
  84.4494247  61.9494514   2.2985473   9.3018713  48.4408913  82.4290771
   9.5139208  49.3722610  82.4908524   9.8794222  48.1088295  81.7417679
  71.5752945  26.1830883  85.9608231  70.8096161  26.6209240  85.5889816
  71.2494049  25.3279724  86.2415466  15.7762280   3.3445930  46.4965401
  16.1260605   2.4830303  46.2694778  16.4577427   3.9591525  46.2243538
  69.4319305  65.1965256   6.1501880  68.4922333  65.1143265   6.3128200
  69.6368942  66.1021957   6.3825130  31.5777512  53.5243034   0.7251048
  31.6058064  54.4805489   0.7573002  31.3363895  53.3220673  -0.1788184
  51.1305084  54.4238625   2.3881965  50.3595772  54.4544334   2.9547324
  51.0759659  55.2242928   1.8661137  28.7505836  51.9012909  53.9593468
  28.3442478  51.0509453  54.1267776  29.3363132  51.7451477  53.2185555
  76.1253967  66.2854691  13.6433315  75.2416458  65.9292145  13.5522146
  76.0983658  67.1170807  13.1701202   0.5840952  68.1366653  26.6216526
   0.4373362  68.3309174  27.5473747   1.1442838  68.8489609  26.3133411
  31.4599056  64.7401581  62.0114594  30.9711857  65.4699402  62.3919830
  32.1541786  65.1570435  61.5011406  74.1786118  29.0608826   3.0179019
  73.7407913  29.2964325   2.1999383  73.5937347  28.4235306   3.4277017
  72.3826599  41.0708618  43.2725716  71.8636551  41.7835846  42.8998871
  72.0671997  40.9901428  44.1726837  13.1797695  45.5638771  58.3265953
  12.3359432  45.1665611  58.1113548  13.8255730  44.8994102  58.0864868
  33.2799644  69.2971954  11.5489235  32.8810387  70.0791779  11.1673651
  32.5658531  68.8709564  12.0228367  10.4396811  67.3502502  22.5412712
  11.2337561  67.4772491  22.0220928   9.9229670  68.1408920  22.3859577
  24.2098751   8.7008266  87.7478333  24.3368568   8.1428242  88.5151215
  23.7902069   9.4893188  88.0919113  14.3540859  49.0017090  48.4565201
  13.9179468  48.4234962  47.8306732  13.8827772  49.8317108  48.3844528
   1.5806694  41.5279884  73.1965866   0.7845753  41.0516624  72.9608383
   2.2939987  40.9739456  72.8796844  17.0001335  13.0629168  85.4732056
  17.8456211  13.0598192  85.0244675  17.0709095  12.3629742  86.1222839
  54.1774025   8.3558655   1.2460045  54.1468468   7.5623732   0.7115244
  53.4048691   8.8541679   0.9793245  55.9519196  27.6255455  27.8620548
  55.1475220  27.1269760  27.7185001  56.1886063  27.9533253  26.9944324
  65.6311646  26.7456093  39.5578880  64.6809692  26.7759876  39.4463501
  65.9025345  27.6635132  39.5514832  57.0197716  62.7455063   3.1509511
  57.2386475  63.2676239   2.3791230  56.0806503  62.5793533   3.0692737
  82.3737564  49.5345306  71.8135529  81.6242752  49.6871452  71.2380447
  82.4490280  48.5814819  71.8611603   9.0714560  28.7232342  23.1662674
   8.2748680  28.2421684  23.3904457   9.4510584  28.2317772  22.4378414
  48.3523560  33.8539314  77.0730972  47.7068100  33.1508598  77.0010529
  48.8883286  33.7686958  76.2846146  12.5021181  14.1247883   2.0052102
  11.8895693  14.8512106   1.8897679  12.2945786  13.5208645   1.2921642
   8.5799818  23.1890163  13.8028736   8.0491390  22.4798870  14.1656017
   9.4264183  23.1030445  14.2414923  59.2264290  32.2342987  10.5470781
  60.1369362  32.3091049  10.2613993  59.1442375  32.8733368  11.2549677
  32.5853615  47.1636467  35.5921059  33.4321899  47.6089745  35.5638428
  32.0995369  47.5256310  34.8510437  55.0773811  15.7199297  75.3510895
  54.3250809  15.2986660  74.9353714  54.6936226  16.3816509  75.9264832
  26.1634960  40.2953835  71.7078323  25.2506161  40.5310936  71.5425339
  26.6608868  41.0743065  71.4586182  25.2598171  48.2962036  21.9402714
  26.1793003  48.5534973  22.0079670  25.1384430  47.6547279  22.6402779
  63.5933838   5.3311853   0.1341633  63.9391632   5.6316323  -0.7063128
  63.6399765   6.1009016   0.7012591  10.6957130  61.2560196  74.5811005
  11.1951180  61.4824257  73.7965164   9.7814951  61.2809639  74.2985840
  61.1873627  61.4887657  18.2330093  61.9801750  60.9590607  18.3172131
  60.6364899  61.2135658  18.9658356  17.0273666  30.1935139  76.0201263
  16.1252003  30.0096722  75.7583389  17.4998741  29.3812466  75.8379440
  84.5496216  50.2658768  43.8148575  84.9484329  51.1227341  43.9664421
  85.1697388  49.6427078  44.1934624  34.5675926  71.1939697  77.9598923
  33.6226807  71.3031006  77.8528214  34.6566429  70.4564285  78.5634842
  13.3673010  18.1836262   6.4132972  13.7432814  18.5496330   7.2138653
  12.5225191  17.8263397   6.6870160  56.4597130  53.3865509   9.1476517
  55.8227844  53.8684273   8.6200647  57.1250038  53.1033936   8.5204010
  17.1592236   2.5099881  19.6333370  17.2607574   1.7083480  19.1202145
  16.6328278   3.0848982  19.0778046  45.3487320  13.8804407  76.6778030
  46.0618973  14.4747362  76.9111252  44.7390862  13.9373980  77.4135513
  61.2838020  68.8628159  17.1221600  61.1796341  68.5601578  16.2200642
  61.0549088  68.1031265  17.6576138  77.4245758  13.2349157  42.3484001
  76.6528168  12.6693039  42.3749352  77.7321167  13.2631207  43.2544136
  62.1356735  39.0584641  71.9461060  61.5445480  39.2188110  72.6816940
  62.9414330  39.5183296  72.1817093  14.3507347  63.1798706  85.7210922
  13.5314894  62.8506050  85.3514252  14.0958652  63.5733604  86.5556183
  60.4602814  32.6481056  89.2042160  60.4699478  33.5387421  88.8536453
  59.7640114  32.2067642  88.7177353  17.2197037  46.7592430  88.0474243
  17.3375664  45.9517326  88.5476913  16.4350166  46.6030884  87.5219650
  65.4456406  37.7220192  82.3970871  66.3653412  37.6318893  82.6466064
  65.0043411  36.9996490  82.8439331  31.0222092  71.6240234  38.6889343
  30.3538551  70.9387970  38.6893501  30.8084373  72.1666412  37.9299240
  77.9664536  59.2104874  52.6907310  78.8284149  59.4994278  52.3911247
  77.9611435  58.2667961  52.5305748  44.6610260  31.2968082  58.5351486
  44.0144310  30.9486446  59.1490936  44.4614487  30.8630352  57.7055435
   6.8716860  62.5537300  10.8798418   6.6838942  63.2481232  11.5113373
   6.8238926  62.9860725  10.0271826  83.4575729  53.2628822  26.6418476
  83.0699768  53.8404503  25.9842625  82.7631454  52.6382256  26.8511562
  63.5416756  69.1122131  30.4566364  63.7635040  69.6275330  29.6810932
  62.6697121  69.4182281  30.7061749  57.1237144  60.0564957  17.1116791
  57.9257126  59.5498314  17.2394218  57.1172447  60.2631073  16.1770649
  80.8644257  27.8019657  85.8480988  80.6023407  26.9449024  86.1842270
  80.2345200  28.4123745  86.2313080   2.7227142  50.5760193  20.4878769
   1.9849443  50.8240318  21.0450268   2.7671080  51.2674141  19.8274002
  81.5930481  18.6368504   2.8554332  82.1540070  19.3893681   2.6676352
  80.7946091  19.0184402   3.2202876  43.1084290  45.5972328  69.9861450
  42.2213821  45.7642746  70.3046951  43.4956207  46.4671555  69.8884583
  75.2705231  14.5922003   9.0058613  74.7425995  14.1765575   9.6876020
  74.7454834  15.3391485   8.7183962  61.0249672  22.8607159  44.4771614
  60.4354630  23.5447617  44.1596756  60.8027534  22.7638435  45.4031601
  75.3295441  32.3249855  81.4704437  76.0397644  32.9257088  81.2446976
  75.4784927  31.5589542  80.9161453  60.1609535  20.9617634  18.0652752
  59.3413124  20.5101452  18.2664318  60.6504936  20.3407154  17.5259418
  82.0501480   7.8169808  13.6388226  81.1986237   7.9238896  14.0627317
  81.8846893   8.0120630  12.7164354  54.9418488  51.0209236  59.6477127
  55.6177216  51.4159317  59.0969009  54.3442535  51.7415009  59.8474121
  71.2068253  59.9000435  29.9925480  72.1490631  59.9112892  30.1607456
  71.1110992  59.3700867  29.2012119  71.0790939  10.6394653  12.0351324
  71.9145966  10.3043318  11.7097778  71.0614319  10.3840961  12.9574699
  74.7752686  39.5842514  72.1336288  74.5385895  40.4909210  71.9382553
  74.1809311  39.0604744  71.5963593  63.6027679  64.5377045  36.2303696
  62.6935272  64.8082352  36.3581200  63.7486153  64.6252594  35.2884064
  14.6466856  55.8459549   7.7017946  15.3308372  55.3043060   8.0952196
  15.1236525  56.5181198   7.2150421  60.1934319  62.6854706  12.6671314
  59.3586884  62.6225700  12.2029305  60.2710991  61.8535080  13.1340761
  83.6667862  14.9147425  25.7729225  83.9099960  15.5046949  25.0594559
  83.1164322  15.4473743  26.3470726  52.9906693  60.2472725  81.5577621
  53.3333206  59.6531105  80.8900833  53.7695045  60.6454239  81.9465179
  49.9367714   5.2897792  83.9024811  49.1637383   4.8195310  83.5901947
  50.5053062   5.3524003  83.1349640  27.2507496  16.4171658  28.3905716
  27.4097805  15.8438845  29.1404324  26.7390156  17.1427860  28.7481117
  51.6053810  55.4622231  67.1958694  51.8883133  54.7698517  66.5985413
  51.0935898  55.0072212  67.8646622  31.9374065  31.7304783  10.3496361
  32.8887711  31.6463528  10.4133453  31.7112522  32.3927345  11.0027075
  80.4642792   1.9059707  55.7192993  80.7079849   1.7594448  54.8053131
  79.7563629   1.2824118  55.8813477  45.9252815  63.2525749  26.6976376
  45.4749718  63.8086281  26.0618248  45.2272758  62.9206657  27.2623081
  66.4897461   0.9432353  88.8488541  66.4513931   0.1005403  88.3964996
  65.7176666   1.4167056  88.5391006  23.0836754  31.4003048  29.8178501
  23.8298416  31.1317711  29.2817917  23.1002769  32.3569374  29.7894192
  53.4533081  45.1434937  69.0789337  54.1292305  45.3490372  69.7247772
  53.9400940  44.8673744  68.3023834  26.6104584  33.6999969  84.1632614
  27.2550507  34.0691605  84.7669601  26.8320446  34.0813293  83.3137207
  52.0583801   6.8366227  75.4944305  52.7610741   7.4770184  75.3833237
  51.2570381   7.3253708  75.3068085  37.1723976  42.2971306  25.7747269
  37.1217957  41.4375000  26.1927052  36.2818260  42.6435013  25.8307724
  24.7397747  41.7814178  68.5854950  24.2871170  41.8511276  67.7449722
  25.3623772  42.5084648  68.5832520  78.6123505  48.1484833  46.1311417
  78.6159439  49.0453911  45.7968063  79.1980362  47.6713905  45.5432739
  84.1148300  42.3317184  31.2218399  83.3587799  42.8882904  31.4085159
  84.6933975  42.4532318  31.9746532   8.0240612  64.0467606   6.4459987
   8.8021879  64.5516205   6.2096372   8.0015411  63.3303490   5.8115864
  64.3999786  32.2846031  53.2010460  64.4101257  32.3787079  52.2485390
  63.5010986  32.0278587  53.4067917  14.1282854  42.1489601  40.5455093
  13.6186962  42.1198502  39.7357521  15.0247507  41.9554024  40.2714310
  28.7010555  20.1527958  87.3362732  28.7515945  20.9206409  86.7669830
  28.1874352  20.4460297  88.0888977  33.4811096   6.6214089  12.8543797
  34.4005966   6.8702588  12.9484386  32.9936333   7.4032092  13.1139708
  22.0715103   2.7617989  66.3683319  21.5732803   2.6393259  65.5602417
  22.8491592   3.2503681  66.0985260  63.8134804  14.6063461   1.0155897
  63.5740166  15.5316038   0.9627959  63.1137581  14.2069616   1.5324171
  63.0060272  17.9347267  65.1756592  62.5169144  18.2916584  64.4343109
  63.5802231  18.6496468  65.4502869   4.2813573  51.0672913   4.5601692
   3.8656054  50.2476387   4.8276615   3.5598269  51.6082420   4.2392330
   5.2197909  56.6871758  38.8404427   4.9950466  56.5362167  37.9223289
   5.7706308  57.4698753  38.8266182  41.7749138   0.0456921  35.5707283
  41.7178421   0.8899479  35.1232834  42.5919037   0.0925302  36.0672760
  61.2542725  63.7325554   2.3327255  60.7549706  63.9363174   3.1235535
  61.9307861  63.1227074   2.6270859  44.5000000   4.1952786  20.5989418
  43.9138680   4.4000597  19.8704185  45.1965065   4.8489385  20.5369987
  65.2710419  62.4712410  80.9056091  66.1850281  62.2044716  81.0040665
  64.8197403  62.0555611  81.6402969  61.4541473  55.6352615  19.3906078
  61.5077438  56.4748306  19.8472023  60.5193901  55.5114441  19.2258911
  76.6907578  48.5625420  25.8013992  76.9673004  47.9012451  26.4357815
  75.8630447  48.2300186  25.4541931  12.8342676  51.3521309  48.2224350
  12.5150347  51.8769836  47.4883690  13.4743328  51.9145851  48.6585503
  42.6416512  42.0622292  27.6269283  42.0311050  42.0003586  26.8923283
  42.7320175  43.0019913  27.7847633  81.8112717  44.5829315  45.8624535
  81.7127533  43.6419258  46.0074806  81.3193436  44.9881363  46.5766258
  83.9895096  30.3584175   5.3015909  83.0615234  30.4741154   5.5057569
  84.4409790  30.5457172   6.1245890  66.3289337  62.5377655  46.7212601
  66.2108307  63.3678246  46.2594299  66.5655060  61.9135437  46.0352478
  37.2794914  67.3026886  44.7137489  36.7170982  67.4414291  43.9517174
  36.7488747  66.7743530  45.3100166  50.1816254  40.4292564  78.8611374
  49.6126137  40.5283890  79.6244354  50.1276321  41.2723045  78.4110336
   8.2159357  23.7238770  71.8482971   8.9459019  24.1699772  72.2776871
   8.2624159  24.0115185  70.9365234  23.4957867  18.1157341  88.4630280
  22.8561096  18.0641556  87.7528305  24.1084614  17.4019642  88.2858429
  40.8420830   5.1123400  66.0105820  41.1483383   4.5084810  65.3339767
  41.0731544   5.9802070  65.6794510   7.4730415  19.9808998  19.1946869
   7.1530986  19.7494049  20.0666275   8.3181190  19.5369682  19.1239796
  65.4024887  54.1929703  22.7301273  65.4744263  53.2446365  22.8383636
  64.8839417  54.3044434  21.9333115  24.6707211   0.5533150  51.1040077
  24.9046345   1.1349850  50.3806992  25.4064426   0.6201895  51.7126732
  15.5866823  58.2212334  11.5281315  16.2482243  58.2688866  10.8379707
  16.0784531  58.3437538  12.3401546  39.5048599  33.5346375   4.1580119
  39.5472527  34.0628929   4.9551191  40.4177208  33.4351196   3.8877983
  30.5464172  19.4376812  20.0449257  31.3006439  18.9060555  20.2993755
  30.0991306  18.9155807  19.3789082  24.6560135  67.6558838  74.3811340
  25.5501976  67.3194275  74.3222885  24.5464592  67.8846893  75.3041077
  83.4689636  29.4800987  35.3561783  84.3125458  29.0413513  35.4662094
  82.8346939  28.7663383  35.2892570  36.7418365  10.8710060  32.4641380
  37.0347710  11.7380791  32.1837730  35.9654083  11.0413437  32.9974098
  50.2420349  66.9331512  36.3852692  50.1073341  66.0181732  36.6320343
  49.9603119  66.9787827  35.4716034  11.8853407  22.0398636  64.7912598
  11.0752821  21.7831364  65.2318649  12.4114666  21.2404461  64.7724228
  28.8178329  42.2369194  10.5470505  28.8806973  43.1916656  10.5199804
  28.7592106  41.9746017   9.6283636  24.2603416  46.4147682  24.3095837
  24.8997803  46.2837944  25.0097218  24.2575016  45.5865059  23.8297863
  46.4554329  49.2766800   7.2794018  47.0927658  49.3804550   6.5728149
  46.9541855  48.8845673   7.9961476  40.4603081  40.2021561  82.2508774
  39.8213348  39.8223610  82.8539581  40.1717033  39.9154892  81.3844147
  10.7978735  10.8345232  13.1354513  11.0787592  11.4640093  13.7995920
   9.8416576  10.8596792  13.1708231  44.7748337  30.7266426   3.1248231
  45.4791794  31.1404514   2.6259348  44.9760857  29.7913876   3.0927444
  86.7188339  33.7961845  34.7155304  86.3851776  33.2057724  35.3910446
  86.7635345  33.2563171  33.9263687  30.2367039  28.0278282  27.3385239
  31.0427551  28.4592552  27.6220455  30.4225483  27.7356472  26.4461536
  38.0672836  37.6325264   8.6782408  38.6372261  37.9673157   7.9859161
  37.9291840  38.3816071   9.2579327  51.7949524  12.2785006   9.6376419
  52.5700073  11.9891052   9.1562119  52.0844803  13.0583534  10.1111765
   0.0361601  44.9144440  10.7948837  -0.0893036  44.6720123  11.7123356
   0.9086667  44.5862045  10.5775766  15.7465639   2.7112732  17.0265770
  14.7999687   2.8450789  17.0743885  15.8556290   1.9915638  16.4050026
  34.4079247  14.6641874  32.6197586  34.3798714  13.7628288  32.9406891
  35.2758102  14.7511473  32.2254982   3.2090890  23.1690044  86.0116425
   3.9016187  23.0665379  85.3588562   2.8059452  22.3028812  86.0711136
  59.3957138  21.8832588  52.3389359  59.4340401  21.0357342  52.7821808
  59.7701378  21.7181454  51.4736176  42.5948982   7.2445259  65.3480225
  42.8232574   8.1373968  65.6066055  43.4221153   6.8602786  65.0576859
  47.3335495  66.2881088  47.7215004  47.4996109  67.1760330  47.4048843
  46.8597183  65.8635178  47.0063477  58.4260674  57.0525627  10.3489399
  58.5116005  57.4337959   9.4751101  57.5948677  57.3938789  10.6788511
  17.1437759  19.1071758  23.4380817  17.6076508  18.4536152  23.9614449
  17.2700424  18.8227177  22.5328903  29.4521751   3.4354756  83.5151672
  29.8086967   4.2232513  83.1046371  28.5110703   3.6004572  83.5729065
  75.5600052  34.9562302  75.4864960  75.0442657  35.7625809  75.4800186
  76.4627228  35.2502708  75.6084213  41.8418045  44.7181473  39.0764389
  41.7934189  45.3039589  38.3209839  41.1126251  44.1100388  38.9550629
   6.4746079   6.2101941  69.9800262   6.9506555   5.5969858  69.4200363
   5.6728387   5.7445054  70.2177887  61.1516457  54.3169022  15.6828499
  61.4953880  53.6796150  15.0567989  61.5086861  54.0401955  16.5267620
  29.2814674  62.5202446   3.5291531  28.5837975  61.8831558   3.3755004
  28.8217754  63.3420563   3.7010245  19.1154518  57.6669693  14.7660408
  18.8987389  57.7467270  15.6949682  19.6941719  56.9059448  14.7195921
  58.2070808  35.1960411   4.4213424  58.6264648  34.7693710   3.6741462
  58.9338951  35.4587135   4.9861212  -0.0848794  56.3639450  62.5417290
   0.1464152  55.7073250  61.8847771   0.7161392  56.4851952  63.0515327
  41.7571182  50.1171837  49.3819962  41.4325638  50.1592827  48.4824867
  42.0313454  51.0126648  49.5798378   6.9279938  48.0699196  34.9018669
   7.2691464  48.9551468  35.0292244   7.6748204  47.5706673  34.5713654
   2.9169402  21.4285088  30.3027916   3.2577026  21.7609596  29.4723778
   2.0079296  21.1963825  30.1129265  65.1829453  47.8067017  57.8888359
  66.0109177  47.8017006  57.4085541  64.8021622  46.9451408  57.7187080
   9.7919998   2.9517851  41.7059441   9.9182310   2.0767176  41.3391304
   9.7713766   3.5303419  40.9436607  81.5940704   6.7203231  21.9275246
  82.3026657   6.7185745  21.2840004  81.9475555   6.2370362  22.6743259
  11.5151987   4.5591803  24.9149303  10.7998343   5.1115012  24.5996094
  11.9947853   4.3135872  24.1237850   9.2057362   2.2169652  48.9199028
   8.7679977   1.3771415  49.0588760   8.4912844   2.8483150  48.8351250
  36.5573235  12.2286224  17.9233799  36.0212364  12.5962133  18.6260319
  37.3961029  12.0313692  18.3402405  45.8380013  15.6531506  60.9906464
  45.3841133  16.4707928  60.7864876  45.6194572  15.0699472  60.2637711
  64.2962952  58.8491440  49.6247063  64.0772171  59.3565140  50.4062538
  63.5037727  58.3468857  49.4352722  64.7575073  34.3767090  87.8422089
  65.3751526  34.5818863  87.1403198  64.8010330  33.4244232  87.9287643
  80.6841354  44.4177742  84.9589615  79.8044281  44.5169220  85.3230057
  80.5426865  44.0439758  84.0891953  78.4236298  46.3032341  29.5445690
  78.9798660  46.9522476  29.9753971  77.5731583  46.7344322  29.4608917
   0.8436270  70.1896133  32.7543411  -0.0343136  70.4854507  32.5136490
   0.9008486  69.3002701  32.4050217  30.2596855   6.7141614   5.0696549
  29.7776661   6.0983634   4.5176754  30.7870636   7.2245007   4.4551163
  24.5057011  31.4902382  26.0111294  24.4724159  31.6475830  26.9547215
  24.4394817  30.5392780  25.9244003  30.6388378  32.4105988   7.1673369
  30.8770485  32.3260040   8.0905552  30.1123352  33.2090225   7.1280169
  19.1931248  13.5443764  74.3832092  18.4761219  13.2059650  73.8469086
  19.8313198  13.8730812  73.7500458   4.9436846   0.7259148  88.8827438
   5.0453811   1.1462098  89.7367020   5.1133838   1.4241792  88.2504044
  58.2285805  10.1405640   6.1609116  58.9377823   9.6799803   5.7124400
  58.1538811   9.6993818   7.0070858  72.7333908  42.4235840  59.7029762
  73.2435150  43.0183640  60.2527466  71.8944168  42.3389854  60.1559601
  15.1554041  18.7516766  75.1956177  15.6848555  19.0580883  74.4593964
  15.7873363  18.6002293  75.8984375  49.1940002   7.1185880  62.6411629
  48.8270149   6.4626775  62.0484314  48.9481735   7.9576740  62.2516327
  55.9733620   0.9603464  42.2805405  56.7268486   0.8818259  41.6954575
  56.0466042   1.8409429  42.6485329  86.2182999  22.5029202  47.6524544
  86.0415497  22.5092945  48.5931740  85.8386230  23.3210297  47.3318672
  19.1208649  61.4472694  37.8554955  18.8899632  62.0480919  38.5639648
  20.0360603  61.6481628  37.6598053  63.5937805  64.7530594  48.3048630
  63.3884926  64.7893219  47.3706398  63.3705215  63.8592415  48.5646324
  42.2139244  37.6867142  87.8563461  41.9977570  38.2822380  88.5738831
  43.0784569  37.9719124  87.5605850  47.5918770  67.1423950  78.8108215
  47.2145882  67.2178421  77.9343567  46.9085808  67.4713974  79.3948517
  14.1807251  12.2200460  59.8535919  14.8241386  12.2856951  60.5592384
  14.3302574  13.0003624  59.3197594  12.9562464  24.3879051  24.6259289
  12.0987930  24.8095818  24.6824398  13.3146210  24.4543343  25.5110207
  35.5889473   4.0594602  35.5786133  35.4022598   3.9563119  34.6454811
  36.4466324   3.6515329  35.6977997  32.5193634  69.0207901  60.4855042
  31.6132584  69.1297760  60.7741737  32.7268105  68.1083145  60.6869507
   6.1865544  10.0607471  41.4904976   5.7905312  10.2370539  42.3439102
   5.9696698   9.1460457  41.3101807  84.0918732  41.5788345  83.3427658
  83.6673431  41.4002686  84.1818848  84.0576706  42.5313835  83.2549438
  71.0253983  26.6244831  71.7784271  71.7015991  26.2008133  71.2497635
  70.8946762  26.0325794  72.5192337  18.1715641  21.4414539   4.3903980
  17.3627491  21.8935814   4.6304631  17.9260540  20.5172043   4.3489356
  52.1908531  26.9065914  34.8383369  52.4591942  27.3582001  35.6385078
  51.8120384  27.5942535  34.2907486  66.9592438  30.3845882  25.7114620
  67.0622940  31.3294544  25.5981483  66.9590225  30.2557220  26.6599483
  43.0771179  17.3678799  74.2155304  43.2786179  18.1323528  73.6758881
  42.1931076  17.1138992  73.9504776  81.4329147  26.9062958  61.4754028
  80.8894577  27.6758575  61.3061256  80.8062286  26.1952286  61.6091080
  46.6186485  65.6757584  58.0984879  46.6353111  64.7835541  58.4447899
  46.7876968  65.5723953  57.1620216  24.1002235  27.6667118   7.2195106
  24.0803833  26.8112049   6.7906227  23.5188236  28.2132282   6.6908092
  73.7843552   1.4143391  71.5350494  74.5921783   0.9447025  71.7426376
  73.3852615   1.5924402  72.3866577  58.8661385  52.3369484  80.2072678
  58.5731735  51.4266891  80.2500687  58.4176674  52.6971741  79.4421844
   2.5495346  65.9863281  37.5914154   2.1435735  66.8427811  37.7252846
   2.1516931  65.4259262  38.2576752  58.7750168  44.1118507  10.9479628
  58.8302803  43.2149315  10.6182537  59.2126503  44.0816841  11.7987261
  61.2317734  26.2460938  54.2469749  60.5522308  26.2206211  53.5733261
  61.0993042  27.0846043  54.6892204  71.4331436  41.1080704  29.9048080
  72.3567200  41.2197113  30.1301231  71.1609344  41.9656525  29.5781708
  28.2156143  39.1535378  34.3991280  27.4202194  38.9824028  34.9034004
  28.5284824  38.2857857  34.1434937  40.6876488  65.9701996   3.2513466
  41.1781120  65.1950378   3.5248415  39.8162613  65.6383133   3.0350969
  55.2635155  29.0421562  51.4287758  56.2081413  29.0657291  51.5816078
  55.1090469  29.7267361  50.7778358  74.0958405  19.8846893  80.4539948
  73.6968307  20.3458729  81.1917801  74.8950653  19.5012550  80.8151703
  76.8096695  55.3253517  64.5194550  76.1961670  55.1375465  63.8091164
  76.2529984  55.5756645  65.2568054  42.2336731  14.9133186   1.8323096
  42.6647911  15.6624432   2.2436261  42.6274796  14.8587332   0.9615794
  83.1869888  21.8419189  12.9223108  82.6799698  21.9713306  12.1208019
  83.4316254  22.7258339  13.1963139  23.3823147  46.6438446  48.8856430
  23.5734844  45.8027725  48.4705734  22.7393341  47.0552864  48.3081245
   1.8055352  55.2260628  18.9955597   2.2986956  55.0031738  18.2060375
   2.0467606  54.5490227  19.6277466  75.9891739   6.5009313  64.6223755
  76.6270370   6.6787796  63.9311905  76.3374557   5.7347541  65.0783386
  32.3252869  53.4876518   3.3699949  33.1312828  52.9817772   3.4734039
  32.0457802  53.3118591   2.4715486  74.6908951  64.8486862  86.9677734
  73.7615280  64.9922791  86.7892227  74.7115250  64.0606384  87.5107040
  65.2043457  49.7929688   1.2260382  64.9204102  50.6356773   0.8718398
  65.0531921  49.1708908   0.5144197   8.2692089  20.1489010  87.9692154
   8.3482666  20.7464523  88.7127991   7.4743185  20.4324303  87.5175629
  63.8066177  67.2466812  12.8441486  63.7431221  67.3416748  13.7945042
  63.5363960  66.3441162  12.6750736  64.2686615  13.9689150  57.3018837
  64.6050873  13.6767530  58.1490517  64.1285172  13.1608810  56.8082542
  35.3206329  40.3189468  80.9665756  34.4246178  40.0041809  80.8469391
  35.8700790  39.5659943  80.7488480   6.3172851  20.6179543  73.6966858
   5.9650669  20.2984123  74.5273895   5.6191592  20.4556274  73.0622559
  78.1083527  64.2264328  28.7549667  77.5506973  64.4969025  28.0255089
  78.2097244  63.2814217  28.6413689   5.6991110  64.3071365   2.9390655
   5.4152122  64.8922501   3.6414022   4.8850994  63.9860268   2.5511158
  15.3007221  36.6203918  78.3301468  15.6080265  37.5249863  78.2709656
  14.3840923  36.6604958  78.0573654  13.9160194  17.4332123  57.2490311
  14.5653410  18.1355896  57.2132530  13.1685934  17.7726974  56.7567558
  38.0253792  57.9436836   5.8219872  38.3244514  57.7969017   4.9246340
  37.6287689  58.8146400   5.8028245  49.8925438  15.4072456  22.7851276
  50.1673660  16.0685673  22.1500225  48.9494629  15.3195963  22.6467514
  49.1169777  44.5604134   5.4901133  49.9270897  44.6844788   4.9955826
  48.9445419  43.6204643   5.4354215  55.4740677   5.4172440  36.6026573
  54.6356163   4.9710169  36.7214775  56.0790482   4.9470339  37.1763573
  41.4705276  67.4150085   5.2911901  40.9375343  66.8130112   4.7718182
  40.9908676  67.5106506   6.1139975  20.1364460  56.3855705   2.0635393
  20.4781799  57.2282448   2.3624494  20.1209354  55.8406982   2.8503704
   2.0465369   0.3087792  52.8217583   1.4397995   1.0360994  52.9599876
   2.5605323   0.5677063  52.0569077   7.9607849   2.2756369  46.0609894
   8.4366064   1.8308320  46.7623978   7.0378580   2.1200075  46.2615318
  73.4224014  38.9001427   7.3484406  72.7554779  39.1774864   7.9765558
  73.7840881  39.7177391   7.0064688  31.8712349   0.1901071  29.3460293
  30.9233723   0.0679929  29.2923775  32.0414848   0.9749059  28.8251286
  39.8726959  19.1434460  15.6210508  39.8801422  20.0587864  15.9009190
  40.3820000  18.6845798  16.2890968  32.0323257  64.4253616  37.8682289
  31.4583149  64.3069916  37.1114388  31.4858551  64.8702316  38.5160675
  74.7906570  38.9576530  38.7329865  74.4535522  39.4559212  39.4775124
  75.6927338  38.7472649  38.9743042  58.7259560  24.9293957  77.5684586
  58.0292320  25.5363674  77.3186722  59.5023308  25.2555904  77.1134033
  86.2608948  45.4339142  51.7242165  85.6226120  45.0097122  51.1507339
  86.7992706  45.9616547  51.1344109  74.6811829  19.2617359  16.0423126
  74.2113724  19.4435406  15.2283945  75.5201645  18.8986359  15.7586069
  80.4823074  27.5749493  69.6362457  80.7846680  26.6676865  69.6772766
  80.5757446  27.8171177  68.7149124  50.4680748  45.7950974  41.0638657
  51.3871117  45.7839432  41.3312225  50.0610504  45.0965919  41.5763588
  60.1566734  56.8018417  78.3177795  59.7749138  56.0558777  78.7804108
  59.7035828  57.5643082  78.6777573  85.0317535  17.7068634  88.0721970
  84.8222122  17.9581451  88.9717407  85.9883881  17.6875248  88.0455704
  56.1783600  58.9123230  30.5763931  56.0892944  58.5508461  31.4582272
  56.9592705  59.4640274  30.6214352  41.2341576  50.1297264  82.2185287
  40.8441200  50.4306412  81.3978271  41.6390076  49.2908859  81.9979095
  22.6727695   1.3886622  68.6032944  22.3438873   1.9841537  67.9299011
  21.8961353   1.1434932  69.1062469  65.6790848  56.7473755  53.2085037
  65.6808929  56.6278572  52.2587967  66.5898743  56.9450111  53.4267654
  33.8834000  20.6425648  11.9145994  34.7370605  20.4519005  12.3033714
  34.0309486  20.5812340  10.9708309  26.0811691  42.7430687  60.2990112
  26.2969742  43.6397743  60.0429268  26.1194859  42.7513084  61.2554092
   6.9423447  39.7319412  43.2326775   6.7357111  38.9075699  42.7922859
   6.1007948  40.0425758  43.5666428  52.4773788  38.9660149  78.9369278
  53.0989265  39.6235428  79.2492828  51.6271896  39.4044037  78.9718857
  21.3055859  22.5223274  30.9273567  21.6056328  21.7379360  31.3866310
  21.6077194  22.4029846  30.0269661  21.5938206  15.3840303  70.8969727
  21.1867180  15.6170750  71.7313538  20.8647594  15.0990162  70.3460999
  57.5284462  64.9508972  13.5296745  58.2844887  64.5627441  13.9700975
  56.9452896  65.2136841  14.2417860  45.5796661  12.1233301  59.9611168
  45.4644661  12.8206520  59.3155899  44.8214989  11.5527487  59.8352051
  76.4668961  63.9974022   3.9557054  76.2560883  63.8141289   4.8712392
  76.8166809  63.1718330   3.6205699  54.7064743  50.4226036  54.5416260
  53.9833908  49.8831291  54.2217026  55.4428940  50.1977348  53.9729805
  77.9757233  23.9588776   1.8008467  77.5079117  24.7842445   1.9279352
  78.0757599  23.8839340   0.8518428   5.4374342  13.7171841   5.4611731
   5.2378721  12.9107256   5.9366012   5.8847489  13.4230022   4.6677012
  58.4162560  43.0775146  55.0315590  59.0858765  43.5757904  55.5001373
  58.4192314  42.2177467  55.4522972   0.2512111  20.2873402  13.9817724
  -0.3926547  20.4864674  13.3020544   0.5703996  19.4124947  13.7604160
  27.0814686  11.3763599  77.4687729  26.9247227  11.9825487  78.1927872
  26.2064896  11.1206532  77.1767883  41.6871262   3.8648942  80.7247238
  40.9803314   3.2754059  80.9877396  41.2688332   4.7227597  80.6517029
   4.2032070  59.9736862  73.7400894   4.7380781  59.8372421  72.9580917
   3.3256071  60.1517372  73.4019394   8.4425497  69.5667114  52.1817284
   7.6262975  69.3933945  51.7127647   8.3738108  69.0467072  52.9824181
  86.0859451   6.9184122  31.5457611  85.3852310   6.9489856  32.1971397
  85.8447113   7.5854039  30.9029846  32.7652473  48.6279106  13.0763283
  32.8482666  49.5391426  13.3573856  33.6474380  48.3817368  12.7981720
  80.4614563  24.3759308  28.2021294  80.4946289  23.4727573  28.5174198
  81.1966095  24.8084259  28.6365604  20.5159512   3.6635444  12.8300991
  20.5534897   3.8952408  13.7580757  21.1587067   2.9610031  12.7324543
   8.3878031  14.6245270  54.5475159   8.4939346  13.8630161  53.9773636
   7.5548282  14.4747133  54.9946632  75.4423752  18.0607452  22.8339539
  75.3922806  18.9158783  23.2611217  74.8679428  17.4990597  23.3543110
  80.8204193   3.6756849  57.8822899  80.7363129   2.9161189  57.3059082
  81.1498032   4.3721204  57.3142128   7.3885584  66.5889816  37.5125999
   6.5857539  67.1072159  37.5689278   7.1789465  65.7725754  37.9662170
  35.1622620  56.8912048  16.9223881  35.2028198  56.3196030  16.1556683
  35.9686394  57.4052658  16.8808193  40.3823662  33.2751923  37.6390991
  41.1076660  33.0809822  37.0454178  40.6145706  34.1156349  38.0340195
  62.5964928  16.1896439  34.4844284  62.1809578  16.7663536  35.1254959
  63.5334015  16.3606968  34.5802231  71.8727646  56.6322784  83.8462372
  71.1664581  56.0023308  83.7029190  71.4819717  57.4813347  83.6397934
   9.4485350  18.1642170  61.0428963  10.2572126  17.8415928  61.4406242
   9.2491236  18.9675846  61.5235901  38.5335922  50.2029533   2.0906448
  38.6381874  49.2877159   1.8305795  38.3404808  50.6634254   1.2740029
  22.8489132  24.5483418  85.8500671  22.5220108  24.0319462  85.1133804
  22.0617199  24.9106865  86.2565918   5.1840477  45.2695351  53.6241302
   4.8732557  46.0388374  54.1014290   4.7799172  44.5283470  54.0752945
  22.7087040  69.1859741  11.9796629  23.2513847  68.9277496  11.2346458
  22.3685780  68.3608322  12.3256273  53.3850479  18.8819370   0.8081205
  54.0859222  18.2519474   0.6404144  52.9780045  18.5771275   1.6190698
   3.6253862  21.1798763  42.3937187   4.1381807  21.6452293  43.0545654
   3.9638493  21.5011063  41.5579643  78.9279785  61.1467934  31.4350281
  79.2220535  60.2393799  31.5147686  78.1416931  61.1924324  31.9789886
  13.1340961  37.5190735  42.1415253  12.8747787  38.3026581  41.6567764
  13.7655945  37.8352051  42.7876701  86.5309143   1.0593261  23.4365501
  86.5878372   0.8353817  22.5076580  85.8397827   1.7200342  23.4817219
  82.0794601  52.3614197  84.2383194  81.2666321  51.8645058  84.1454468
  82.2328873  52.3953552  85.1825333  19.6402550  31.0499821  75.5093384
  18.6868496  31.0018997  75.5795975  19.8034267  31.2295532  74.5833969
  34.8433952  58.1179886  52.8453674  35.3168488  58.8173065  53.2959518
  34.6988297  58.4571762  51.9620323  10.2445745  25.5033588  88.2855759
   9.5709743  24.8421001  88.1267395  11.0286293  24.9991531  88.5029831
  13.4190302   6.8080406  56.2258377  12.6576128   6.2709289  56.0067787
  13.1040220   7.4044271  56.9050484  45.8923187   6.6892390  23.6867638
  46.2779579   7.2254725  22.9939651  45.9267845   5.7956972  23.3452568
  27.9138336  12.3133945  42.0402985  27.0123043  12.4756365  41.7625313
  28.0074368  12.8110857  42.8525658  21.0297508  53.3036995  59.0658188
  21.0262699  52.6668358  58.3512383  21.9457607  53.3516960  59.3394127
   3.8076479   4.2511153  50.6238823   4.6578269   4.5298629  50.9640694
   3.1693485   4.6783442  51.1950912  38.6286659   3.6114013  81.9602356
  38.0100594   4.0158181  81.3519516  38.3910789   2.6841583  81.9622726
  46.6562729  54.2715721  59.3673820  46.8540955  55.2062111  59.3077965
  45.8539200  54.1635475  58.8567047  53.3484535  70.5551910  55.6106567
  53.5913124  71.1886978  56.2858772  52.8096695  69.9107208  56.0695648
  39.2967911  61.7009544  16.7862968  39.4723778  61.2341003  17.6032734
  40.1522903  62.0289650  16.5092449  62.1380501  21.1134529  82.5857773
  62.4401779  20.2186661  82.4298630  62.4748726  21.6130066  81.8419800
   9.3617897   4.9516926   9.1475153   9.8184471   5.4538512   9.8224468
  10.0557766   4.4723363   8.6949329  10.9837751  55.0439606  77.8828659
  10.2225962  55.0444412  78.4632416  10.6550894  54.6886520  77.0570602
  23.9674034  27.6425381  75.3218994  23.4301128  28.2017059  74.7607574
  24.8685703  27.8865967  75.1108017  85.9793472  26.2659111  32.4289818
  86.8222504  26.5869236  32.7494431  85.5875397  27.0201111  31.9886379
  77.8592072  52.8303719  33.7885971  78.7705383  52.5407219  33.8311386
  77.7587280  53.4159775  34.5390663  62.6208878  30.3312626  13.7106256
  61.8248940  29.8357468  13.5180378  62.8883324  30.0272160  14.5779552
  71.9731674  69.1935425  71.4730072  71.0676346  69.1243820  71.1705856
  72.3157959  69.9686050  71.0279007  27.5475254  69.0416794   0.5370339
  28.0619278  69.7255707   0.9658852  27.9118500  68.9863968  -0.3463929
  38.9104843  70.0220642  52.2965965  39.5262985  69.7045441  51.6361542
  38.3134346  70.5926743  51.8126945  38.3474312  11.1017923  24.8572750
  37.7527809  11.8517971  24.8463745  38.1812744  10.6766043  25.6986084
   6.6574869  36.2085419  54.3156471   5.8162451  35.8462334  54.0376625
   6.7826853  36.9774055  53.7594070   9.2386084  14.2677431  60.3569260
   8.7814121  15.1083660  60.3333168   9.4533243  14.1377363  61.2806282
  48.0497971  18.4706059  85.4527588  48.1262474  19.3974037  85.6795425
  48.0543747  18.4570560  84.4956665  35.9290123  50.5563049  43.7110252
  36.7427368  50.3398018  44.1662292  35.7656555  49.8043251  43.1417465
  69.7839279  13.7511082  65.6643829  69.4580154  14.4459028  65.0923080
  69.6597519  14.0921669  66.5501022   2.9665782  16.4237957  23.4344177
   3.2304528  17.1364651  22.8524342   2.0118880  16.4838219  23.4689922
  56.6214943  22.0692616  58.8879013  56.2061920  22.2554207  58.0458221
  57.0054245  22.9042892  59.1554070   8.3037157  66.5862961  66.3746872
   7.5549388  66.1099091  66.0160370   7.9160542  67.3320999  66.8326492
  60.2130547  12.2925529  57.7912483  59.9172096  13.1342640  57.4445038
  59.6644669  12.1447039  58.5615883  40.4424171  57.4995308  28.5359840
  41.2265701  57.5656128  27.9910393  40.0150490  56.6943130  28.2440720
  46.5728378  53.8466454  37.1155014  45.8202438  53.3344269  37.4112473
  46.1901665  54.6393204  36.7393875  58.9040794  21.9633942  73.5504227
  59.5782623  21.9904327  72.8714676  59.3882141  22.0453949  74.3720856
  33.0224190  55.6785240  11.2308321  33.8186264  56.2006683  11.1326084
  32.8138809  55.7328835  12.1634569  83.6950302  62.1828308  28.7527752
  82.7769928  62.2184601  29.0214252  83.7397385  61.4400635  28.1506748
  33.6214371  37.5471535  21.2267761  34.0463715  37.9676056  21.9743595
  32.8719597  38.1091270  21.0300541  35.4003944  56.7926712  78.8830338
  35.9178352  56.0131798  78.6808472  35.1890602  57.1682014  78.0283127
  45.9416428  53.0621567  20.7034531  45.2405319  52.7897415  21.2954540
  46.7067032  53.1647758  21.2694759  13.9330540   8.8857517  25.6450291
  14.5952091   9.5757427  25.6038628  13.8018389   8.7352581  26.5811729
   5.0193372  40.0902328  64.0405655   4.7054791  40.7055931  63.3779526
   5.7968254  39.6923904  63.6488190  68.0385666  41.7125626  55.6771164
  67.9615631  40.9151993  55.1531792  67.1679230  41.8356285  56.0553551
  30.8939762  59.6760025   7.2117572  31.6526985  60.1391525   7.5668097
  30.7584972  60.0652313   6.3478255  65.4584961  20.3276520  31.5609913
  66.1786423  19.7615433  31.8387451  65.2175980  20.8132534  32.3499069
  72.7504044  63.5154190  49.1749229  71.8335342  63.6361122  48.9279060
  72.7478333  63.5538063  50.1313515  43.0320816  47.4836922  55.7596092
  43.8328934  47.1734047  56.1822891  43.0900803  48.4379158  55.8078156
  18.8571091  35.9097176   8.9939966  17.9651928  36.0298500   8.6679840
  19.4069614  35.9621506   8.2122383  12.2391710  21.7399368  24.1761322
  12.6505165  22.5665398  24.4286270  12.0819607  21.8279781  23.2360439
  20.9100037  62.4904404  82.2617340  19.9676514  62.3983383  82.1212997
  21.2506638  62.7830620  81.4164200   0.9237207  29.2252884  37.6852341
   0.3156233  28.5509624  37.3823586   0.5162468  30.0506668  37.4226532
   9.4436903  57.0696297  17.7115822   9.3937721  57.0346375  18.6668396
   8.6810360  56.5738678  17.4135704  36.6961327  56.5151405  70.9655304
  36.5183525  57.2739563  71.5212479  37.1735153  56.8730202  70.2170258
  61.1401215  70.2402573  50.3750610  61.3299637  69.9223557  51.2577438
  60.4601974  69.6505661  50.0491791  50.9010239  61.8528519  34.9179459
  51.6413383  62.4087219  35.1612015  50.9218063  61.1355362  35.5513954
  19.0508213  17.3202763   6.3965282  18.6742802  16.8701878   7.1527476
  19.5459766  16.6424713   5.9364929  47.7118492  58.2711296  63.6010628
  47.5103798  57.3802299  63.8873138  48.6397896  58.3846779  63.8066483
  76.0164948  36.2177582  20.4601078  75.1198044  35.9288292  20.6294861
  75.9166870  37.0494003  19.9968128  67.3513947  25.1331005  75.7908173
  67.6479187  24.4211693  75.2238388  68.1475449  25.6232510  75.9960861
  77.1780853  18.4580078  15.1612253  77.3249588  17.8400726  14.4451132
  78.0061111  18.9312229  15.2428684  24.6856689  69.0715256  76.9285278
  24.2868557  69.8698807  76.5823746  24.9879589  69.3147659  77.8035583
  76.3459549  46.3668747  32.2817383  76.6447067  45.5498810  32.6811142
  75.5346298  46.5768814  32.7442055  18.5027122  15.2383442  14.3574152
  17.8392944  14.6255560  14.6745920  19.3163891  14.9430695  14.7660379
  82.3065186  15.6362858  30.8560410  81.9682693  14.9397249  31.4187336
  82.2105865  15.2940464  29.9672775  31.8361435  55.6660995  46.5636978
  32.0758324  55.6265907  45.6378365  32.5894966  55.2940140  47.0222244
   1.5746632  13.3257771  34.7131004   1.9908266  12.8145237  34.0190849
   0.7753244  13.6674557  34.3124199  86.3869019  10.6138868  87.8387833
  86.6339111  10.0714731  87.0897827  85.5324478  10.9744921  87.6019440
  70.0525513  42.7714195  49.5844879  69.5179520  43.5170937  49.8572540
  69.4222336  42.0667000  49.4351387   2.3488173  13.0606012  62.9929962
   1.6339059  13.6745615  62.8251076   1.9711580  12.1990404  62.8160286
  79.2960587   6.9052196  73.7056732  79.5614166   6.8228068  72.7896957
  78.3880463   7.2054935  73.6659012  67.7620239  32.6378250  51.3690491
  67.6866455  32.6909409  52.3218002  67.8125305  33.5494423  51.0815926
  20.1685276  64.5666885  37.6823006  20.9023800  64.6449966  38.2918587
  19.4239559  64.3258667  38.2335281  83.0120087  56.6284485  33.5214500
  83.5895081  56.9826469  34.1976700  82.1303101  56.7399750  33.8769722
  61.3664513  30.9547501  47.0536537  61.7252808  30.2528076  47.5965614
  61.1348381  30.5258217  46.2298775  11.1207247   4.4951310  45.5022659
  11.2011938   3.6448798  45.9345016  11.9437494   4.9425926  45.6988373
  72.7693939  10.3119383  76.2058640  72.8462372  11.2248240  75.9284363
  72.1172409  10.3285704  76.9063263  69.9428406  67.0944672  67.9346008
  69.6425552  67.0546417  68.8426056  69.3260422  66.5424347  67.4539185
  22.3631191  71.3185654  89.2482224  21.8643990  72.1345291  89.2895737
  22.5283108  71.1858673  88.3147659   8.6169806  39.0761032  53.1195564
   8.6435928  39.2949600  52.1880913   8.7282553  39.9154282  53.5660744
  43.6287804   3.3668094  36.1704636  42.9390602   3.1067157  35.5598335
  44.0489349   4.1178808  35.7514229  43.2546959  69.0249939  10.0456247
  43.9853935  68.4345093  10.2290449  43.6578217  69.8903275   9.9755135
  74.2393494  19.5156879  46.6095161  73.6531982  19.2748528  47.3269119
  74.5146942  18.6793213  46.2341423  64.1093750   7.4550991  68.5352097
  64.3318558   8.3578558  68.3076935  64.9343567   7.0734243  68.8351517
  73.1545181  29.9361095  86.7567902  73.3644409  29.2854652  86.0868454
  72.4631500  30.4693432  86.3644943  44.2254562  61.6084595  60.7276955
  44.4901276  60.6885986  60.7339172  44.0234337  61.8057518  61.6422958
   0.1505475  69.9513016  16.8814945  -0.0516937  69.5068665  17.7047844
   0.9601316  70.4297180  17.0601635  68.7004089  39.4208260  70.7656479
  68.7299805  40.0121994  70.0135574  68.3147583  38.6150742  70.4217377
  13.5054312  42.2180786  16.0811749  14.2054873  41.6082458  15.8482418
  12.9271374  41.7121353  16.6519909   0.1633300  31.0069199  77.0844421
   0.5429382  30.6890621  77.9036484   0.8364997  30.8351231  76.4259872
  56.0192795  61.6795425  87.9094849  56.8153992  61.5828323  87.3869171
  55.6753616  60.7897987  87.9889145  11.7512121  29.9440651  37.9620132
  11.7281094  30.1394958  37.0252609  11.1036901  29.2486687  38.0776482
   2.6394827  32.7348480  47.7150078   2.4367864  32.0040550  47.1309776
   3.2285793  33.2918472  47.2061348  34.4194908  55.1023369  47.4044380
  35.0804138  55.2959518  48.0692101  34.8987732  55.1258469  46.5762100
  86.2318802  41.5905533  27.3744411  86.2173920  42.4633942  27.7670879
  85.5760574  41.0959435  27.8658524  78.3814011  58.2040825  83.4230499
  77.9340744  58.4763184  82.6217957  78.6155853  57.2890892  83.2675629
  80.9101334  16.6883469  53.0844994  80.5523605  17.2435551  53.7773018
  81.7592773  16.4023685  53.4212723  72.9988022  71.6163101  31.6314793
  72.0938034  71.8808212  31.7965279  73.3188553  71.3142090  32.4814987
  23.5332584  57.5875435  71.3108978  23.7724552  58.2530937  71.9559250
  22.7371597  57.1887283  71.6621933  31.8807907  36.5188370  87.0735397
  32.3736191  37.3373489  87.0153046  32.5362778  35.8344688  86.9385910
  13.3080969  46.0779800  83.5876389  13.5892992  45.9137306  82.6875381
  12.3599739  45.9476738  83.5699158  31.2973881  24.2083321  24.2056217
  30.6292629  23.6458969  23.8138180  31.7926636  23.6261921  24.7818546
  71.8411102  57.8236732  50.3936958  72.7467804  57.6723824  50.6640739
  71.7998505  58.7619820  50.2090149  17.7166214  10.3303986  85.7547073
  17.5488434   9.8770123  86.5808563  17.9257259   9.6308298  85.1357422
   1.7763661  56.5396538  48.5721321   1.3112926  56.6395493  47.7414932
   1.3002267  57.1027184  49.1824455  66.2279358  63.5187416   2.3478668
  66.3747711  62.9140167   3.0751731  66.2012329  64.3836212   2.7571490
  37.4321976   3.9056437  15.3054819  38.3807106   3.9569573  15.4234543
  37.1920929   3.0513065  15.6642151  25.7621956  33.2876205  77.7826080
  26.5809765  32.8186073  77.6218262  25.8815308  34.1330833  77.3499603
  28.5534134   8.3692951  78.9321594  28.8944206   8.5526056  79.8075714
  29.1101112   8.8819485  78.3460693  12.4929199  36.1760788  16.9264526
  13.1071310  35.6470413  16.4174347  12.9375477  37.0160561  17.0403519
  15.1411123  25.5426197  60.8211708  15.2620916  26.4367943  60.5017242
  15.9259310  25.0768833  60.5324135  74.7386475  30.1268406  10.8870268
  75.3206329  30.4006996  11.5959158  74.3618393  30.9428196  10.5577393
  20.5697994  21.5574703   8.6739388  20.7358208  20.7031956   9.0725441
  20.7666397  21.4310093   7.7457724  82.2303009   9.2716188   0.5163372
  82.0750198   8.9186373  -0.3597485  81.3674927   9.5587311   0.8152668
  18.5607662  32.2030907  31.5726471  19.1426182  31.9388580  30.8600044
  18.9987335  32.9538803  31.9735641  86.4409180  39.9033432  41.4695969
  86.8756332  39.7450600  40.6316223  85.8718338  40.6553955  41.3059120
  82.5613937  60.1295776  32.8672333  82.1239700  59.7365570  33.6224976
  82.0621490  60.9266510  32.6893120  68.2478256  12.9225397  36.9208565
  67.4730453  12.5599194  37.3503418  68.6647263  12.1690350  36.5029373
  33.5400581  39.9495277  72.1556091  33.0924721  39.1116180  72.2731171
  33.8875580  39.9125481  71.2644806   5.5300775  56.1452980  41.4327126
   4.7978477  56.6768990  41.7449226   5.4518142  56.1663742  40.4789505
  41.2191315  64.8039932  80.0192261  41.2352219  64.2069092  79.2712555
  41.9445534  64.5143967  80.5725098  80.0990677  71.9066849  49.3611565
  80.4672546  71.0412979  49.5394249  79.9032135  71.8952866  48.4242783
  79.2402191  15.1503057  28.3399868  79.2628479  14.8677683  27.4257164
  78.6394730  15.8954897  28.3455944  37.0504913  59.1561508   2.9167404
  36.9037933  58.6768723   2.1012640  36.3277473  58.8892632   3.4847558
  25.4508038  32.4041710  12.2621231  25.9713898  32.8560448  11.5980186
  25.7572899  32.7658424  13.0936823  57.6029968  63.9981461  83.0408249
  57.6233788  63.1468010  82.6037521  57.8145561  64.6268005  82.3507004
  60.6000557  39.2878151  59.3726006  59.8998375  38.6464882  59.2516594
  60.4933891  39.5917778  60.2739677  49.0610123  70.6036987  65.1338043
  48.6658096  69.8787003  65.6179886  48.7017479  70.5255432  64.2500381
  86.8126068  63.9379959  46.5705490  86.5694733  64.3540649  45.7435036
  86.5654221  64.5750046  47.2408867  18.9817181  56.9535866  68.9587555
  19.7330570  56.5705414  68.5059891  19.1229973  57.8984871  68.9001694
  68.8150558   5.2617283  24.1965771  68.9378510   5.0113869  23.2808895
  68.4585953   6.1491737  24.1565247  36.6162109  27.0486202   1.5511018
  36.9459648  26.4686527   2.2374930  37.2118454  26.9108944   0.8145682
  59.8710861  10.5428095  22.5068855  58.9614296  10.2458286  22.5306168
  60.3521500   9.8104811  22.1215210  28.7689590  28.5793877   9.5680447
  28.0167274  28.9048901   9.0736465  29.1363182  27.8878574   9.0175314
  85.8050537   8.8960705  29.5137463  85.9064484   9.6985197  29.0018616
  86.2602005   8.2268391  29.0026684  56.1310234  42.5164337  74.1284485
  56.6914749  41.7994423  74.4251862  56.4827805  43.2920074  74.5654678
  34.5512657   3.3623621  44.8122902  35.2571182   3.9951336  44.6796074
  33.7569313   3.8948441  44.8538818  25.6329441   3.1616313  28.0111313
  24.8143616   3.3383195  28.4747410  25.6280651   2.2150939  27.8687420
  76.2819519  25.8789082  39.2007751  76.7604828  25.9655533  40.0252342
  76.7537003  25.1985283  38.7203903  36.7924309  69.4548721  76.7864914
  36.2646523  70.2257309  76.5780258  36.5689201  68.8202972  76.1056213
  19.7565269  64.4012604  63.9730949  20.1844101  65.0883942  64.4839706
  19.2953987  64.8712921  63.2783546  46.0532990   5.6664267  87.0022202
  46.1412086   5.4622560  87.9332504  46.6863441   6.3680930  86.8500748
  44.5623398  33.7370682   5.3930764  44.2410126  34.1531754   4.5931797
  45.3384438  33.2507248   5.1149230  10.8755274   0.9405175   4.3553424
  11.6943874   0.9088541   4.8500104  11.1414413   1.1773859   3.4668524
  61.2431335  66.4026184  79.6203003  61.6653595  65.7898483  79.0182495
  61.0464401  67.1696320  79.0824966  69.3242493  25.4643059  52.0299377
  69.4617920  26.2515621  52.5567627  70.1744385  25.0245209  52.0299911
  69.3282166  14.4620972  16.7107124  68.4037018  14.3780231  16.9440441
  69.3540039  15.1936426  16.0939407  37.1160927  10.0727253  27.2442245
  36.3835220   9.8921900  26.6551781  36.7205467  10.1056967  28.1152515
  58.4863243  66.8232346  48.9692230  57.9020882  66.9773560  48.2268295
  58.0720787  67.2829819  49.6994705  78.7487259  37.8490410  51.7621841
  78.6342621  37.1297188  52.3832359  79.0218277  38.5906181  52.3022881
  39.6504784  43.8656731  52.6625099  39.8447418  44.6589508  53.1617088
  39.2048721  44.1806679  51.8760986  84.4017258  41.1067505  11.1599407
  85.2757797  40.9760971  11.5276337  84.5589142  41.5090065  10.3057079
  28.8937149   2.4593287  86.0323105  29.1254921   3.0397422  85.3073044
  28.1033878   2.8481019  86.4071045  52.4779243  35.4794273  65.4121475
  52.1386070  36.1441994  64.8128281  52.2321587  34.6463890  65.0098114
  39.8262062  55.1507797  50.4627571  39.4625320  54.5243187  51.0884743
  39.8784065  55.9730606  50.9499588   9.7043629  15.2415857  88.6516113
   9.3296604  14.3608112  88.6435318   8.9492731  15.8222475  88.7459717
  42.5376816  40.1176414  77.3253708  41.6093979  40.2349319  77.1234665
  42.7816353  40.9118881  77.8006516  15.2709570   3.9164784  76.8132172
  16.1155872   4.1016302  76.4026642  15.4232178   4.0561085  77.7478561
  13.6978140  66.1933823  29.7585335  14.2181644  65.5385284  29.2930984
  14.3302412  66.6541595  30.3098545  87.0732803  49.8483734   6.8982162
  86.3834152  49.4171066   7.4025264  86.6815186  50.6741524   6.6138840
  30.2406712  62.4932251  80.6079330  30.2218304  62.9577904  79.7712326
  29.7505989  61.6872139  80.4454422  80.3739777  48.9562988  62.6501503
  81.1230011  49.3196106  62.1777039  79.6236954  49.1348686  62.0832176
  21.7755184  45.6118507  28.5260754  22.3222237  45.2250252  29.2099667
  22.3354511  46.2711449  28.1161480  58.1338806  19.7843151  39.0110016
  58.0742455  18.8744240  39.3021584  57.2249565  20.0807133  38.9636917
  12.6218309  60.7594223  58.3208656  13.1883812  60.6590652  59.0858345
  13.2260361  60.9036636  57.5926056  25.6931133  61.6353340   5.2171822
  26.0111942  62.5324364   5.1158686  26.3190174  61.1024666   4.7267437
  80.4785461  56.0581551  37.8571548  81.4138412  56.0421486  38.0601082
  80.0500717  56.1433907  38.7088470  67.6620407  13.9904480   5.0497093
  68.0518570  14.6261587   4.4495888  67.4558258  13.2357054   4.4982824
  48.6977997  57.3870811  74.0033569  49.2716331  57.4908676  73.2442932
  47.8162193  57.3436623  73.6329956  83.2834396  56.2214394   7.9971671
  83.0407410  56.7680283   7.2497921  83.6967621  56.8269844   8.6125641
  56.1245155  23.5803146  83.3752747  55.8944702  22.8762016  83.9815216
  55.8808479  24.3827934  83.8366699  85.2634888  68.0481949   8.1904430
  85.4211731  68.3517532   9.0844326  84.3273392  68.1907883   8.0506935
  59.7524796  40.7649879   6.7981925  59.3245964  40.2279320   6.1313224
  59.8868752  41.6122017   6.3734531  56.6338844  57.7729912  41.7195053
  56.6276894  57.6823730  40.7666245  57.5180740  57.5139427  41.9789925
  50.2186584  35.1874352  33.5261536  50.0499496  34.8542862  32.6448021
  49.3600235  35.1912498  33.9491920   6.0689468  63.5562935   8.5808611
   5.5661569  64.3666763   8.4989023   6.7023048  63.5938644   7.8641477
  51.1490860  36.5885124  75.5906982  50.6963272  35.7978401  75.2973099
  51.9003944  36.2640343  76.0871658  38.2093239  39.1366844  83.4293976
  37.4881516  38.5659294  83.1641159  37.9984398  39.3867111  84.3289795
  59.6887703  42.2040291  75.2866821  60.6314240  42.3228188  75.4029922
  59.2968025  42.6485519  76.0383453   0.6959232  44.1536331  43.8477478
   0.7556841  45.0662651  44.1301765   1.4845206  43.7415695  44.2006645
  22.2213707  29.5278301  76.9257660  22.1765308  30.0107441  76.1005249
  22.8514938  28.8268261  76.7591248  51.1923485  25.7651100  31.8344307
  50.7311325  26.5756721  32.0500793  50.9409370  25.1547890  32.5276337
  54.1382751  34.9367104  19.7463245  53.2372627  35.0752602  20.0382404
  54.0646896  34.7905502  18.8032150  17.0732784  55.8659592  45.0943680
  17.2808990  56.4347382  44.3530083  17.8039322  55.2489166  45.1348343
  64.7267532  43.0294914  26.7161140  63.8226471  43.2313232  26.9571457
  64.8265533  42.0992241  26.9182854  28.4669209  22.9982166  15.0778399
  27.5141773  22.9126587  15.1123438  28.6790848  23.6022053  15.7894678
  83.0879974  26.0020027  25.0353184  83.3761597  26.8760433  24.7721672
  83.8891907  25.5603123  25.3168068  16.6008396  49.2295074  64.5622406
  17.3932133  48.7602234  64.8232956  15.9149170  48.5618782  64.5658493
  52.4359436  56.4667587  41.6497879  52.3043594  56.2183228  40.7348022
  53.3096695  56.1394463  41.8635712  13.9986506  71.6227646  38.6303711
  13.1225367  72.0074692  38.6047134  13.8705759  70.7616959  39.0283508
  39.3971062   1.1272706  26.7462292  38.6809349   1.7435389  26.5927944
  40.1025085   1.4330475  26.1760178  49.6061935  66.2774582  50.4217491
  49.6138496  65.3447800  50.6368904  50.2981949  66.3781815  49.7681313
  60.3071861  20.7351227  30.6018238  60.6038857  19.9161530  30.9986744
  60.6495094  21.4183750  31.1782036   5.4848909  59.6315269  67.8925018
   4.7370229  59.3416328  67.3701172   5.3682966  59.1989136  68.7383652
  86.4249573  10.4171524  32.6786003  85.8825607  11.1948481  32.8098679
  85.9398880   9.8914099  32.0425682  76.6686859  61.2625694  32.7527122
  76.3909378  62.1769485  32.8074455  75.8562088  60.7610092  32.8201904
  61.1168442  57.3126717  13.1847982  60.7727661  56.4995537  13.5544996
  61.9576187  57.0641747  12.8006382  15.4711895  11.3507004   5.3823962
  15.6968813  10.7443523   4.6769619  14.6580772  11.0015650   5.7473416
  70.6646500   2.6933825  17.4892006  71.0504074   1.8284262  17.6280346
  70.1261978   2.8430309  18.2663174  23.4159985  55.2942505  48.4109535
  22.5265007  55.6447716  48.4574699  23.4762478  54.6944122  49.1544533
  56.6249237   5.0541382  55.4363976  57.0253258   4.9106750  54.5788879
  56.3623047   4.1808238  55.7272339  39.7110634   9.2120495  16.0438061
  40.0117912   8.7023478  16.7961349  38.7879181   8.9773903  15.9490976
  81.2877350  58.6287880  35.4900398  80.6007996  58.0774422  35.8647079
  81.3326645  59.3856583  36.0742950  83.2910233  24.9310684  71.5578079
  82.6484222  25.6403160  71.5415649  82.9923325  24.3532810  72.2600708
  55.8456230   0.8693604  77.5223999  56.2746735   1.2115877  76.7381668
  54.9874229   0.5753911  77.2169418  66.4820023  28.2185802  84.1213074
  66.6775284  27.2845592  84.0464401  65.6580048  28.3295593  83.6470261
  58.3473854  45.3161278   5.4499755  58.1509361  45.6178207   4.5630589
  57.6020126  45.6101952   5.9735942   5.1780653  37.2182083  41.0230293
   4.8175325  37.3561935  41.8989334   6.1261621  37.2033119  41.1538849
   8.8139009  33.3260307  38.6489944   8.6319523  32.7618599  37.8974342
   8.7379265  32.7467918  39.4072456  20.7709198  66.4564133  65.6550751
  21.1367111  66.6213608  66.5241089  21.1731930  67.1209641  65.0958023
  29.9158955  69.2056046  87.4497757  30.2000408  68.4311447  86.9642868
  30.5800648  69.3191147  88.1296463  20.4132462  18.9884892  73.5595169
  21.3396358  18.9282570  73.7927628  19.9885311  19.3223972  74.3496780
  81.3876114  58.3982391  22.4846077  81.1672821  59.2409859  22.8814201
  81.6605911  58.6170845  21.5936413   7.9779224  25.3625202  26.7126312
   7.6869678  24.9282932  27.5145206   7.6992335  24.7769985  26.0085506
  54.0037537  66.3333969  58.7617989  53.6556358  66.1950302  59.6426506
  54.3624268  67.2206116  58.7826462  70.4254761  71.7603989  48.3814392
  69.9560852  70.9523544  48.1741600  70.8614502  72.0006027  47.5638428
  29.9982414  56.1787910  60.9000320  29.7470512  55.4571686  60.3234901
  29.2041397  56.7067909  60.9827881  79.2807617  26.7316246  45.5314865
  79.7379990  27.2260075  46.2117424  79.8874664  26.7254524  44.7911453
  52.7463951  21.4542332   0.0860894  52.2913742  21.7067966   0.8894570
  53.0138931  20.5476818   0.2372263  19.8018055  15.1522284  87.4277420
  19.2577038  15.3438730  86.6639023  20.6093178  15.6432400  87.2758713
  83.2518463  43.3525696  54.7944679  84.1262970  43.7319603  54.8818474
  82.7238770  43.8153572  55.4450836  70.8520050   7.8964982  79.6072311
  70.0345001   7.4855008  79.3261719  70.6264420   8.8185005  79.7307739
  36.4359131  15.9500370  40.0333595  36.9018631  15.1457548  40.2619553
  35.9446030  16.1750126  40.8234444  64.6433792  43.9909286  64.8448257
  64.9776840  43.1252823  64.6100311  63.7149773  43.8474274  65.0284348
  37.6535645  28.4181213   7.6062222  38.3831444  27.8189621   7.7641745
  37.0895767  27.9514236   6.9895015  79.0859375  51.1714249  50.9729691
  78.8634949  51.9465179  50.4572296  79.3123703  50.5073624  50.3218307
  57.9618797  42.4853973  86.0062790  57.9932327  43.0677185  85.2472305
  57.6297531  43.0349197  86.7161713   9.4239864  12.1862946   8.5757685
   9.7360849  11.2814293   8.5691433   9.4329386  12.4359808   9.4997864
  54.7090645  16.5920372  71.8638840  53.7616196  16.4793949  71.9406586
  55.0644112  15.7093372  71.9678116  60.5771599   7.9705720  81.8339691
  60.3535347   8.6219645  82.4987335  59.8669815   8.0271988  81.1947021
  58.8886490  43.6647453  73.3211899  58.9456329  42.9465675  72.6909485
  59.1057701  43.2629662  74.1624222  64.8484039  31.7211514  16.1214733
  65.5919724  31.5201607  16.6897469  64.7234421  32.6654854  16.2155399
  15.2413206  47.0543175  29.9451160  14.9454432  47.8705330  29.5420322
  15.9876757  46.7806702  29.4119167  67.3737717  61.3020210  48.7121162
  66.9224548  61.5726433  47.9125519  67.3269882  60.3460197  48.7016830
  65.9466934  69.7136230  77.1130219  65.0678024  70.0872650  77.0483932
  66.3688126  69.9500961  76.2871170  19.7004414  58.5367241  19.9926548
  19.2765827  58.7641640  20.8202095  20.2155552  57.7555161  20.1941566
  76.4830551  38.2743797   6.9899545  76.4815216  38.6289101   7.8790765
  75.8010941  37.6027527   6.9987326  71.8123627   1.9251887  78.7972870
  71.6907959   1.4238261  77.9910049  71.4311523   2.7821646  78.6062164
  48.9927406  59.4466095   7.7434530  49.0344467  58.6395416   8.2564154
  48.3261108  59.2737007   7.0786700  77.2194824  60.6475258  77.6801300
  77.5015030  60.3225670  78.5351715  76.8917160  61.5296249  77.8553543
  62.4442024  27.4804440  71.1642075  62.8667755  27.1281528  70.3809128
  62.6188164  28.4208908  71.1281204  53.4460297  55.7276573  58.7024841
  52.8562546  56.3201408  59.1687050  54.2397652  56.2432251  58.5596275
  58.4828568  10.7917347  19.4358330  58.4129715  11.4572392  20.1202679
  59.3763809  10.4580650  19.5165462  21.4403038  69.3430176  19.6579533
  22.2197285  69.8517914  19.4346104  21.0506248  69.8130112  20.3951721
  28.3706341  30.5537853   3.0493224  28.6792316  31.3130302   2.5548077
  27.5182800  30.8218708   3.3926256  36.8124695   9.9162178  78.8582153
  37.3017998  10.3364773  78.1509857  36.4536896  10.6436930  79.3664322
  76.6150818  35.2806587  67.0669098  76.4891052  34.3613968  66.8317184
  76.6143494  35.7443962  66.2295456  31.8363438  70.1248474  48.2000809
  31.2538166  70.8731995  48.0702438  32.5577774  70.2740326  47.5889282
  14.9699030   0.4362454   2.5398779  15.6330147   1.0866835   2.3086970
  14.5564213   0.2092747   1.7069616  28.9682865  55.1954536  56.7425690
  28.5276890  54.4097328  56.4189110  29.1398087  55.0106812  57.6659737
  60.5800362  56.2376900  66.1493073  61.0841446  56.4936256  65.3769073
  60.0134468  56.9888611  66.3252411  70.3767700  17.2205315  18.6275768
  70.9335022  17.9990978  18.6167412  70.7995758  16.6152515  18.0183945
  70.9806290  63.6496620  36.9730911  70.0563126  63.8576164  36.8366165
  71.4303741  64.0623474  36.2357674   3.1639278  43.6545753  70.5948181
   2.5752411  42.9027023  70.6609192   3.5989559  43.5445557  69.7493134
  56.7018471  50.2040100  18.0955868  57.0899582  49.3566170  17.8775768
  55.7809677  50.0083008  18.2685242  69.9148331  22.1371670  50.5879440
  70.3341370  21.2796249  50.5169640  69.0775528  21.9596424  51.0165215
  84.3071518  60.3980713  36.8163872  84.9444580  60.2055168  36.1286430
  83.7638855  61.0962601  36.4508324  12.8107557  52.9529648  35.4573746
  13.5798006  53.1548042  34.9244003  12.4094210  52.2001266  35.0233231
  65.1550598  64.7619705  79.5372849  64.4173431  64.4451599  79.0161057
  65.3866272  64.0223312  80.0990219  54.5476456  59.4056320  88.0373459
  53.8544464  59.1965294  88.6634293  54.5195961  58.6907997  87.4013672
  56.5270119  15.1957836  62.8643417  56.8004494  14.6376600  63.5923271
  55.5736046  15.2367630  62.9389458  85.4818878  30.2056580   2.7719865
  85.4045944  30.5010891   3.6791680  84.6164551  30.3627357   2.3943779
  68.9223938   8.7809372  86.5306549  68.8261795   8.1238747  87.2200394
  68.9393158   8.2750216  85.7182541  67.9765701  42.6550980  76.2869873
  67.6248779  43.3353653  75.7127228  68.4743881  43.1345062  76.9492340
  52.6155434  12.3289499  59.1979141  52.3282433  12.9779463  58.5556564
  51.9514389  12.3630600  59.8864136  20.8892746  28.4857273  86.4140167
  20.5507679  28.0898304  87.2170792  20.5013313  27.9669952  85.7092819
   0.0528341  14.1930027  42.4550896  -0.0294778  14.8628283  41.7762756
   0.0727386  13.3656912  41.9740601  50.6392632  24.4127426   0.9923586
  50.3669281  23.7684727   1.6457982  49.9404335  24.4006691   0.3383507
  59.6276016  20.5970173  12.1559372  58.8253632  20.5899010  11.6338291
  59.7076149  21.5011806  12.4597740   6.6986670   0.1246792  66.3113632
   7.3492975   0.3246420  66.9843597   7.0434084   0.5316186  65.5165100
  54.5525551  20.7646065  14.8617363  54.9744797  20.4918613  14.0469828
  55.2565727  20.7570610  15.5102253  62.8154068  28.9807281  10.7145300
  62.1109505  28.9600563  11.3622561  63.0611572  28.0629082  10.5985661
  20.1650581  40.1947784  38.3809586  20.3487873  39.2662544  38.2384148
  19.2180767  40.2721252  38.2648773  74.3426361   6.7653275  37.4934769
  73.8193207   7.4907155  37.1526222  73.7547607   6.0105605  37.4623947
  42.8359985  71.9611511   1.8636918  42.3332214  71.6651764   1.1048448
  43.5170975  71.2975922   1.9733539  78.3704758  40.6050949  18.8162880
  79.1388855  40.1534996  19.1653423  78.1264114  40.0986710  18.0415611
   4.5258708   8.0941944  32.3029213   3.6288047   8.3670912  32.4953575
   4.6731758   8.3751497  31.3998184  85.4448166  64.1502762  27.8422375
  84.8086243  63.5250473  28.1894779  85.1750946  64.9935150  28.2061462
  41.9279442  33.3360252  85.5702972  41.9661713  33.7471161  84.7067108
  41.8291435  32.4018135  85.3866882  75.0622940   2.1382616  68.6165924
  74.1760101   2.3755176  68.8894272  75.4515228   1.7341313  69.3921051
   3.5009346  68.7089157  22.2665424   3.4831581  69.6476898  22.4526253
   2.5820265  68.4722366  22.1407566  79.4076767  23.9124298  56.1779747
  79.3134918  23.1964893  56.8062973  78.5334473  24.0184536  55.8028603
  45.4974556  48.2852707  63.3173332  45.0790443  49.1422539  63.3994789
  45.3452682  47.8624344  64.1624832  22.1844635  56.4154396  25.0176487
  21.8539600  55.8005257  25.6725388  21.4245014  56.9488335  24.7848797
  42.7587204   3.0882826  42.4357986  42.1460991   3.1174667  41.7008972
  42.2516022   3.4054832  43.1830902  14.2909794  57.8881493  15.0200806
  13.4034815  57.5439301  15.1205282  14.7884312  57.1619034  14.6441326
  56.6406860  45.6528664  10.0601635  57.1671562  44.9485283  10.4382715
  57.0696030  46.4566193  10.3538408  74.8270721  28.9137516  13.8137217
  74.8267746  28.1631126  13.2197742  74.9536972  28.5318794  14.6822672
  18.7963123  28.4146767  84.0126343  19.0497246  29.3309937  84.1238861
  17.8523960  28.4444752  83.8565369  65.4255524  51.5033646  23.1538506
  64.8159256  51.2453651  23.8452396  66.2856140  51.2426147  23.4833069
  13.6974945  22.2970905  69.7539902  14.2884207  21.8937283  70.3898697
  13.0474148  21.6196175  69.5678253   0.4136222  34.1580849  74.5721741
   0.9161679  33.7320786  73.8777695   0.6573055  33.6859093  75.3683548
  15.8579531  67.4228134  81.5028992  16.7516956  67.4289627  81.8455658
  15.7148895  66.5186310  81.2232285  14.9319077  42.0380020  47.3007164
  14.7734451  41.2717171  46.7494202  15.6947527  42.4621391  46.9077721
  15.6427002  70.3432236  13.2851276  16.2629871  70.0504532  12.6174765
  15.0784483  69.5850372  13.4367695  45.8674431  51.9740257  78.1102066
  46.5584221  51.3116264  78.1129837  45.5428276  51.9777336  77.2097397
   4.0545354  33.2102013  17.1161060   4.4069271  33.0376472  16.2430210
   3.1584871  32.8751640  17.0832481  86.1223221  15.7448769  40.2348785
  85.9713593  16.6899853  40.2494774  85.2456207  15.3629122  40.1931763
  76.6283493  59.3009186  26.6580696  76.3258743  60.1979065  26.8000050
  77.5147858  59.3992462  26.3105164   1.9058611  36.5647736  67.5037308
   2.5946968  37.2191582  67.3874512   1.9277194  36.0482712  66.6981354
  71.1434555  33.9810791  51.7981110  71.2094803  33.4932060  50.9772263
  70.3825989  34.5494118  51.6784286  74.6819229  53.8090210  84.3799591
  75.2093964  53.0146255  84.4633102  73.9914703  53.7079086  85.0351486
  62.1986656  15.8835154  48.7188530  63.1509247  15.9430103  48.7956657
  61.8938789  16.7859173  48.8137512  22.8911438   1.0085280  22.9981079
  23.4741096   0.3449832  22.6292019  23.4386520   1.7893695  23.0802860
  34.5706711   6.7794981  33.8192825  34.2018585   6.9926343  34.6764755
  33.8699226   6.9828901  33.1997528   7.1378841   2.2655396  37.1590767
   7.5825677   1.8098516  36.4443512   7.5214329   3.1425359  37.1593323
  66.6348877  65.0057297  39.4950600  67.0435715  65.7768021  39.8883324
  65.8186188  65.3335571  39.1176147  23.0985889  53.6113930  62.1402893
  22.3231869  54.1558990  62.2763100  23.4008274  53.8403091  61.2613792
  59.1732635  22.8348751  79.3457794  58.8379021  22.9300537  80.2372360
  58.7739754  23.5573959  78.8612518  26.6819420  69.9639664  73.9017639
  26.7827835  69.0246201  74.0556870  25.9260654  70.0312881  73.3183670
  18.8181362  51.9232368  14.6283531  19.6696510  51.5034866  14.5060148
  18.4997082  51.5801048  15.4632759  41.6988297  51.8928795  30.8413277
  41.4595184  52.7767830  31.1200294  42.6109886  51.9687729  30.5612659
   5.2022824   7.3832626  41.4472923   4.9075117   7.1671729  40.5626183
   6.1263194   7.1337857  41.4594917  86.8613205  20.8348122  77.5313263
  86.2557068  20.1298466  77.3022385  86.3154907  21.4854202  77.9729309
   2.7235441  36.9570198  73.2222900   3.4244921  36.4749413  73.6610413
   3.1531527  37.7363510  72.8697128  11.7349024  35.8086853  12.3251934
  11.1556473  35.0515938  12.4118433  11.1435375  36.5608788  12.2982874
  80.5587234  38.8113708  86.3011017  80.8614807  38.4548264  85.4659729
  79.6909866  39.1669693  86.1092300  78.3843231  52.1191711  64.5767441
  79.0659103  51.4636726  64.7250214  77.8325119  52.0717506  65.3574448
  17.2206402  45.4644089  62.9691925  17.4239044  45.2685623  62.0545578
  18.0560455  45.7400627  63.3464813  69.1047211  26.8038006  82.5782700
  69.3835754  25.9379120  82.2804260  69.6863937  27.4125214  82.1229172
  44.3067894  60.5186348   6.9234166  44.3227730  59.8036728   6.2871690
  43.3887711  60.5848694   7.1862574   4.3960619  56.1872292  81.4079361
   4.0696468  55.9273148  80.5464630   4.2524261  55.4188156  81.9603271
  24.1770916  62.3991318  86.1770630  23.5047359  62.8484573  86.6891937
  24.2503166  61.5354919  86.5832672  30.1382465  68.2779617  65.0896683
  29.3300915  67.7955399  65.2639923  30.1044464  69.0255051  65.6865540
  10.1473598  22.6575527  62.7638130  10.6407776  23.0283604  62.0321884
  10.8161573  22.4060516  63.4007492  28.3402290  63.3804703  76.4538879
  28.9528637  63.5029945  77.1790771  27.8622932  64.2081680  76.4016571
  20.9432259   3.0240493  27.8023319  21.2505054   2.9691930  26.8974552
  21.5514355   3.6300588  28.2254925  84.0771332  67.2860031  67.8698273
  84.7841187  67.7208633  67.3930664  84.5195007  66.6293259  68.4077148
  57.4495087  57.7528610  67.5338669  57.1829948  56.8361626  67.6035995
  57.6063118  58.0261230  68.4377365  63.3380432  12.7714090  13.9899979
  63.1280975  13.1455212  14.8456821  63.9633751  12.0723667  14.1811256
  46.1076050  43.6080704  54.4589882  45.2869225  44.0094833  54.7446175
  45.9121704  42.6723213  54.4098778   6.8690100  50.2307663  46.5067635
   6.2473497  50.9551620  46.4359055   7.7270360  50.6394730  46.3928337
  34.6109161   6.0873494  85.2875137  33.9779892   5.5981727  85.8131943
  34.7602348   5.5368013  84.5188599   1.2702321  70.3388214  25.2095566
   1.8724842  70.6964035  24.5571308   1.3616464  70.9205551  25.9641800
  42.1738014  58.1392670  13.6670055  41.4399185  58.0392532  14.2733393
  41.8780212  58.7990036  13.0397158  82.4641724  52.8602448  70.6362915
  81.7123566  52.9400597  71.2233429  83.1884003  52.6053123  71.2079010
  74.9010696  20.2087345   2.3458986  75.1163864  19.3468971   1.9893788
  74.8123779  20.7709522   1.5763031  86.0712433  68.1453857  45.7441483
  86.8091507  68.2155457  46.3497925  86.0491028  68.9902191  45.2947083
  84.6642303  31.0994225  37.4658661  84.2882843  30.7111835  36.6758232
  84.6379318  30.3958340  38.1143265  37.9361305  51.5653458  64.5576859
  38.2261810  51.9769897  65.3717194  38.7408524  51.4317513  64.0568771
  62.6693153  50.9867630  43.6540260  63.3893661  51.6173019  43.6406593
  62.0819397  51.3084259  44.3379478  36.2536659   5.7633543  27.8664055
  35.5474167   6.2544093  28.2862949  36.8580971   6.4353199  27.5511971
  32.7336426   2.2360473  27.4791660  33.6015282   2.6222665  27.5968208
  32.3500595   2.7259843  26.7518024  69.6773834  56.3313637  11.1186590
  69.8457947  57.2360611  11.3820753  70.3546448  55.8222122  11.5639858
  34.6368484  40.0041542  69.7434616  34.2173309  39.3700714  69.1619339
  35.2617302  40.4653893  69.1839828  68.7307205  55.7365379  76.9674759
  69.4705048  55.3021507  76.5429001  67.9979782  55.1321335  76.8490906
  62.7162437  65.8226166  75.2701492  63.5323486  65.8674927  74.7719650
  62.8994789  66.3084641  76.0742722  49.8246841  37.8753624  55.6520233
  49.6288223  37.6764374  54.7364388  49.4980125  37.1175003  56.1369591
  69.8495789  12.9857149  30.6779709  69.2108688  12.7873507  29.9931870
  70.1397018  13.8770218  30.4839745  16.5245895  42.8834419  42.4589539
  17.1583138  42.1661682  42.4469643  16.1317158  42.8705444  41.5861893
  43.3187065  37.4306107  25.9036160  43.8302269  37.2305527  25.1196804
  43.7946701  38.1469307  26.3238277  42.7688637  47.0378418   9.8587408
  43.3849373  47.3004036   9.1748199  42.5164795  46.1449013   9.6238079
  41.7948685  47.8510132  41.4242706  41.0193596  48.3507919  41.1692352
  41.8020515  47.1003685  40.8303719  68.1006088  33.9051399  27.8984413
  67.3036118  34.2654610  27.5096054  67.8615952  33.7203331  28.8067093
  33.2296638  13.7555132  77.1446686  34.0555687  13.3760090  77.4448166
  33.2289391  13.6098194  76.1986237  17.3309135  52.7195435  31.7661934
  17.3585052  52.8399925  30.8170033  18.1935024  53.0034256  32.0688248
  14.1420221  33.1947174  27.3697987  13.9516544  33.0153389  26.4490299
  14.9630747  32.7326965  27.5390434  34.3857498  71.2933121  21.6656456
  34.0760536  72.1683578  21.8993378  34.2448082  70.7706146  22.4550476
  17.6580868  15.7879257  27.5773373  17.1218243  14.9973154  27.5174103
  17.0585117  16.5011940  27.3582668  46.4084511  28.3791313   7.7373271
  45.6103706  28.7636604   7.3747826  46.9436646  29.1315632   7.9895663
  64.5888977  24.3872986  43.9279785  64.7799683  25.1142406  43.3352928
  64.3724899  24.8074589  44.7603645  29.6746502  66.5563507  47.3587532
  29.7973137  67.3085861  47.9378204  29.3485298  66.9336777  46.5417480
  18.7410278  48.6599617  82.0087585  18.0153694  49.2275925  82.2684555
  18.3209400  47.9182930  81.5732269  32.4907494   1.9027637  47.1159248
  33.0378227   2.6669109  47.2976456  33.0869598   1.2718103  46.7126122
  71.5350113  53.3863335  45.6315422  72.4317780  53.1138611  45.8259735
  71.6099396  54.3136330  45.4063148  46.5392342  32.7171135   9.6384068
  47.0859222  33.1143265   8.9604797  45.9228058  33.4070778   9.8837566
  27.7943020  61.3125038  46.5074043  26.9710255  61.7787094  46.6526680
  27.5276222  60.4295273  46.2515526  59.2787666  49.2191887  75.2236862
  59.9122925  48.5610504  74.9378052  58.5548592  49.1405869  74.6023941
   6.1587305  24.2533035  65.1490326   6.4941611  23.7613392  65.8984985
   6.3604264  25.1666451  65.3524017  35.2971535  24.5790577  24.4028664
  34.8792725  24.8318062  23.5796261  34.6807823  23.9680862  24.8066444
  53.5245018   7.6813259  18.3625126  53.9569511   7.7973614  17.5164890
  52.5915070   7.7727313  18.1691284  49.4997902  63.7278976  68.4071503
  48.9012566  62.9812088  68.3860474  49.8377762  63.7387085  69.3026276
  20.2252445  33.0974121   9.4241400  20.1839542  34.0284843   9.6423788
  20.8956051  32.7438622  10.0088205  58.6992073  38.1510773   5.1781192
  59.0045471  37.3422508   5.5889750  57.8325119  38.2994614   5.5563397
  61.6355095  67.9275208  66.8535843  61.3694267  68.8320236  67.0188141
  61.6995621  67.8670120  65.9004440  15.5540609  44.9643173  43.6000137
  14.9977808  45.4620285  43.0007896  15.8392525  44.2069740  43.0888138
  17.6427021  26.8102760  74.0531158  18.0936184  26.0811310  73.6273804
  17.4410744  27.4163017  73.3401566  21.2681427  42.7567940  35.7694473
  20.6116295  43.0582123  36.3974380  20.7581081  42.3909683  35.0467644
  41.9524956  11.0942593  16.0228920  41.9172096  12.0396967  15.8775129
  41.2113914  10.7477026  15.5260067  67.1153488  50.5670776   9.5229998
  67.6238403  50.4323158  10.3226900  66.9472885  49.6839180   9.1943455
  60.2813950  56.3432121  61.3195381  60.0044861  55.4433975  61.1466522
  60.0966911  56.8112869  60.5052757  22.7673168  33.1057549   3.4379494
  23.0417423  32.5452805   4.1637549  23.2404671  32.7640114   2.6792846
  39.3691483  66.2636948  46.3212776  39.6810684  66.0010529  47.1872787
  38.4755058  66.5718384  46.4718704  85.0979004  19.3912373   1.9180503
  84.9797211  18.4565601   2.0872955  86.0455551  19.5223846   1.9494191
  74.4730606  45.6832962   4.8160567  74.3818054  45.2213097   5.6494069
  74.4666290  44.9901314   4.1559730  50.4532166  16.6274433  20.5160198
  50.1227150  16.9523849  19.6785164  51.2042427  17.1879978  20.7108765
  54.7442856   4.1683044  11.5667849  54.9386559   4.6313276  12.3816843
  55.4777374   3.5636766  11.4540548  57.4919205   8.2838602   8.3382444
  57.3398361   9.0165920   8.9350748  56.9417534   7.5788155   8.6795082
  58.4208107  69.6618042   2.7141860  57.6386566  69.4254456   2.2155879
  58.8873901  70.2782745   2.1498270  46.2675896   2.0531199  34.1650848
  46.6600494   2.1501291  33.2974472  46.4761848   1.1553180  34.4232941
   1.7834755  66.2630234  72.1887054   0.8993472  65.9126816  72.2973633
   2.3325934  65.4903793  72.0555878  67.6513672  18.0642548  45.6434746
  66.7561646  18.0662804  45.9823532  68.0528183  17.2870541  46.0320969
  51.4628143  17.9195900   8.4371204  52.0005646  17.6416416   9.1786051
  50.6001167  17.5439053   8.6127625   9.4640846  53.9461594  76.0631790
   9.3177338  54.4034996  75.2351379   8.6025505  53.9232597  76.4796753
  11.6003866   6.5897083  81.0910034  11.3267546   6.5456357  82.0071945
  12.5432959   6.4266076  81.1145325  47.3440437   3.4771237  65.0497818
  46.4491882   3.2064879  65.2552719  47.2889099   4.4269710  64.9449844
  70.8951187   2.2371039   5.4520817  71.3914948   1.4211127   5.3888230
  70.6122818   2.2751818   6.3657479  11.6606302  42.2743263  75.4903183
  11.5270891  41.7635078  74.6919098  11.4734449  43.1766510  75.2314758
   6.5112433  53.7593842  38.4438133   5.9492717  53.8999481  37.6818008
   6.7034998  54.6402168  38.7653694  81.5005569   7.0375075  17.9041290
  82.4191818   6.8037896  17.7709675  81.1265564   6.2861805  18.3644142
  18.1306019  29.4440250  31.8212585  17.5329494  29.2070103  31.1121273
  18.0369167  30.3928165  31.9063969  61.9116478  64.4688263  53.3697205
  62.1888618  63.5857925  53.6139297  62.4112511  64.6661911  52.5774612
  64.2188416  27.3737450  64.6388931  63.5841064  27.3779163  63.9224205
  64.0149384  26.5808811  65.1348953  15.0762281  59.9896965  88.4318237
  15.4355106  59.4232521  87.7489700  15.4165306  60.8600426  88.2246399
  84.4713135  57.5845413  73.6732635  83.8801041  57.0908775  74.2415924
  85.3345947  57.4736938  74.0716324  51.9967194  41.9827423  27.5007401
  51.7483177  41.3567505  28.1809330  51.4114647  42.7280273  27.6358528
  38.8896866   1.1130728  45.5082092  38.3900337   1.2260717  44.6996231
  39.5167542   1.8362664  45.5053177  27.1083794  20.5711498  23.4827480
  26.5737553  21.3644238  23.4491711  27.1651554  20.3598518  24.4146080
  61.4445992   2.5794399  22.4699287  61.6966057   2.3591282  23.3666935
  60.8988609   1.8455797  22.1873474  78.2065353  21.0014114  33.4286957
  78.0626297  21.0518093  32.4837151  77.4345779  20.5458851  33.7645645
  80.1994400  68.2328720  10.4968567  80.6394424  67.7324677   9.8096714
  80.7847443  68.1692581  11.2515745   3.7648809   8.4160538  44.6288872
   4.2558460   8.8066425  45.3518143   4.1770287   7.5629148  44.4927979
  45.9628983   2.4051085  55.1591835  45.8842430   2.1946785  54.2287216
  46.5952911   3.1230049  55.1897659  50.2580109  67.6035233  43.8378983
  49.3162308  67.4342651  43.8127670  50.3528748  68.4841080  43.4748497
  14.8836441  38.5883446  14.7086048  15.2433605  37.8716011  14.1860008
  15.5724821  39.2529755  14.7099028  62.9585953   2.2896953  41.3096085
  62.3809433   2.2264597  42.0702362  62.6322289   1.6232953  40.7049370
  17.8069935  38.6470947  23.5900784  17.7229233  37.9180908  24.2046623
  18.6993504  38.9681396  23.7199249   8.6669464  57.2926178  32.8173981
   8.4540100  57.0635376  31.9127369   7.9367867  57.8413544  33.1037292
  28.0792427  18.0747509  23.5488052  27.6397419  18.8798122  23.2750397
  27.4866886  17.3739700  23.2767391  21.8667984  61.1468391   1.5793495
  21.9682636  61.5046539   0.6973607  21.5620518  61.8868599   2.1044483
   2.7079148  17.9742393  66.6690369   2.6249099  17.2383327  66.0625839
   1.8229010  18.3333530  66.7324295  68.6407089   3.2497005  26.1719017
  68.6560898   3.8717089  25.4445076  69.5534973   2.9813325  26.2768993
  67.0608826  27.4773006  63.7209473  66.1276093  27.6328716  63.8659973
  67.3119812  26.8651047  64.4126053  27.5526409   4.1376781  44.9406929
  26.6322002   4.1666045  44.6795731  27.6138783   4.7533755  45.6710320
  79.5450058  35.9981422   3.4065027  79.1403885  36.4161491   4.1666217
  79.0599442  35.1803246   3.2964184  86.8456879  54.6158562  15.7696915
  87.4923401  54.0132866  15.4022923  86.0007706  54.2434006  15.5174561
  43.8696327  65.1075211  62.2488708  43.1034050  65.5039597  62.6635513
  44.5938225  65.3090439  62.8414688  17.1794567  58.8997574  53.6107864
  17.5095940  59.2238617  52.7728157  17.3022041  59.6313629  54.2157021
  59.5838470  37.0861588  73.7132263  60.1727753  36.8172417  73.0081940
  59.8357048  37.9896774  73.9041595  51.5053482  35.6412201  20.2687263
  51.5445976  36.5286522  20.6253147  50.7737122  35.2302170  20.7291813
  70.8348389  61.3991089  82.9291763  70.9371185  61.2363586  83.8668747
  71.7179031  61.6081467  82.6246414   5.8525443  28.3200855  13.3744392
   5.9977226  28.2724819  14.3193665   5.1761317  27.6649380  13.2027359
  57.3206558  41.2806816  11.9732294  56.6479034  40.6176987  11.8180265
  57.8955956  41.2216911  11.2102098  56.8128738  39.1697769  39.1200676
  56.2246704  39.5152206  39.7915726  56.6420479  39.7120895  38.3500366
  67.2643967   4.7586823  43.2588081  66.3723297   4.4197288  43.1842728
  67.3127518   5.1125112  44.1468925  38.7520828   0.0009344  57.5903587
  38.5535049  -0.4307910  56.7594490  38.3080902   0.8469784  57.5327911
  42.3756714   4.0683293  14.3511562  42.2399597   3.8509057  13.4289083
  43.1826363   3.6115823  14.5886774  55.1631546  49.8477783  20.4065151
  55.9434166  50.0460625  20.9243069  54.9337692  50.6790581  19.9910793
  56.4653015  28.8089352  87.2361755  55.9033432  29.5680695  87.0807877
  55.8559570  28.0811920  87.3599548  15.6722784  59.5278397   4.0004187
  16.1490078  59.0898323   3.2953579  16.3513336  59.7892189   4.6223497
  77.5981598  28.2407761   3.9402049  77.5458145  27.3360367   4.2483282
  77.0246582  28.2665043   3.1742647  18.4650631  66.5941849  57.4007149
  18.4212627  67.5502167  57.3828888  17.5657463  66.3101273  57.2370911
  37.2305870  53.7910767  59.8875465  37.5163002  54.4852486  59.2936401
  37.8969078  53.1097565  59.7977753  59.0589485  59.2543221  56.3182335
  59.7314949  59.6191826  56.8933792  59.4737511  58.4890747  55.9200287
  42.8339767  22.7196789  11.4780912  42.0167770  23.2075539  11.3761263
  43.0573921  22.8174381  12.4037046  70.7616959  33.0201950  62.4158020
  70.1273651  32.5203590  61.9019814  71.5948181  32.5722466  62.2692223
  61.7973518  36.9638252  84.4682999  61.7377243  37.2652397  83.5617523
  61.9561539  36.0225258  84.3977814  72.7281113  53.1480064  56.9679642
  72.7424774  52.3008156  56.5226593  72.1200638  53.6787834  56.4533844
  39.3150635   9.2128544  74.5675583  40.2541771   9.1474800  74.3942795
  39.0188293   8.3046427  74.6278000  23.0032158  55.9346352  80.9703827
  22.1893005  56.3028755  81.3141403  23.5984249  56.6820068  80.9121323
  20.3475361  56.4132462  41.7067528  20.7973995  56.7453384  40.9298553
  20.7763996  55.5780487  41.8931694  34.7978363  50.6756287  67.6098099
  35.4712448  50.4107819  66.9832230  34.2487106  51.2918434  67.1250687
   8.2871704  56.2515106  64.2615662   8.6613102  56.1599922  65.1378555
   8.9716883  55.9310722  63.6742134  66.9568863  47.9846115  28.3656998
  66.4892960  48.8126793  28.2566414  67.4357758  47.8700600  27.5448608
  73.6017761  51.7930260   6.3577371  74.1343842  52.5442162   6.6190238
  72.7051620  52.1279221   6.3451657  30.4026260  15.2462482  84.2936401
  30.0863857  16.0383282  84.7281952  31.1605339  14.9752083  84.8116608
  73.0663223  32.8147011  46.7946777  72.1455231  32.6388779  46.6011810
  73.4825134  31.9528103  46.7821198  29.8670902  59.2637444  46.6216354
  29.9520264  58.5417099  45.9989929  29.6015911  60.0115891  46.0864067
  51.2976036  55.6779099  80.3420029  51.8978767  55.7449455  79.5994263
  51.7331696  56.1581459  81.0461884  31.2614079  45.1543007  83.5625992
  30.7648773  44.8516998  84.3229446  30.7872562  45.9286461  83.2596130
  76.6599197  63.5020866  80.3463364  76.6150055  63.4852753  79.3903351
  77.1120377  64.3207016  80.5505142  10.2162523  16.3109055  27.7487106
  11.1219540  16.4895382  28.0017471   9.8542519  15.8189383  28.4857025
  80.6725922  49.0057030  36.8098755  81.2314377  49.7710114  36.6748695
  79.9409943  49.3327179  37.3333893  74.6323318  68.8480225  42.9038162
  75.2456741  68.9561386  42.1769295  75.1783371  68.5672226  43.6381645
  54.3853569  48.1031227   1.2286161  54.1320000  48.9061394   0.7734202
  53.5621033  47.6332016   1.3614912  54.7526283  47.3889809  46.5377922
  55.2965469  48.1765022  46.5516624  54.7923965  47.0863762  45.6305542
  47.6576881  19.8323803   6.7755404  47.3163719  18.9660244   6.9972630
  47.9341698  19.7544022   5.8624644  48.1197357  69.2694168  57.3915062
  48.3353081  69.9609451  58.0172501  47.1691437  69.3233185  57.2930450
   7.3424697  50.9275780   1.5228523   7.9489183  50.1879501   1.5603117
   6.4981842  50.5341187   1.3023913  81.1226807  18.6507397  42.3100700
  81.3117142  18.0637150  43.0421219  80.3973007  18.2309875  41.8476143
  83.0968094  54.6934509  18.3102016  82.7477341  54.1707726  19.0321350
  83.4573517  55.4735374  18.7317505  57.7163696   2.3403306  70.6930847
  57.5769691   2.7411013  71.5510941  58.4852104   1.7825381  70.8113403
  69.3283539  49.0318680  76.5153656  68.6947861  48.3144112  76.5240784
  69.8767319  48.8578682  75.7503510  22.6964607  44.0233078  31.2520256
  22.7264118  43.0755959  31.1209755  23.6030197  44.2682228  31.4375000
  33.6420898   1.6455913  87.0839767  33.5855484   0.9393663  86.4403305
  32.7787590   2.0584514  87.0630035   6.7308078  60.3746948  74.8419342
   6.8127728  61.2868805  74.5636673   5.8840790  60.0936432  74.4951019
   5.2812772  27.4540653  85.1909103   4.4241500  27.6125278  84.7953644
   5.9070415  27.7891865  84.5487671  65.6107178  15.5317574  55.4926872
  65.1320114  15.0952244  56.1973228  65.3012924  15.1058474  54.6932564
  43.5205879  66.1890564  18.8945618  43.6276283  67.1340332  18.7859440
  42.5803833  66.0412292  18.7926178  27.7271957  35.6464767  79.1985092
  27.8793144  34.7016792  79.1772690  27.1088371  35.7733994  79.9180603
  24.4336376  15.3159761   1.7473170  23.6655846  15.1622486   1.1971406
  25.1744766  15.0432844   1.2059954  61.2938309  51.1810951  14.3077469
  62.0137520  51.1659164  13.6771002  61.4226608  50.3941917  14.8372908
  64.4755325  35.3804321  22.6702919  64.1676178  35.1339149  23.5424442
  63.7217445  35.8058319  22.2615395  57.3502960  30.3643703  65.8209000
  57.9204102  29.9892845  66.4920959  56.5559731  30.6136017  66.2933044
  32.1661835  49.8551865   5.7206516  31.6828861  49.8892784   6.5461783
  31.4872799  49.8429527   5.0459857  24.8147106  69.0759506  20.9844475
  25.3554077  69.8048935  21.2886086  25.0305195  68.3546982  21.5755959
  57.6234131  13.8714952  25.8287563  58.5138702  13.8767195  25.4776287
  57.7304764  13.6333351  26.7496510  27.4108868  65.0925751  38.4091797
  27.2803497  65.4915085  37.5489235  27.3838921  65.8282700  39.0209465
  85.2039795  66.9587173  85.6420212  84.5166550  67.0757294  84.9861755
  85.1772766  67.7614212  86.1627884  73.8623962  26.1587811  58.6469231
  73.0669632  25.7012844  58.9193497  73.5573730  26.8207874  58.0264893
  79.5066833  37.6893501  77.8773727  79.3085098  38.0220604  77.0020065
  78.8975067  36.9613533  78.0004883  66.3319321  62.1659393   4.6559405
  65.7004623  61.6797447   5.1861196  66.6812744  62.8308296   5.2493324
  63.9076958  60.8540192  19.1886921  64.5212708  60.6310043  19.8887043
  64.3825607  61.4828644  18.6452885  25.2766914  59.9011154  20.6433582
  26.0161610  60.2254524  20.1293354  24.7428761  60.6776657  20.8114185
  63.7812576  55.4783096  64.5660706  64.5909195  55.2103462  64.1314774
  63.2154274  54.7079849  64.5144043  12.9436836  67.1304779  81.3860626
  13.1964283  66.8140106  82.2533646  13.7521133  67.4842300  81.0152130
  56.4106255  11.6545382  42.2637100  57.1478348  11.6380663  42.8740234
  55.8943405  10.8811674  42.4908218  25.1265545  70.1006165  35.2330971
  24.8303547  69.4505920  34.5959396  24.3844376  70.2083740  35.8279724
  75.5126266   7.7042594  44.2129784  74.7287292   7.6251864  43.6693916
  75.5217514   8.6209850  44.4882278  82.5956268  26.0346489  49.2474442
  83.3421707  26.4037476  49.7193146  82.2313080  26.7735214  48.7600288
  51.2796440  54.1971397  55.2363777  50.9790421  53.3731079  54.8531799
  52.1634750  54.0067482  55.5507507  83.2407150  31.2051220  22.0364151
  82.8917618  31.4142151  22.9028702  82.4745255  31.2075443  21.4626675
  19.3308887  12.0206232  88.6779175  19.7445755  11.2653341  88.2600327
  19.3857384  12.7165546  88.0230179  59.1447525  65.9913177   9.2727156
  59.9889603  66.3698425   9.0272341  58.4971809  66.6050873   8.9260664
  51.9673691  57.8629875  36.1064491  51.0701599  57.7988853  35.7791252
  52.0101700  58.7248154  36.5207596  61.8541527  33.1842155   4.8589482
  61.1639366  32.5233116   4.8038864  62.1381607  33.3099365   3.9535382
  51.2200394  67.3204803  46.2441864  50.4466667  67.7269363  46.6352386
  50.9837151  67.1903610  45.3257904  41.4431152  17.8517723  84.2961121
  40.5484238  17.7045383  84.6028519  41.6600227  17.0612335  83.8019104
  10.6242199  44.9740219  81.8503952  10.0767365  44.2012405  81.7114639
  10.2778959  45.3725014  82.6488342  18.6591606  54.6396866  72.2716064
  18.4700413  55.5218315  71.9517822  18.5960426  54.7115593  73.2240143
  10.3750677  65.5133896  82.0705109  11.2936583  65.3281708  81.8752747
  10.2669315  66.4401398  81.8568115  65.1537170  19.2312298  38.3420830
  64.3976212  19.5989456  38.7996140  65.5082245  19.9637451  37.8381233
  79.3132782   3.6413405  20.8791142  79.4329910   4.5340319  21.2031555
  78.4363403   3.3952601  21.1734982  49.4360619  69.2751465  37.7742386
  49.7453957  68.5009842  37.3039017  49.6256104  70.0051270  37.1848068
  41.2500305  34.2320366   1.1590605  41.1605225  34.6047020   0.2819409
  40.8794060  34.8960609   1.7403893  22.0524445   6.0846176  42.8094749
  21.6473999   6.6425662  43.4734497  21.6498260   5.2260799  42.9400215
  66.4952774  27.5659428  86.7559204  66.5246201  28.2445583  86.0814972
  66.2253799  28.0283356  87.5493851  79.9648895  44.6497231  32.0370598
  80.8006592  44.6984634  31.5730000  79.8085709  45.5430107  32.3433876
  80.1752396  44.3205681  82.2784271  79.6880341  43.9222984  81.5571518
  81.0732498  44.3859901  81.9535751  57.3062592  68.3629684  44.3868256
  57.8095779  68.5185165  45.1860161  57.3739853  69.1829834  43.8977127
  66.5384979  67.5746460  61.1894646  66.4676056  68.3578415  61.7351913
  67.4496231  67.2974396  61.2855415  73.2952271  57.7494736  17.5172157
  73.1170425  57.2690125  16.7087364  73.9471970  58.4044456  17.2678566
  12.2074375   7.3468513  43.5526314  11.7182875   6.7241163  43.0148926
  11.6349945   7.5191078  44.3002052  76.1292725  27.4046650  60.0025253
  75.2801666  26.9644680  60.0410271  76.2109756  27.6882248  59.0919495
  79.3263931  24.9916420  82.1191406  78.5421677  24.6572895  81.6839142
  79.3424072  24.5408249  82.9633789  40.4478874  20.2724895  10.7476788
  40.5231094  19.6795025  10.0000553  41.1601906  20.9005775  10.6278229
  18.8366737  49.3346443  73.5105896  18.1030884  48.7334061  73.6394119
  18.4515495  50.0910606  73.0681610   5.7480989  47.2768135   5.5681653
   6.3279386  46.6894531   6.0529566   5.0178523  47.4391365   6.1653447
  23.4487514   6.9241061  37.5972939  22.6992245   6.3969655  37.8739967
  24.1689587   6.2976298  37.5261459   1.8723558  57.5837288   2.6931977
   2.1056006  58.2760124   3.3117185   1.9536263  57.9943008   1.8323516
  27.2342033   0.8381881  52.0258904  27.5263195   1.6676348  51.6478462
  27.9895077   0.2565257  51.9397621  64.3413773   6.7516918  37.2107391
  64.3408203   6.0199738  37.8278427  64.1627960   6.3485999  36.3611145
  79.6437454  41.8531303  33.0367165  79.7859421  42.7346458  32.6918335
  79.7194443  41.2818298  32.2724419  65.0931320  61.7512550  66.7362366
  64.6913910  62.2273407  66.0094757  64.3584747  61.5128937  67.3016510
  82.4574051  30.7901382  65.8933182  82.7930298  30.6523800  65.0075378
  83.2297668  30.7248688  66.4549484  72.6284790  11.7297087   6.8392196
  72.0299911  12.1445036   7.4605012  72.2851105  11.9703865   5.9787517
   7.2279272  28.9184837  35.1112976   7.8605876  28.5878048  34.4736252
   6.4109101  28.4702454  34.8926697  73.0645676   0.6704718   1.2453369
  72.2699051   1.1656501   1.4441919  72.9160461  -0.1891132   1.6394007
  65.0423660  48.6420059  50.6740379  65.7376709  49.2822456  50.8253059
  64.2814560  49.1682777  50.4285164  65.1751404  33.7820854   3.5772145
  65.6053009  33.0761833   4.0598073  65.6169968  34.5781288   3.8726950
  55.1046600  50.0114098  80.5805359  54.1505165  50.0283318  80.5060196
  55.2767220  49.4314499  81.3223419  75.6284180  64.5765915  40.4298286
  76.0646744  64.1375961  39.6996307  76.3356018  64.7877274  41.0393715
  21.5176582  10.0847492  27.3741188  21.8475304  10.9256735  27.6907616
  22.0259171   9.9110775  26.5818176  51.3817787  33.4704933  17.8300800
  51.1461678  33.9474030  18.6258678  50.8494797  32.6755447  17.8607941
  31.1560402  33.1129227  24.4043579  31.1340084  33.9971924  24.0385551
  30.2670765  32.9649696  24.7269802  64.8612061  70.3495560  73.0245285
  64.6737289  71.2633057  73.2393417  65.4015732  70.3949585  72.2357483
  81.4480133  55.3682594  28.5179882  82.3915787  55.3752632  28.6788292
  81.0766068  55.8607063  29.2499638  21.4729176  67.0229263  33.2588425
  22.3954201  67.0772171  33.5083885  21.0333424  66.6842957  34.0388031
  -0.0819161  44.0377426  13.3621969   0.5110123  44.0304642  14.1136055
  -0.1453859  43.1198387  13.0982790  21.1559315  36.7515450   6.9622812
  21.3636837  36.6618271   6.0322161  21.7885475  36.1855888   7.4046855
  10.8450689  28.2334099  12.7344046  10.1298304  27.6356506  12.5168056
  10.4085684  29.0450726  12.9930592  76.3291092  20.4571724  48.1777039
  76.0424118  21.2019482  48.7062340  75.6086121  20.3061619  47.5658989
  11.4300852  15.0827408  13.8316107  11.8451710  14.2790260  14.1446257
  11.4181089  15.6593370  14.5955639  38.4832802  66.7624741  88.1576157
  39.1180801  66.1853867  88.5821533  37.8037987  66.1724014  87.8315048
  68.0730438  70.8824692  53.7236061  67.4804230  71.6334686  53.6915092
  68.2998505  70.7170563  52.8084946   5.4681077  32.9604492  53.3610229
   5.4448409  33.0093689  54.3166885   4.9368401  33.7016869  53.0702477
  58.7280884  70.7744980  75.5182114  59.0795403  70.3550797  74.7328491
  59.1986771  71.6059799  75.5766678  55.4012871  67.7130356  11.7300348
  55.4913063  66.8458328  11.3349609  54.5617447  68.0382996  11.4050703
  67.8796082  31.7033653  48.5250435  67.7786255  32.1396866  49.3710098
  67.7544708  30.7742653  48.7182999  25.6823254  31.2301502  71.6472092
  26.3417702  30.7621975  72.1594467  24.8882427  31.1839008  72.1796799
  64.4159775  34.5429802  54.6305008  64.5702515  33.6978951  54.2082863
  63.5236588  34.7783546  54.3763313  56.5793076  10.7458067  58.9622459
  55.8662605  10.1101942  58.9006767  57.3728676  10.2301712  58.8186531
  20.4283390  70.3421860  22.0715733  20.2940769  69.8624420  22.8889141
  19.5462055  70.4770279  21.7253189  84.4155197  32.3252945  41.4829597
  84.9327240  31.7338791  42.0297279  85.0252991  33.0222244  41.2406883
  79.3906250  14.8411436  33.3637123  79.3503342  15.7965078  33.3202477
  79.8491821  14.6578169  34.1836815  19.1775284  41.2370720   0.3252265
  19.0105247  40.3538361   0.6542199  18.4099522  41.4430542  -0.2082801
  27.1170921  58.4921684   4.7419276  26.1757126  58.3782082   4.8724995
  27.5057526  58.2595062   5.5851612  32.9086685  56.9769058  72.5184860
  32.3257103  57.2187614  73.2381363  33.3881149  56.2151871  72.8442841
  37.6410446  47.5273514  68.4571533  37.5321198  47.9869919  69.2896805
  37.4006271  48.1737900  67.7934189  63.3532333  16.4742680  44.0607758
  62.4023819  16.5835991  44.0734978  63.4849319  15.5268288  44.0254517
   5.5681739  66.7980499  55.5094986   6.4584785  66.6695175  55.8367157
   5.6321573  66.6310196  54.5691605  10.7198515  63.8464699   1.2237117
   9.8863916  64.3051376   1.3295290  11.1695786  63.9710312   2.0594518
   5.3263993  16.6531963  14.4095888   4.6773472  17.2088814  14.8410702
   4.9211831  15.7863445  14.3850927   4.4813375  25.1284351  26.3571701
   5.4323206  25.2326927  26.3886948   4.2884502  24.9681969  25.4334011
  14.5057297  66.0259399  60.9533463  14.3852739  65.3504639  60.2859268
  14.6048298  65.5392075  61.7715759  18.6997528  29.3134956  80.1856384
  19.0566235  29.2821407  79.2980042  18.1071281  30.0651512  80.1791000
  35.8166924  42.8184662  82.1076889  35.6680984  41.9159889  81.8254089
  36.6221275  42.7785950  82.6233597  38.0056915  48.9698601  73.4814148
  37.6838303  48.4117355  72.7735062  38.7591858  49.4241791  73.1044922
  20.6095638  31.7694530   6.3403678  20.2070312  32.2241364   7.0802741
  21.2354279  31.1664772   6.7415462  12.3237343  61.1934624  81.0170364
  12.3638182  60.3093109  81.3815994  11.3885431  61.3933029  80.9756622
  34.7193756   6.4884672  40.6293945  35.1864166   7.0907817  40.0503235
  33.8040924   6.7627635  40.5724030  54.5855331  68.1725693  69.5692673
  54.5095329  68.0263672  70.5121765  53.7645531  67.8382187  69.2081146
  10.0256300   9.5284481  38.1124535   9.5657530   9.8799753  38.8747978
  10.3539820  10.3015089  37.6533279  41.4827042  45.0779686  50.7725830
  40.6877365  44.5467186  50.7274475  41.2700272  45.8697433  50.2785225
  27.1720257  14.6212845  23.3826752  26.6739254  14.7582130  22.5768356
  26.6651115  15.0731382  24.0572853  75.8109131  35.1669655   1.0212429
  75.5846634  35.5952797   0.1956578  74.9766312  34.8402061   1.3580428
   7.0656528  70.7723541  42.9603577   7.4997396  70.1521301  42.3745956
   7.7367382  71.4259720  43.1569862  71.9456253  30.6669712  53.1832352
  71.5522003  29.8814125  52.8033028  71.6334991  31.3828278  52.6297379
  53.7448769  64.6743164  72.2937164  53.7282639  65.6122665  72.4839935
  54.3539848  64.5894852  71.5602188   9.4737978  37.7382393   2.0772445
   9.0632439  37.4909630   1.2486725   8.9637003  38.4883385   2.3828323
  66.0581131  21.4933739  37.4816666  65.3885117  22.1737518  37.5520210
  66.7294846  21.7518559  38.1130829  17.0896149  30.6302757  70.8261337
  17.3108158  30.3825321  69.9284058  16.1981945  30.9739418  70.7670288
  67.2639465  44.1247215  19.5839996  67.0421524  44.9680061  19.1891499
  66.5211105  43.9240723  20.1533566   2.5742669  57.0622292  59.0318184
   3.4570570  56.6926727  59.0133095   2.7102208  58.0090942  58.9972687
  51.2447853  50.6756592  23.8890095  50.8768539  50.3056183  24.6914616
  51.8301506  51.3698387  24.1918182  33.0285072   0.3596645  40.3271141
  32.3084984   0.2017476  39.7164764  32.6297302   0.2792286  41.1935654
  56.1710052  32.4965324  55.1807785  56.5689545  32.6217384  56.0422821
  55.2286644  32.5345039  55.3444328  43.1385574  14.3075886  12.1819344
  42.5587311  13.5476322  12.2319536  43.9798431  13.9889069  12.5089016
  35.4797935   3.0108104  27.3232670  35.6886024   3.9417241  27.4009285
  36.0010452   2.7097054  26.5790462  47.1233063  65.1729584  36.4375916
  48.0307808  64.8691940  36.4164581  46.8199997  65.0844345  35.5340424
  27.4770622   3.3379004  39.6308899  28.2090836   3.6543810  40.1602478
  26.8884048   4.0895829  39.5624199  12.3209343  23.6605892   0.2296962
  12.6847610  24.4335670   0.6613990  13.0534906  23.2969704  -0.2676715
  69.4214249  56.3832130  39.3557243  68.5837097  56.6602325  38.9846153
  69.9678192  56.1880379  38.5944138  82.6368561   3.1835911  60.5488815
  82.7565384   3.7652190  59.7981339  81.9577026   2.5693607  60.2701225
  37.2717552  67.2466049  49.6773643  36.9475327  66.9237518  50.5181236
  36.5133667  67.2019043  49.0950584  43.4375000   6.5439906  86.5686646
  43.6313744   6.8805051  85.6937943  44.2278671   6.0674605  86.8225708
  79.0819931  32.0424957  31.2267475  79.8777924  31.5308952  31.3723450
  79.3813248  32.9515343  31.2102032  35.9415092  64.1962662  70.3902893
  36.7552071  64.4805145  69.9739532  35.8564224  63.2748070  70.1455307
  64.3703613  33.9587135  28.8619747  64.4144516  33.8414879  27.9130039
  65.0199509  33.3474350  29.2092571  10.1077423   4.1287546  39.2283821
  10.8414545   3.7733827  38.7267761   9.4733572   4.4003940  38.5650558
  56.7801361  35.9731064  33.5599823  56.6980743  36.7105751  32.9552994
  55.9627419  35.9796524  34.0580368  72.7503052  13.0110664  75.5271683
  73.6336670  13.3728523  75.5979385  72.5928421  12.9461155  74.5852432
  28.0935230  60.4087372  81.0746460  27.3217354  60.4416542  81.6398849
  27.7990761  59.9389648  80.2943649  17.2056828  50.1682549  33.0020981
  16.3345757  49.9335480  32.6822281  17.4141159  50.9863243  32.5509338
   9.2355881  11.9912872   1.7499481   9.7214537  11.1963224   1.5304077
   8.6959343  12.1629705   0.9782424  25.3966293  57.3569145  54.2101746
  24.7162971  57.1715279  54.8574867  26.0676918  57.8343163  54.6980247
  72.3961182   0.7891299  53.9123726  72.1774521   1.4611257  53.2667427
  73.3289490   0.6220714  53.7776413  71.7778091  70.2753754   2.6048608
  71.2457886  70.2533722   1.8094370  72.4302292  69.5869598   2.4757533
  10.4979038  65.1817551   5.9858193  10.8613005  64.3311081   6.2319517
  11.2620697  65.7504120   5.8914475  65.2233505  50.3595619  55.1972466
  64.7594147  50.2179070  54.3720665  66.1495361  50.3517647  54.9556885
  62.8434639  69.4543228  74.5579681  62.8573151  69.0364380  75.4190216
  63.7665939  69.5739899  74.3349380  76.0366592  24.9819756   7.9583960
  76.8928070  25.2960434   8.2492704  75.4195175  25.3470592   8.5924931
  20.6257973  60.9507942  59.2046356  21.1214924  60.8969879  60.0217171
  19.9351864  60.2948761  59.2998276  14.0168619  24.9330540  69.9690704
  14.0890551  23.9823837  70.0541992  14.7706604  25.2745304  70.4501266
  35.8406219  67.0002823  22.0621548  35.9450798  66.3760300  22.7802315
  36.5243111  67.6534119  22.2112160  68.0890350  67.1731262  47.6756287
  67.2353973  67.3043594  48.0883331  67.9306335  66.5106354  47.0031357
  22.4471436  63.1559906  47.6929932  22.9538956  62.6684761  48.3424301
  22.0421581  63.8669739  48.1897011  55.9836426  51.8874702   6.2299333
  56.1418839  51.3582306   7.0116620  55.4692612  51.3195229   5.6562772
  86.0297928  29.0831528  65.3239975  85.5563507  28.4539719  65.8682480
  86.9123306  29.1035557  65.6940613  33.1467743  39.5279999  87.9645233
  33.6483459  40.2434692  88.3553696  33.3618889  39.5658684  87.0325775
  49.7886238  57.9287872  18.4888535  50.6880226  58.1246338  18.2262554
  49.6925583  58.3467560  19.3446007  27.9770279  18.9186764  30.3116341
  27.1281834  18.6299572  29.9764671  28.5770683  18.8040600  29.5747185
  62.7210274  56.6907082  80.7591248  62.9223976  55.8377380  81.1439896
  63.1366844  56.6686935  79.8971634  82.5436249  35.9204178  28.2450314
  81.9440002  35.2009659  28.4426861  83.4160080  35.5428886  28.3575020
  10.5728359   7.8758826  45.5915756  10.8289089   8.3991127  46.3511086
   9.8981972   8.3980427  45.1574745  13.4969416  68.2452393  64.3505020
  13.2804470  67.3243790  64.4967346  13.6743069  68.5914001  65.2251129
  67.9767990   0.5827848   2.0669224  67.1617737   0.4236245   1.5908600
  67.7139816   0.6180657   2.9866571  45.5407906  20.1135540   1.9455473
  46.4939194  20.2017460   1.9445466  45.3692245  19.3617458   1.3784651
  29.9129200  26.6047897  24.8279324  30.4978085  25.8471069  24.8354225
  29.4041481  26.5066700  24.0230999  85.5446472  21.4607182  25.7024326
  84.6956558  21.4657574  26.1444893  86.1442032  21.8632679  26.3306980
  54.5924225  52.1696625  36.0620613  54.1962585  52.8161888  35.4778595
  53.9049835  51.5178909  36.1993637  49.3427467  31.7184086  33.8266830
  49.6960297  31.9981403  32.9821854  48.4804115  32.1311493  33.8741341
  66.8748474  18.5075111  27.0219307  66.3366165  18.0941563  27.6969700
  66.6169662  19.4291210  27.0410290  52.0564194  43.9904442  59.1726837
  52.3952293  43.7973976  58.2985115  52.1390877  43.1645126  59.6493759
  19.5203915  27.2426510   0.0587774  18.7366676  26.9271049   0.5087104
  19.6951694  28.0972157   0.4529923  18.9030800  50.0077362  50.8934212
  17.9816303  50.2615128  50.9459419  18.9392586  49.1486549  51.3140182
  48.4497871   0.2445536  76.8997345  48.8075180   0.7964981  76.2043076
  48.2174873   0.8580307  77.5968094  42.8867226   9.1965542   1.0266430
  43.0063553   9.7524786   1.7966214  43.3810959   8.4015388   1.2260814
  83.1074829   1.7126240  68.9338531  82.8703537   0.8126348  68.7101974
  82.3856964   2.2418680  68.5945053  21.3026752   9.1325579  81.5043564
  22.1995354   9.0245295  81.1878128  21.1245804  10.0677662  81.4048615
   2.1200578  18.0455799  30.9456253   3.0021374  17.9209423  31.2958164
   1.5627590  17.4998913  31.5004902  54.2677689   0.3295014  57.7101707
  54.1423988   0.0943241  58.6295204  54.9319534   1.0185453  57.7276344
   1.6262624  12.3572006  72.9303970   2.1695817  12.9400616  72.4000092
   0.9808308  12.0068531  72.3164673  75.4482727  51.0980721  34.2882500
  76.3254929  51.4076042  34.0626450  74.8604736  51.7660866  33.9354286
  27.8431454  32.6946411  25.5054340  27.0550175  33.1149368  25.1612854
  28.1822262  33.3140945  26.1515999   3.2410491  15.3468752  65.5743942
   4.0520024  15.3670835  66.0825043   2.5831041  15.0170412  66.1864014
  45.5695076  15.7473307  29.8047619  45.0415688  16.3445740  29.2748432
  44.9764786  15.0260725  30.0153198   1.2558471  36.7987518  58.6871338
   0.5271561  36.5660439  59.2625351   1.8410796  36.0421906  58.7238617
  37.6116714   3.7890103  86.0580750  38.3318481   4.0274987  85.4743729
  37.4813957   4.5627961  86.6062622  61.4319305   7.4607782  10.3842182
  61.9884262   6.6856160  10.3089333  60.5946159   7.1244040  10.7035713
  37.1566620  48.2336578  49.3138123  36.9060440  47.6590004  48.5904922
  36.9250679  49.1123314  49.0129356  58.4482956  16.0469036  48.0566978
  58.1724663  15.2740755  48.5495338  59.1642189  15.7350330  47.5031471
  45.6337090  39.5238457  10.3338270  44.7590675  39.8857956  10.4760399
  45.4762764  38.6574554   9.9585714  49.0067749   4.2003841  23.3193436
  49.0966797   4.9113188  22.6847401  49.8937454   4.0624495  23.6517429
  77.8455734   8.2337770  15.8572941  77.8245544   7.7854314  16.7027378
  78.7461853   8.5473518  15.7748022  31.1106529  26.8609180  21.0592937
  30.3793755  26.4957848  21.5574322  31.6912155  26.1156693  20.9050732
  84.4079361  63.8197632  82.8776398  84.3718719  63.8288841  81.9211578
  85.1514740  63.2533417  83.0839005  57.7708626  64.6591873  86.8181000
  58.2576370  63.9099808  86.4746246  58.3994675  65.1181870  87.3752365
  65.8697968  58.7929688  17.5260887  66.1794586  58.2719154  16.7852516
  66.2200165  59.6692276  17.3656387  64.3762436  59.8345413  85.5568390
  65.1733856  59.3998184  85.8598557  64.5524673  60.7678490  85.6756363
  54.5739174  46.0932426  31.9781342  55.2918053  46.6569977  32.2663231
  53.8525429  46.6965065  31.7994728  38.1779251  49.5920868  79.0385208
  38.2532959  48.6504898  79.1932526  37.5598068  49.8953629  79.7034912
  48.6416397  41.9918022   5.3156257  49.3067780  41.5575867   5.8497381
  48.4094887  41.3447990   4.6494989  68.8069534  30.8833179  53.8231163
  67.8740463  30.6952496  53.9257584  68.9942017  30.6740742  52.9080238
  48.9817047  13.8789215  15.6571522  49.6663589  14.0703554  16.2981148
  48.3139725  14.5467501  15.8132601  83.3117142  47.2975082  13.2561722
  83.4239197  46.9100533  12.3881159  83.4944992  48.2283669  13.1284227
  56.2293968  54.6224480  31.7689819  55.4086761  55.1087418  31.8475208
  56.7190170  55.0869637  31.0902081  14.5069761  18.8946724   9.0130310
  15.4352903  18.9144688   8.7804966  14.4957085  19.0070839   9.9635410
   8.2760792  51.8842049  12.0233822   7.7644453  52.4160995  11.4138308
   8.9960213  51.5399437  11.4948015  72.2994843  18.5705528  51.9714088
  71.7122192  19.0108967  52.5857811  72.1837616  17.6384220  52.1557198
  84.2797165  22.4940681  23.4044991  84.7431793  22.5417538  22.5683403
  84.7757339  21.8558521  23.9172134  27.5261250   9.9426336  71.7700500
  27.8653870   9.3928576  72.4763641  26.6461983  10.1860867  72.0576172
  32.5863800   5.2643743   2.8200030  32.6884384   6.2110462   2.7218781
  33.1806145   4.8906846   2.1692519  24.5730133   0.8453388  25.2261467
  24.6780281   0.2092602  24.5186100  25.1874676   1.5469323  25.0106354
  48.2512627   5.9508395  32.8932686  48.6723404   5.5188799  33.6364632
  47.3155861   5.9093304  33.0908051  10.2109184   1.5774337  82.0717087
  11.1363659   1.6446733  81.8366394  10.0941534   2.2203341  82.7711945
   5.5876207  45.5591469  59.5893517   5.0017843  46.3087692  59.6946793
   6.4180636  45.8492851  59.9667320  76.9355011  28.8318233  20.9390659
  77.0561829  28.7678509  21.8864708  76.4041977  29.6187553  20.8178883
  19.6312199  68.2278976  36.8882751  18.9319267  68.8669357  36.7509918
  19.5540428  67.6257095  36.1482430  83.4661636  18.4960060  83.4971237
  82.8896255  17.7911797  83.2020798  82.9231262  19.2831306  83.4549408
  26.2893887  65.4885178  76.7217636  26.1329746  65.7360153  77.6330872
  25.4350491  65.1980515  76.4024429  14.8496180  34.4270592  69.1983032
  15.2552490  33.5979042  69.4516754  13.9760065  34.3953247  69.5882111
  12.6219997  55.1477470  24.9975300  12.5774279  54.5379448  24.2610588
  12.3317938  55.9842262  24.6337795  48.8899422  54.3599892  56.8958893
  49.7687378  54.2665825  56.5281639  49.0322189  54.7399597  57.7628441
  26.6032829  59.7275696  55.7131882  26.8266277  59.1121788  56.4115067
  26.1342278  60.4339142  56.1573715  51.3246918  61.5881386  79.7503433
  51.7304192  61.2102814  80.5306244  50.3854713  61.5645866  79.9334869
   3.6595294  35.2543221  21.9889011   4.4557185  34.8748741  21.6169682
   3.8518896  35.3475990  22.9219227  79.8643112  35.6019859  73.1318054
  80.6147919  35.8694267  72.6012573  79.3227615  35.0836487  72.5365982
  82.6720047  51.2339439  68.2963181  81.7911377  50.8973541  68.1319733
  82.5834808  51.7580605  69.0923691  32.5690231  44.5993233  23.1737366
  32.8963318  43.7419624  22.9016361  31.7189865  44.4153404  23.5735073
  80.1579971  50.3894348  57.5845718  79.2397919  50.6576691  57.6189613
  80.3278275  50.2352180  56.6552658  60.2576065  44.9690857   8.5334854
  61.0537453  44.4403114   8.4806061  59.6481018  44.4341125   9.0419550
  63.1338196  49.0889244  23.8250465  63.3188820  49.7740555  24.4673672
  62.4322319  48.5722580  24.2213593  57.6023674  20.3066120  65.6588058
  56.8354721  20.8627548  65.7959595  57.5504036  19.6511631  66.3544464
   3.8739452  47.8901978  58.0914421   3.3916950  47.1810608  58.5166321
   4.5419178  48.1416664  58.7292557  72.8908386  16.8047791  76.2942810
  73.8030472  16.5179005  76.3366547  72.6889954  16.8239574  75.3588028
  25.9567242  42.4970093  34.4619484  26.5403728  43.1613159  34.0955086
  25.7969666  41.8924751  33.7372055  79.6136093  26.9735394  57.5889282
  79.3120728  27.4189377  58.3807144  79.0507660  26.2024879  57.5187683
   5.8274269   0.8680710  16.5044479   6.3428602   1.6724433  16.5639915
   6.1054368   0.4658215  15.6815643  16.1481743  13.9826794  14.6475725
  16.0508041  14.3178692  13.7562828  15.5552654  13.2322731  14.6873617
   0.9867456  48.6338310  82.2974167   1.6147493  49.0747833  82.8696060
   0.2920851  48.3390770  82.8863068  38.5986671  44.0136833  50.1672592
  38.4143219  43.3811188  49.4729156  37.7373772  44.3370972  50.4314728
  60.5024071  28.9122086  12.9286585  59.8629913  29.6046734  13.0956135
  60.0438004  28.1030865  13.1550064  26.5930557  42.3208199  84.6208115
  27.2264996  42.9222488  84.2293243  25.7518196  42.7691803  84.5340729
  69.1765900   0.1301798  71.4238052  68.3339081   0.5436231  71.6113815
  69.7425537   0.4012926  72.1465836   9.2467012  48.4043617  44.5825081
   9.3676186  48.5864182  45.5144234   8.2990208  48.4396858  44.4525604
  43.6702232  68.7362518  47.0641060  43.8380280  68.1334915  46.3397064
  44.0628586  68.3102112  47.8260460  62.5194130  54.3973503  47.4188423
  62.1787300  53.7561722  46.7950974  63.3563118  54.6735992  47.0453224
  85.0188065  58.4114609  44.9918213  85.1674805  59.3543243  45.0635033
  85.6031189  58.1296844  44.2879639  73.4637146  25.1479340  43.0088501
  74.3251724  24.8039951  43.2451248  72.9481659  24.3720398  42.7887650
  56.1482620  33.7231598  83.5121613  56.7355423  34.2066345  82.9311371
  55.7524033  33.0559769  82.9514465  13.0208025  26.3116550  57.0344276
  12.4122000  25.9343014  56.3992577  13.1582499  27.2088966  56.7306213
  22.6696377  55.7552490  16.0179157  23.2861252  56.4866028  15.9819155
  23.2218323  54.9743729  15.9785748  76.1121063  12.2163696   1.8737415
  75.6836014  12.0978975   2.7214313  76.7095184  12.9520826   2.0081027
  17.1335049  24.1614819  58.8670959  17.5803299  24.6223068  58.1570091
  16.2343082  24.0566978  58.5561333   7.0002575  49.3767014  19.4223385
   7.4394803  48.9760475  18.6721439   6.5194812  48.6568604  19.8308964
  41.5793571  14.5742683  79.9129410  41.9859238  13.9319744  80.4946594
  40.6860275  14.2535610  79.7890854  74.8403320  66.1651306  18.4876137
  75.4274979  65.8151169  17.8175735  74.1904221  66.6685486  17.9972763
  64.4550018  37.2282143  19.2040653  64.8273773  36.3475609  19.1590900
  64.0145950  37.2589493  20.0533752  35.1516228  21.0631371  19.3228397
  34.4641724  20.4908752  18.9820175  35.7353668  21.2062092  18.5778542
  26.1881332   1.8547331  77.9913712  26.9433727   2.4427550  78.0001068
  26.4736958   1.1058595  77.4680405   0.5809163  34.1425247   9.8893480
   0.3392562  33.8442230  10.7661877   0.9403185  33.3648643   9.4623766
  68.7164993  45.4199409  14.8901100  69.2891464  45.7476768  15.5835810
  68.4450531  44.5535011  15.1931419  56.9766617   8.3920345  69.1151123
  57.5763931   8.1196146  69.8096237  56.1903572   7.8650227  69.2572937
  31.0809898  63.9206772  71.2120590  31.3956509  63.0976906  70.8380051
  31.6304932  64.5926743  70.8087006   1.8601614  27.6165962  64.3428802
   2.6530776  27.5228043  64.8708191   1.2214994  27.0426426  64.7658691
  10.9924555  42.1123772   2.3087177  10.9671879  41.5990181   1.5012175
  10.2784863  42.7428818   2.2141383  52.0505753  61.6934471  85.6168747
  52.8270683  62.2377052  85.4862061  52.3452415  60.9909744  86.1964798
  71.8187332   5.2334700  26.8701115  71.7631226   4.9207234  27.7730675
  72.3684616   6.0154214  26.9208984  31.5631237   6.6349969  80.1960754
  31.4927502   7.5836382  80.0895004  32.4976006   6.4778385  80.3313065
   4.8549247  68.7880478  15.5734873   5.8117332  68.7702332  15.5527124
   4.6163235  69.5141449  14.9972153  53.6589622  56.5146751   4.0545263
  53.9722176  55.7769012   4.5777788  54.4512138  57.0029221   3.8305054
  33.2218819  58.2712402  79.6441040  33.8968887  57.5951385  79.7031250
  33.6533318  59.0025101  79.2021484   7.8686500   1.2540907  64.1730652
   7.8649635   0.5823628  63.4911575   8.7851830   1.5217271  64.2406769
  60.0565796  20.4701710  64.2495041  59.5837708  20.6963634  63.4485588
  59.3697853  20.2520809  64.8795776  53.2346420   1.2042875  33.2187805
  53.5400658   0.6622694  32.4913445  52.9781380   0.5763324  33.8941383
  51.4156876  57.6353340  38.8638649  51.4174805  57.4829025  37.9188805
  51.2858887  58.5794029  38.9539413  18.3712292  62.0323982   6.9559612
  17.9283409  62.8200569   6.6402473  18.1518917  61.9910965   7.8867764
   0.0836709  31.1603966  24.2708588   0.5164241  31.0817318  23.4207001
  -0.5910200  31.8257599  24.1355247  69.0276566  18.7757473  38.3491020
  69.0594635  19.5677509  37.8124924  69.6090851  18.9623508  39.0862236
   8.9392099  31.4616795  45.0978050   9.8561172  31.1910839  45.1456718
   8.6042910  31.3309784  45.9849243  29.3291950  11.8434210  86.2124557
  30.2713165  11.8125038  86.0460739  29.2209301  12.5532379  86.8454437
  16.7209797   4.2303267  70.0915985  16.6384487   4.8945131  69.4072876
  15.9849825   4.3996267  70.6797104   2.6294093  56.7182198   7.7258663
   2.4521177  57.6476059   7.5807967   2.8342755  56.3748665   6.8561702
   2.1325054  54.6606293  26.0607243   3.0498116  54.7585373  25.8053894
   1.8272476  55.5562439  26.2053699  51.7621307   8.6022778  28.6214180
  50.9477730   8.4518127  28.1413975  52.3326759   7.8804975  28.3573341
  40.3329544  10.8203878  60.4794846  40.9350739  11.5548563  60.3601570
  40.8365860  10.0518084  60.2113914  24.3478928  49.8171120   3.2576840
  24.3507385  50.3180161   4.0733557  23.6019859  50.1624298   2.7671602
   2.7010982  27.7931614  28.1767311   3.4282150  28.3837547  27.9799271
   2.5500326  27.3185730  27.3593102  51.1937599  44.2932739  47.7857056
  51.2539139  44.6561394  46.9019966  50.9124565  45.0298500  48.3284378
  32.5325012  60.6897430  43.1143379  33.2353249  60.0826416  42.8826103
  32.5073700  60.6730995  44.0710640  12.7329683  49.3774757  21.7969570
  13.4152231  48.8596344  21.3696384  11.9214277  49.1036797  21.3695583
  64.0001297  18.5945568   9.7988405  64.6550064  19.2897091   9.7345591
  63.3780937  18.9113159  10.4537964  67.5401917  16.3293457  31.9593430
  67.9970856  15.8171349  32.6265144  67.4781876  17.2083950  32.3330536
  13.0645466  46.8122749  73.7033234  13.5449142  47.3435669  73.0683365
  12.3870516  47.3977203  74.0416794   6.9252086   8.6608162  64.5580368
   6.2337527   8.0003519  64.6017151   7.6231589   8.2438269  64.0528488
  36.2253952  57.3657379   1.1224902  35.3412170  57.1461220   0.8288491
  36.6714859  56.5216446   1.1913308   3.8634307  35.5142822  58.2986984
   4.8206029  35.5215759  58.2982063   3.6274977  35.0997963  59.1286201
  13.6342859  59.4907837  67.0363235  13.0867472  59.7057381  67.7914505
  14.2392635  58.8239365  67.3612061  46.4000778  22.9960136  81.0089417
  46.6370659  23.5189037  80.2430038  46.8659859  23.4103012  81.7352448
  42.8669167  38.9814339   2.2816527  43.0504875  39.6383133   2.9532516
  43.6441154  38.9864655   1.7229333  20.2595711  46.3589745  12.6335468
  20.8114223  45.6155396  12.8764286  19.5887794  45.9831696  12.0634232
  12.9543791  13.8616447  49.3384590  12.7616758  13.2138281  48.6606445
  12.7041759  14.6988516  48.9476738  44.9542465  41.6915817  16.5578785
  45.1410599  41.1597290  15.7842722  45.5357742  42.4473572  16.4750652
  51.6946716  41.9012680  20.2277431  52.3073463  42.6310883  20.3184052
  52.1586533  41.1513748  20.6000557  34.0331573  22.3378124  85.9667816
  33.4145508  22.8893051  85.4878082  34.8151054  22.8816643  86.0617218
  21.0714054  53.2973022  12.0130224  20.9363079  52.7691193  12.7997904
  21.9318752  53.6975365  12.1380711  78.0753708  10.3965130  19.7227192
  78.1649170  10.4870338  18.7740269  78.9748383  10.3271046  20.0426598
  75.9902649  23.6601200  61.2842941  75.8238678  23.9303207  60.3812256
  75.3798065  24.1806793  61.8064003  63.9225769  28.8984318  19.0321789
  64.6282272  29.1037407  19.6454811  63.2147293  29.4962120  19.2726803
  30.9056778   2.0478702  55.1249275  30.9730854   2.6832125  55.8376884
  30.0715408   1.6039569  55.2778587  74.9750671  34.6398087   6.5267081
  75.8355484  34.2784462   6.3140602  74.3766098  33.8972359   6.4450684
  55.8355255  19.1162415  27.4477520  56.3103943  19.1022148  28.2787361
  55.8945808  20.0251598  27.1534538  73.6199493  52.7072678  29.9795685
  74.1575317  53.2026520  29.3616428  73.6752853  51.8021469  29.6730995
  36.8362694  18.3803062  84.2347946  37.4259186  18.7320862  83.5678635
  35.9892120  18.7820282  84.0415421  85.2030334  70.4040527  25.5425854
  86.1156998  70.1376266  25.4317627  85.1659622  71.2887573  25.1790428
  49.7667580  62.6670876  38.6932259  48.8964882  62.7970161  39.0700264
  50.3523483  62.6314507  39.4495621  57.1219711  30.0768604  53.9704590
  56.8500290  30.9545727  54.2386055  57.1161194  29.5664616  54.7802086
  66.5163116  49.6648598  73.2998428  66.7655869  50.0219421  74.1522446
  65.9155121  50.3143272  72.9345169  65.2855301  70.3976898  87.4182739
  65.5296402  69.7399292  86.7671356  64.3310471  70.4454803  87.3642578
  12.6696510   6.4266610   2.3277872  13.5275850   6.6856117   1.9914476
  12.5614862   6.9397745   3.1285658  61.8596382  37.9384651  39.0782814
  61.8538437  38.3807602  38.2294159  62.7046700  38.1704102  39.4634476
   2.4425874  53.1964989  15.2438898   3.1448412  53.0609055  14.6077404
   2.7106104  53.9734497  15.7345476  52.3397636   9.9582167   0.4488294
  52.5979691  10.6456242   1.0628585  51.4680595  10.2182417   0.1509213
  36.5384064  70.5541153  85.9882889  36.4123268  70.5957794  85.0403442
  37.3944702  70.9568100  86.1339798  70.9809418  27.2692833  57.6419640
  70.9403076  27.7318993  56.8049622  70.7494736  27.9315586  58.2931519
  27.3363476  61.0464935  40.3018570  26.8457756  60.3238525  39.9102478
  26.8318691  61.8282013  40.0767632  80.0133286  67.5685577  58.7348557
  80.0738220  67.5802536  59.6900711  79.2998734  66.9585571  58.5474930
  49.1696625   5.1207614  30.2843666  50.0904770   5.3782854  30.3292351
  48.7747803   5.5061970  31.0665035  10.1590395  37.1685257  34.5567245
   9.4605579  37.2904205  35.1997604  10.4885559  36.2858124  34.7254524
  85.7445450  40.0423317  74.2732544  84.8434677  39.8290596  74.5157623
  86.2807541  39.4457817  74.7956009  75.8299255   8.4319382  48.1805191
  75.0450058   8.8431826  47.8185654  75.5467377   8.0747585  49.0222168
  11.9195805  29.9136505  19.7314529  12.4393692  30.2192726  20.4748535
  12.3162231  30.3386478  18.9710026   4.9292736  14.4400454  23.8935204
   4.3669777  15.1845388  23.6795502   5.2701640  14.1467190  23.0485439
   7.4788098  70.7929611   2.9767132   7.6089506  70.6533585   3.9146934
   6.6297531  70.3921661   2.7904453  60.3836288  51.8279686  24.1145935
  59.7168922  51.9303818  24.7937145  59.9460144  52.0967751  23.3068390
  39.3827629  13.3918896  86.0029831  38.8090248  13.9345503  86.5438919
  40.1019325  13.1486664  86.5859680  10.8881731   9.3933802  23.4530010
  11.0859137  10.1778851  22.9414501  11.7438908   9.0072842  23.6398373
  43.1105995  16.5787239   6.1316223  42.4739799  16.2323761   5.5063300
  43.8547668  16.8463879   5.5923610  64.6330719  16.1221828  64.2202148
  63.9072723  16.6629696  64.5316544  64.2148743  15.3266506  63.8908615
  68.4945908  64.7902985  23.4928780  69.0151825  64.0890274  23.8845806
  67.5880432  64.4992752  23.5914097   3.1451831  30.3610840  29.7848167
   2.2960052  30.3362179  29.3437843   3.6477473  29.6560040  29.3767433
  69.2050095  45.7014389  67.9291458  68.4489594  46.1826134  68.2654343
  69.2687759  45.9664612  67.0115738  65.9249878   3.4579527  11.2792072
  66.6863861   2.8778799  11.2747545  66.1875153   4.2019300  10.7371655
  76.7946701  23.2744560  37.9083900  76.8119965  23.7315216  37.0675430
  77.5721283  22.7162743  37.8936462  73.1548920  23.2223339  15.9665756
  72.3453140  22.8940983  16.3578186  73.8505783  22.7497997  16.4237080
  43.9971313  64.1015854  52.1054192  43.1629066  63.8789597  51.6922188
  43.8600731  63.9194756  53.0350876  46.4447441  57.6611176  23.3279190
  47.2278938  57.9857559  23.7723484  46.7791214  57.2074738  22.5542068
   6.2041111  40.1868973  80.1990128   5.4827237  39.5691910  80.3184738
   6.0742931  40.5393791  79.3185883  11.1710348  52.3501472  21.4919109
  11.9971056  52.8277588  21.4162273  11.3948946  51.4472160  21.2664490
  44.3442917  41.3130875  74.2429733  44.8380013  41.0403671  73.4695969
  44.9708519  41.8180046  74.7613449  49.9254036  47.7078781  81.8284378
  50.6976471  47.4330292  81.3341370  49.1846809  47.4280510  81.2906113
   3.5142052  18.3423786  58.0246658   2.6070938  18.5946007  58.1971893
   3.7814891  18.8963566  57.2912521  71.7147293  70.5152435  74.3363113
  71.1540375  69.7526474  74.1938095  72.5987244  70.1538467  74.4009171
  62.0337791  25.3920269  88.7818909  62.0316467  25.7331123  89.6762543
  61.6477509  26.0933628  88.2571564  60.1408234  18.7201557  41.2886162
  59.3917732  18.2414799  40.9336090  59.9974480  19.6262131  41.0152359
  12.9717054  35.5467339  21.4858055  12.9733191  34.8014488  20.8851528
  12.3138466  35.3224907  22.1439610  80.3609543  60.7846832  47.1048546
  80.8612747  60.2670326  46.4740219  80.7869949  60.6153488  47.9451218
  47.5807877  30.2772007   9.4648857  47.3555870  31.1745472   9.7104168
  48.1039467  29.9524803  10.1977520  75.0412827   2.5576077  11.2414131
  75.0521011   2.3558083  12.1770363  74.8560104   3.4958315  11.2008801
  55.5768356  45.1962433  70.9915237  55.0179634  44.6306763  71.5244751
  56.2553864  44.6121063  70.6530228  64.4827957  33.9826546  26.1510563
  64.9403687  33.7832298  25.3343029  64.2545471  34.9093361  26.0776157
  12.7227688  60.1145439  61.8443108  11.7931728  59.9000168  61.7664528
  12.8472996  60.3062630  62.7738113  54.4787788   2.9293609  31.0579758
  54.2594757   2.8724658  30.1279736  53.6500397   2.7699888  31.5096645
  54.1481285  57.4170151  46.7872963  53.9611626  57.9799881  47.5385208
  53.4258957  56.7889977  46.7729988   1.9806501  45.8544121  59.7233047
   1.0234782  45.8596725  59.7284241   2.2143834  44.9366455  59.5843735
  21.4354630  62.7202301  14.6926718  20.9829140  63.4298096  15.1486664
  21.4189835  61.9894676  15.3106909  19.1400719  64.0521698  56.1639977
  19.5565453  63.6285934  56.9145699  19.0584183  64.9703217  56.4220009
  30.5178280  66.3911819  27.6054478  30.2743912  66.2969742  26.6845284
  30.2142200  67.2667542  27.8450813  72.9397278  31.5455723  61.7179146
  72.4811783  30.8761826  62.2257347  72.8130493  31.2831478  60.8061485
  61.4634018  51.2038231  81.7336807  60.5677299  50.8689575  81.6904831
  61.4499664  51.9940605  81.1937103  15.7847853  56.3362961  53.2380867
  16.3543148  57.0662346  53.4810982  16.1559925  56.0047951  52.4204407
   6.8530531  45.8303413  89.1358795   6.6870613  44.8883057  89.1712494
   5.9821839  46.2257042  89.0970535  70.7589569  24.6452751   6.2747655
  69.9973984  24.6296577   5.6950989  71.3481369  25.2874603   5.8789124
  33.7175713  23.6130791  81.4543915  34.0420074  24.4405174  81.0989761
  34.1225204  22.9414864  80.9055634   3.5423136  68.8069153  74.4458237
   3.5966308  69.4380264  73.7282028   3.6982980  67.9585037  74.0309677
  17.0473022  28.8428326  26.0297318  16.6539154  29.5965710  25.5900097
  17.7883930  29.2076244  26.5134068  32.1270065   0.8039425  14.2204304
  31.2169971   0.9254326  13.9495859  32.6120110   0.7196502  13.3995190
  19.9772739  71.7481995  35.1339836  20.5742207  71.9257736  35.8608627
  19.5073090  70.9571381  35.3977890  78.0397568  46.5639801  68.3056488
  78.7700882  45.9459381  68.3350677  78.3561630  47.2827797  67.7584305
  51.9512329  47.2807922  46.7667503  51.8467865  46.6709290  46.0364151
  52.8659210  47.5586090  46.7178650  48.8406143  63.7269821   3.3599744
  48.5831566  63.7545204   2.4384596  49.6837921  63.2739067   3.3596492
  42.3817978  26.7061863  87.7888870  42.8827515  27.1274567  87.0904541
  41.9635391  25.9567280  87.3650894  65.1762848   8.4071131   9.0418396
  65.8490219   9.0671682   8.8745508  65.0093307   8.4683151   9.9823780
   7.7531605  58.5741768  46.4414215   7.3525858  57.8504410  46.9230614
   7.0211496  59.1512489  46.2237549  50.1737900  47.1449661  31.8078880
  50.4792137  47.5878983  32.5995712  49.2293053  47.3000069  31.7959347
  32.1948280  64.3614655  55.8173409  31.9248905  63.6316605  55.2598953
  32.4536667  65.0487671  55.2034607  44.9682007  23.2144394   5.3348269
  45.7898674  22.9199123   4.9419527  44.9995842  22.8831940   6.2323370
  32.4897575   6.3394876  68.2364273  31.7406635   6.9288564  68.1484604
  32.7331085   6.3976922  69.1603394  79.4933014  50.7335548  74.4872971
  79.5547485  49.9162483  73.9928665  80.2251511  51.2618484  74.1686630
  23.1056118  47.6172485  64.6508102  23.9993744  47.2802048  64.5889816
  23.1993561  48.5645142  64.5501328  75.4884644  37.7220001  63.7130852
  74.6308212  37.9873123  64.0451813  76.0779419  37.8289871  64.4596100
  34.2868919  70.0596771  24.1086445  34.4408035  70.8579483  24.6139317
  35.0590096  69.5187378  24.2743263  20.4063416   0.6216844  74.6510696
  19.9320774  -0.2074995  74.5897522  19.7325249   1.2679715  74.8620605
  71.7330780  49.8615723  21.6068630  72.0513000  50.5964470  22.1311989
  71.7846756  50.1722069  20.7029419  32.2235832  47.2861366  24.9139385
  32.0397491  48.1647148  25.2464142  31.6708126  47.2035980  24.1368523
   7.2784791  69.1984558  45.5506973   7.7753987  68.6709290  44.9253769
   7.0238800  69.9781494  45.0572548  67.2034760  16.5827389  79.6510468
  66.6449661  17.2912941  79.9708023  66.6052704  15.8472624  79.5189362
  29.0647545  61.1228447  22.7772598  28.8893089  61.9608803  22.3492985
  29.3149490  61.3579483  23.6707706  60.7509956   5.5043344  32.4301147
  61.5744896   5.6933899  31.9802799  60.0769615   5.8799200  31.8636837
  16.9010010  35.2469597   2.1184859  16.4482136  35.8760872   1.5568683
  16.2547207  34.5588913   2.2769654  43.4429512  61.9616852  38.9209366
  43.9143219  62.6818275  38.5020866  42.9546547  62.3765488  39.6320572
  62.2518082  37.2138824  46.5026512  62.3541946  36.6264343  45.7538872
  63.0864410  37.1567383  46.9677963  16.7195873  66.2130661  25.7431011
  17.0092640  66.7927856  25.0386562  17.5280666  65.9422302  26.1781235
  82.6175613   5.7517271  84.2635498  83.1513977   5.4268231  83.5385056
  82.6225281   5.0392027  84.9027023  76.8252487  20.7533722  70.8148880
  77.6351700  20.5859184  70.3329926  76.8622894  20.1547604  71.5608978
  19.9110565  16.2345829  72.7947388  20.0132618  17.1826229  72.8784256
  18.9753113  16.0820141  72.9264069  65.1311340  30.7609692  31.3898888
  65.0109863  31.5252361  31.9535313  64.2434540  30.4430904  31.2249470
  23.2842598  37.7278214  18.8909168  24.1105099  38.2086220  18.8421593
  23.5450935  36.8087425  18.9500160  75.0596848  63.6352463  22.7323933
  74.5362167  64.1497574  22.1179829  75.7026749  63.1873703  22.1826649
  67.5191345  29.8277092   2.8016288  67.8399124  30.7119427   2.6242406
  67.8847351  29.6076965   3.6584630  42.5801315  45.8143845  76.0126953
  41.8758240  45.2496834  75.6944199  42.1574593  46.6585808  76.1705246
  76.7096863  17.9902458  85.5577011  76.3601227  18.4248714  84.7797928
  76.4199905  18.5369625  86.2880478  63.0810890  20.6450500  39.5590782
  62.2783241  21.1650982  39.5958138  63.2852478  20.4546757  40.4746704
   2.7815599   1.9579196  31.9216557   3.4915369   2.2058477  31.3294601
   3.1376781   2.1059725  32.7977219  32.7544441   5.4281230  27.6121864
  32.3893242   5.0437407  26.8152084  33.1966934   6.2229061  27.3139153
  68.1335907  46.4766884  76.0006256  67.8547440  45.9008408  76.7125778
  68.7606812  45.9536667  75.5011826  23.2969131  68.7460098  56.1056480
  23.3390446  67.8948746  56.5415726  22.5463886  68.6760559  55.5156898
   8.0009212  11.9575510  80.0454941   7.2277551  12.5210161  80.0763702
   8.2168503  11.8979578  79.1148758  49.6177635  68.6896439   1.3261180
  48.9204369  68.8443832   1.9633175  50.4268341  68.7836533   1.8289104
   6.8532071  50.7532196  83.7581863   7.3013110  51.0136108  84.5629425
   7.3341208  51.1994209  83.0611496   8.6447659  46.1775208  34.1398621
   9.3970308  45.7192841  34.5144920   8.1485233  45.4944611  33.6888580
  56.0281372  35.0442162  86.8666840  56.0204353  35.9359818  86.5189438
  56.5122414  34.5371590  86.2149429  73.1409607  71.0657578  69.5913620
  72.9172897  71.5264969  68.7827072  73.4374466  71.7550964  70.1856155
  72.2042465  53.9607010  69.1024780  71.3182983  53.6123314  69.0026627
  72.7720108  53.2765160  68.7478409  81.9726868  65.0215530   0.1034275
  82.7308121  65.6056824   0.0867692  81.6983337  65.0113068   1.0204087
  20.0723324  29.1783009   2.3697846  20.4861889  28.3650894   2.6589909
  19.8036156  29.6115723   3.1799066  25.6812725  41.4733505   0.1931967
  26.0882092  41.0275841  -0.5497221  25.0806675  40.8254280   0.5615735
  40.0933418   9.7410183  22.9503365  39.5726166  10.1468801  23.6434135
  40.0571709  10.3661051  22.2263279  66.7235718  61.4134941  51.4073486
  66.8837433  61.6295166  50.4887047  67.5619888  61.0773697  51.7240601
  31.9473591  57.3097763  87.2212448  31.1686363  57.2023277  86.6750946
  32.6791954  57.2685089  86.6056595  21.7643356  61.6093750  36.8653297
  22.1640339  62.3585854  36.4235687  21.4680252  61.0418663  36.1537361
   7.3915873  52.7836304  72.9752502   7.3816891  53.7406082  72.9571991
   8.1286192  52.5411110  72.4147186   1.1176833  29.8542805   1.6672876
   0.6814204  29.5204353   0.8834162   0.4041525  30.1651840   2.2244635
  62.4643250  53.3411331  73.9491730  61.9826775  53.8991585  73.3385544
  62.2702904  53.7070847  74.8121109  57.6992302   5.4269557  73.1447678
  56.9738197   5.9667878  73.4587631  57.3512115   4.5352650  73.1436386
   8.4630117  51.8649139  18.6094017   7.5209494  51.8314400  18.4431801
   8.5874348  51.3275528  19.3917007  57.2912064  52.4746933  58.3599854
  56.8508797  51.9558487  57.6868286  57.9647026  52.9614105  57.8848686
  20.1386452   3.4151590  75.2628250  20.1389160   4.3134961  75.5933151
  20.9712162   3.0496628  75.5619354  60.4733391  62.9109306  81.5590057
  59.9514084  63.4598770  82.1442261  61.3003654  62.7839966  82.0239182
  16.6943817  27.3380299  56.9620171  15.9937258  26.9323063  57.4726067
  16.3821335  27.3044033  56.0578041  80.7522812   4.9287195  37.5833130
  80.3721161   5.7992821  37.4657211  80.5736008   4.7109170  38.4981194
  82.2663422  71.2063599  86.7736282  82.8625183  71.7237091  87.3150711
  82.4519958  70.2984390  87.0133057   8.2894382   1.4757532  68.6411819
   9.2438555   1.4979112  68.5716934   8.1168079   0.8992174  69.3855209
  20.1591797  70.8645859  77.8533249  20.7153873  70.0998993  77.7045975
  19.6268711  70.9313889  77.0606003  19.7607422   2.9222984  21.0764351
  18.8453941   2.6480331  21.1325417  20.0026417   2.7641971  20.1639004
  78.3368378  59.9993896  60.7018776  77.3806458  60.0405502  60.6863632
  78.5544586  59.8305359  61.6185913  15.8827534  63.1373634  76.8024826
  15.2516699  62.5008698  77.1383972  15.6904678  63.1942444  75.8665161
  86.3800125  39.7923203  54.7971840  86.7104797  39.6751709  53.9065132
  86.7877350  39.0863075  55.2987251  32.3692894  33.2783623   2.4319413
  33.2482796  33.2608681   2.8104916  31.8155251  32.8628426   3.0929422
  82.0076828  11.7450352  40.0056725  82.4052887  10.9123631  40.2602310
  81.4773788  11.5323658  39.2377014  67.3764801  35.9022903  19.3006783
  67.5549927  36.3837280  18.4928532  67.7544327  35.0356140  19.1514893
  32.0745773  58.6806068   2.4767489  32.2309532  58.0778275   3.2036853
  31.6214733  58.1515961   1.8201834  34.3729553  23.1021214  28.5476112
  34.6568184  23.8975487  28.9981098  33.5686302  22.8454876  28.9986477
  51.3669434  32.8192482  88.4323959  51.8713226  32.7462769  89.2426529
  51.5392838  33.7082481  88.1222305  61.5025139  39.6397133  47.9338684
  61.4838333  38.7794724  47.5144997  62.0664597  40.1689377  47.3698463
  49.2415962  35.3171120  24.8840256  48.3765945  35.6670761  24.6706409
  49.8547821  35.9333801  24.4834652   1.8751694  70.6526337  28.3023205
   1.8032165  69.7679901  28.6607399   2.7791135  70.9110947  28.4820786
  23.0724468  34.3394012  30.1201534  22.5830803  35.0163765  30.5875492
  22.9151268  34.5260429  29.1946011  33.3928680  28.8966236   5.4768572
  34.1516914  28.3136520   5.4530888  32.6712418  28.3387489   5.7671380
  52.6719055  10.0229177  61.4313850  52.7789001  10.8746004  61.8549690
  53.0332451   9.3964643  62.0584602  81.9119263  14.6955910  80.8776093
  81.5718994  15.5780144  80.7294693  81.3925934  14.3581953  81.6074600
   6.8330736  16.8442440  70.4832840   7.0448136  16.9862709  69.5606689
   7.5472732  16.2980194  70.8115997  54.7153435  57.0770683  70.1788177
  54.5792198  57.9099312  69.7271042  54.0183334  56.5094566  69.8498459
  44.2772026  11.6835318  21.7616787  45.1155281  12.1454172  21.7719135
  43.6249962  12.3675737  21.9131584   6.4199166  23.9977131  15.8795071
   6.8352437  23.5755043  15.1275263   7.1128383  24.0498486  16.5378189
  80.4692307  66.0775452  84.9268188  80.5603104  65.6193619  85.7622833
  79.9736328  66.8682098  85.1400528   2.7071662  64.2773438  74.6115036
   3.3235009  63.5476799  74.5485687   1.9297606  63.8994141  75.0226517
  61.5086060  40.4201927  50.9956703  61.1318359  39.8706627  51.6828995
  61.6392136  39.8248405  50.2576103  23.2313576  51.1847153  38.0624847
  24.0719986  50.7553825  37.9036484  22.7938957  50.6248512  38.7038994
  29.1451969  68.2205124  81.4922943  29.1378498  69.0179596  80.9628983
  28.8432446  68.5032806  82.3554840  81.3445053  63.8485489  19.9276676
  81.1176910  64.1105118  20.8199482  82.2470093  63.5361595  19.9918556
  13.9243574   2.0771928  79.7504959  13.4783964   2.0102744  78.9061813
  14.4741287   2.8566051  79.6698761  61.0687714  65.5021439  62.0603027
  61.8196754  65.1733246  62.5545197  60.8104439  64.7693100  61.5013275
  36.5897751  48.1140747  70.8852463  35.8477898  47.5141678  70.9614410
  36.1997414  48.9436493  70.6097336  14.1337833  68.7763367  70.4977951
  14.6763144  68.0796432  70.8672562  13.5887461  69.0684433  71.2284393
  47.2373962  51.6108818  40.2547646  46.7553101  51.9841843  40.9926453
  46.6169548  51.6354218  39.5262871  50.2359962  44.4988060  53.9006195
  50.7311630  44.7361794  54.6846428  50.8963928  44.1701851  53.2906113
  29.2038689   9.6984758  49.1349068  28.7221413  10.2483454  49.7528152
  29.3812504  10.2734661  48.3904915  29.9573154  51.9386520  87.5848083
  29.3158360  52.5911484  87.3037720  29.4353714  51.2552376  88.0052261
  34.8294945  69.9598618  40.7043610  34.0657120  70.5317993  40.6284828
  34.8625221  69.4923859  39.8697319  10.4650908   6.4664931   6.1161337
   9.7776918   6.4661465   5.4500146  10.0987844   5.9564734   6.8385816
  31.9978981  51.5193291  10.8208189  32.7367516  51.7921677  11.3647738
  31.2965832  52.1309242  11.0451851  46.9966927  34.8799744   7.7998781
  47.1891441  35.7996788   7.9824538  47.4130211  34.7113800   6.9546089
  46.0744553  41.8653564  71.4696655  45.2901230  41.8667793  70.9209900
  46.6270676  41.1790237  71.0957718  19.0179939  24.3635273   8.1147842
  18.0841827  24.1948242   8.2403450  19.4552631  23.6784515   8.6204500
  62.9907150  67.3155441  21.5503807  62.6155434  67.1665726  22.4183006
  62.6155701  68.1493912  21.2671928  34.2237740  68.7178955  79.1067886
  34.4211998  67.8535919  79.4676819  33.9639435  68.5458908  78.2017288
  68.0257568  40.9880867  32.4588547  67.8947449  41.4335709  31.6218281
  68.9597778  41.0908585  32.6412621  19.7026558  57.8128319  33.2918015
  19.9259739  58.1465263  32.4228897  20.1559391  56.9717140  33.3491287
  63.0300446  11.5499725  60.0921059  62.1614799  11.7780380  59.7607269
  63.4418945  11.0696201  59.3738632  70.0333557  24.0350456  18.8596668
  70.3112030  23.4881191  18.1248856  69.4149933  24.6564484  18.4753151
   5.8550038  60.1873016  56.1305809   5.4135704  59.6037674  55.5134468
   6.7786880  60.1427536  55.8834877  84.5558014  29.5900116  57.9583664
  84.6059494  29.4795380  58.9078484  83.6557846  29.3511772  57.7366562
  44.2704735  62.6413689   2.7320628  44.2446022  63.0568924   1.8701459
  43.3616180  62.3979225   2.9079707  67.5560532  59.7661781   4.0872169
  67.0876160  60.5118599   4.4623923  67.9564438  60.1116714   3.2893729
  45.9691315  28.1985683   3.5080123  45.4284439  27.4814415   3.1769271
  46.4606819  27.8128605   4.2331595  66.6927719  38.6318436  12.5406113
  65.9893646  39.1044693  12.9856749  66.2402878  38.0267181  11.9529705
  54.4867859  58.5129890  49.8594933  54.0578232  58.9221382  49.1079483
  53.8935661  57.8081856  50.1194420   0.4666554   2.7152381   9.3947067
  -0.4392863   3.0013423   9.5115223   0.8448987   2.7529325  10.2731962
  60.0216064  64.8337631  14.7926712  60.0632248  63.9730911  14.3758488
  60.4225731  64.7033539  15.6520023  75.2622299  29.2933922  44.0936623
  75.8663635  28.7121525  44.5556335  75.5044174  29.2067471  43.1716690
  10.5036201  18.2768059  15.7622967  10.9196339  17.4601383  16.0383720
  10.9162455  18.9504528  16.3028259  77.9460297  41.1226578  35.1497879
  78.4738235  41.3820610  34.3945580  77.6337509  40.2440948  34.9333534
  72.3449249  60.0566368  79.0192032  72.3949661  59.1805725  78.6367874
  72.9141083  60.0153999  79.7876740  66.2052460  46.0963821  50.1030197
  65.4077988  45.5791664  50.2161484  65.9100571  47.0055847  50.1524925
  67.1306152   4.7621374  36.1518364  66.9080887   4.4719472  35.2672424
  66.2996674   4.7422390  36.6265602   0.1123595  68.3913116  83.0693970
  -0.3823187  67.6295471  82.7673416   0.9538370  68.0335617  83.3525314
  83.0839386  63.0750008  46.1348915  83.2097244  63.9287720  45.7207909
  82.2792053  63.1719818  46.6440353   5.9638357  70.3778992  26.7487049
   5.8338375  69.7016678  27.4135647   6.8122873  70.1693954  26.3576984
  27.4429703  68.1602554  60.2587051  26.6771603  68.6125641  59.9048958
  27.2279110  67.2305527  60.1836395  63.7100410  43.8710823   9.9944363
  63.2808495  43.1664886   9.5090714  63.0838661  44.1062050  10.6791639
  73.9543381  22.6974888  10.6582060  73.6972351  22.6967602  11.5802326
  73.2293472  22.2649517  10.2070599  55.3421364   1.3022043  53.5355949
  56.0286064   1.8389051  53.9317551  54.5505066   1.5265502  54.0246964
  74.7088699   5.1476440  19.6053276  74.0523376   4.5166721  19.3102398
  74.3683472   5.9968524  19.3240376   9.6403999  13.8579569  66.8681183
   8.7875986  13.4247561  66.8320694  10.2617807  13.1498337  67.0374680
  28.8463917  15.2902002   2.3933506  29.3984146  14.6670809   1.9208848
  29.4302120  15.6835642   3.0419273  56.6867561  45.1105537  21.6181774
  57.5437431  44.8828926  21.2576504  56.3073845  45.7088661  20.9744911
  81.4408035  33.7194977  22.3125954  81.0525208  33.5096664  23.1619720
  80.9000778  33.2479095  21.6789932   2.8515251  11.7094250  86.1198807
   2.7718709  11.6962519  85.1660919   2.0804253  11.2353764  86.4311981
  28.7344151  56.6113663  29.3135033  28.5226364  57.5326920  29.1633587
  29.6736050  56.5500031  29.1391773   6.7848220  56.0960579  88.3034058
   6.8664761  55.3527489  88.9009476   5.8875933  56.0414581  87.9744186
  21.0783978  53.7342186   6.7762403  20.8111534  53.9365807   7.6728239
  21.7355461  54.3978767   6.5666199  53.7299080  39.8220062  36.2777214
  53.3544464  39.7917595  35.3977547  53.0788918  40.2907524  36.7999153
  72.0627365  18.0241776  73.4510498  71.3307037  18.0515327  74.0671768
  71.7092667  17.5830765  72.6785660  45.9830589   5.9810276   7.9614005
  45.9682617   6.5821171   8.7061853  46.7922478   6.1949654   7.4969931
  70.1057816  61.2320061  43.9677086  70.7600937  61.9302330  43.9435425
  69.9028244  61.0620079  43.0478516  60.4062042  65.5264969  32.8085861
  61.2592697  65.7604370  32.4428215  59.8138351  66.2071533  32.4891586
  43.1054459  21.3880348  22.0505543  42.9366112  21.6498280  21.1454620
  43.9217415  20.8899918  22.0075283  52.7513885   9.4334917  25.5615482
  53.5974922   9.8802271  25.5338058  52.9050102   8.6633291  26.1087971
  38.1633530  68.4155197  14.8419628  37.9895325  69.1415787  14.2429171
  37.8917351  68.7423782  15.6996460  64.7913666  23.3016968   1.2065169
  65.4168777  23.7348671   1.7873127  64.0885620  23.9413147   1.0916568
  84.1844406   5.8959675  18.3673000  84.8416748   6.3136992  17.8107319
  84.2643127   6.3436718  19.2095661  45.1430168  32.5610733  72.1029129
  45.5613632  31.8504028  72.5888824  45.2800102  32.3351822  71.1828918
  13.1981716  45.2128105  15.2499752  13.6772041  44.4352455  15.5365982
  12.3691082  45.1726303  15.7267046   2.7628963  58.7430344  54.1831627
   2.1673372  59.1811104  53.5751877   2.2086911  58.4916611  54.9220123
  23.0093136   2.4219563   8.3001242  23.7229919   1.8090972   8.4770393
  23.4063015   3.1008019   7.7544117  12.4233513  47.2819290  47.0324135
  12.4751215  46.8852844  46.1627998  11.5505152  47.6734581  47.0655060
  21.0687084  66.6149063  80.3273392  21.7332821  67.0218048  79.7714615
  21.1683197  67.0473938  81.1754303   0.0732078  67.7548370  53.6198235
  -0.0123323  68.6760330  53.3742218   0.9993599  67.5554810  53.4829674
  39.6557884  28.5279369  82.8867035  38.8499146  28.9491959  82.5878067
  40.2741394  29.2492599  83.0031738  75.0487823  56.0186806  74.4736786
  75.4896698  56.8569832  74.6118698  74.5340347  56.1472511  73.6769714
  82.8842697  13.5277424  78.5654678  82.6927185  14.1641798  79.2542953
  82.0259018  13.2011852  78.2956543  11.1539612   6.4927163  58.5909309
  11.0683784   7.3575916  58.1898117  10.3838778   6.0112352  58.2886429
  18.6665840  71.8950119   0.8319208  18.3123932  71.0059967   0.8526648
  19.2625809  71.9328995   1.5799744  82.4244843  14.9110632  63.7838440
  83.1537704  14.3671684  63.4862709  82.6001968  15.0598783  64.7129364
  78.5209351  36.1411324  53.9352188  78.9376907  35.5164528  54.5287857
  77.9560471  36.6682091  54.5003090  60.4314461  12.6536436  17.2155380
  60.0577278  12.2386866  16.4381237  60.2905464  12.0181761  17.9173641
  24.2169800  68.1909409  69.3161469  25.0188389  68.2090302  69.8385696
  24.0341473  69.1110916  69.1260757  -0.1943907  50.6354065  85.4579849
   0.4296989  51.2629013  85.0932999   0.0045766  49.8125458  85.0112839
  83.4240799  42.9179993  75.3912201  82.9328308  43.2620621  76.1372299
  83.7604980  43.6960487  74.9465942  59.4457054  53.7583389  67.8331528
  59.2065620  53.2346878  67.0684128  60.0284996  54.4345284  67.4876862
  73.6669922  50.5290794  24.1663685  74.1184006  50.8096695  24.9624443
  74.1153946  50.9942970  23.4601479  43.4349747   2.4728184   0.4020898
  43.5911255   1.7619439   1.0237863  42.4815941   2.5322633   0.3407549
  67.8023605  38.0254021  43.4074554  68.1510468  38.6471291  42.7686234
  67.0498505  38.4744339  43.7925987   0.6135779  51.5725632  55.3906479
   0.9063450  51.3868561  56.2828522   0.3875615  50.7154274  55.0294456
   8.2428236  58.8144951  67.7642670   7.5450869  59.4562263  67.6316986
   8.5632696  58.6235428  66.8827438  16.7399673  24.8196793  15.8622351
  17.3194790  24.0652733  15.9683828  17.3316536  25.5569572  15.7120390
  63.9388771  64.5013733  51.4249191  64.7621384  64.0333176  51.2856636
  63.7578392  64.9227371  50.5847359  13.6157932  43.4531288  44.8384171
  13.5063858  42.6550674  44.3213501  14.5569859  43.5031815  45.0053978
  14.8840284  21.5155239  83.1142883  15.4544563  22.2841034  83.1029510
  14.3265409  21.6196098  82.3431854  27.5302906  10.0816231  12.9363089
  28.4740639  10.2327957  12.8846092  27.1501904  10.7386017  12.3530979
  47.7822838   3.9397299  82.8102493  47.6570053   3.2392962  82.1699905
  47.0979385   3.7926373  83.4631424  25.6310215  46.8359032  64.2436829
  26.5348911  46.8635864  64.5575104  25.7036057  46.5673904  63.3277893
  82.8937073   1.5067167   6.2990680  83.7510529   1.2222924   5.9823842
  83.0656357   1.8585042   7.1725192  39.5039673  70.0382004  26.9474316
  39.4859810  70.9868851  27.0735760  39.3102379  69.9164581  26.0179806
  45.9518166  68.5277481  80.8422852  46.4835968  68.9863281  81.4927826
  45.4250565  67.9134369  81.3535385   7.3595238   7.3284512  29.8844395
   6.9589796   8.1507959  29.6024017   6.6260467   6.8007197  30.2002602
  22.8416996  40.4325562  36.6601868  21.9761791  40.3343163  37.0569954
  22.8650684  41.3405685  36.3582001  59.3207512  68.7747726  68.9435196
  58.7180214  68.0341263  68.8772659  60.0728760  68.4292450  69.4242935
   0.5769572  68.2720490  64.4458771   0.9178276  67.8745728  63.6445923
   1.2890077  68.8304901  64.7578888  51.5213013  11.5350246  20.8581200
  52.3084221  11.6888638  20.3356152  51.6797485  12.0082731  21.6749191
  72.3216629  26.2423553  49.0446854  72.7712479  25.8412647  49.7884789
  72.6861572  25.8004265  48.2778244  80.8955383  64.8938751  67.9007111
  81.6952896  65.1414108  68.3647690  81.1513367  64.1414490  67.3671875
  35.2588425  67.7710876   7.5203876  35.6204720  67.4558487   8.3486862
  35.8371429  68.4896851   7.2646079  76.8554688   7.7929802  31.4940414
  76.6880264   7.8317823  32.4356842  77.3526611   8.5890570  31.3061771
  71.3695526  15.3867521  49.4933510  71.6278381  15.7774439  48.6585579
  70.6691818  15.9535446  49.8165512  10.8140707  15.4533348  47.0267067
  11.6394243  15.8370008  46.7303543  10.2729197  15.4109392  46.2382965
  20.9810619   6.4727850  73.6168671  20.2720394   5.8756132  73.8554153
  20.5418358   7.3010483  73.4237518  50.7918091  28.7769814  31.6634502
  49.9005623  28.7573166  31.3148460  50.7010002  29.1710224  32.5310440
  24.0487232  16.3006210  28.5363159  23.8515282  15.9243364  29.3940773
  24.7378159  16.9421787  28.7088966  15.8679848   6.5049710  27.0586452
  14.9845734   6.1365132  27.0512943  16.3346615   5.9950747  27.7208004
  64.6339340  52.0776024  72.2940750  63.9505501  52.5776138  72.7404022
  65.4205093  52.6159973  72.3816071  67.4152832   0.4927732  66.5080643
  67.3111649   1.1882275  65.8586502  66.9316025   0.8048490  67.2728424
  75.1211319  67.7440720  36.7588692  74.4177704  68.1650085  36.2645721
  75.1817169  68.2512589  37.5683899  75.7220078   6.2689185  14.8011761
  76.4888000   6.5392599  14.2960262  74.9815903   6.4261737  14.2152681
  83.8023987  24.5392036  65.7693939  83.4465637  24.4915447  64.8820648
  83.0338211  24.4959240  66.3382950  84.1457977  33.1011467  85.1116638
  83.7344131  32.4061241  84.5979156  83.5250168  33.2755394  85.8190842
  73.5362473  54.7499695  49.9492416  74.3237534  54.2103195  50.0187912
  73.8314438  55.6338043  50.1681595  34.8786888  44.8279305  73.0543594
  34.1093559  44.2619438  72.9909515  34.8339462  45.1948967  73.9372864
  12.0629406  67.0337143  20.2162342  12.0195799  66.0911026  20.0554733
  11.9053984  67.4303055  19.3594227  39.7781792  69.8757401  76.1767044
  40.6062546  70.0633926  76.6186371  39.5703506  68.9761734  76.4293289
  74.0793839  58.0980377  84.8376923  73.4948502  57.4447594  84.4532623
  74.8532181  57.6007500  85.1024857  47.8477440  51.9944191  82.5505981
  47.3677139  51.9958878  83.3787308  48.1155663  52.9050903  82.4273834
  54.9349098  -0.1360951  51.3567085  54.9164314   0.3407010  50.5269165
  55.3020210   0.4875916  51.9831886  35.8582191  24.8950768  30.0346088
  36.4209938  24.1457138  30.2294693  36.3172951  25.6444416  30.4139938
  73.6775742  32.8335266  57.6124725  72.9363556  33.4340324  57.5336571
  73.6158524  32.2739525  56.8383293  34.0599747  66.9828873  10.1579914
  34.0742073  67.8933334  10.4531641  33.1640320  66.8447113   9.8506975
  60.0782509  63.8968620  58.6500053  60.7693405  63.3622322  59.0408974
  60.5211372  64.3969040  57.9644127  16.5301056  68.5773239  27.7155952
  17.4088345  68.6820526  27.3507690  16.2282810  67.7351227  27.3752575
  35.3366432  62.4484482  46.5154305  34.9587593  62.9835205  45.8174782
  36.2404594  62.2974167  46.2387810  55.0551910  31.7969952  81.6516800
  54.2432556  31.8396358  81.1465302  55.4856300  30.9984455  81.3462677
  43.2562714   1.8872601  31.1191196  43.3316994   0.9978267  31.4647369
  42.6314354   1.8117915  30.3979321  10.6135311  39.6035881  25.9618397
  10.9456310  40.3664742  25.4886131  11.0744534  39.6226730  26.8005390
  82.3663025  45.5286980  19.0191860  83.2992783  45.7414284  19.0423584
  81.9649429  46.1444588  19.6323566  41.8709946  46.2523232  83.3002167
  42.7582130  46.4957581  83.5644455  41.9954376  45.6729660  82.5484848
  12.7002277  70.5961533  63.2591133  12.8756256  69.7296906  63.6261368
  12.8578854  71.2000656  63.9848289  75.6341934   7.3963366  89.3114395
  75.8624649   7.3911457  88.3818741  76.1791611   8.0872908  89.6880417
  20.2885113  26.7207432  82.4113083  19.8447742  27.4464970  82.8501816
  21.1298065  26.6467838  82.8618469  56.8736000  33.5308990  25.3431301
  57.2188339  33.2535095  26.1917171  55.9302902  33.6127243  25.4834785
  44.1702538  10.6323366  87.7648773  44.1194000  10.0976734  88.5571976
  45.1051407  10.6740847  87.5636978   8.7002392  20.6374855  48.8792267
   9.5330429  21.0742149  49.0579338   8.9487143  19.7801266  48.5336494
  10.7083921  70.7506638  16.4682770  10.2349443  71.5815582  16.4271507
  10.9830847  70.5866089  15.5661345  58.7247162   3.9324474   5.6298490
  57.9226799   4.2126446   5.1888700  58.7905388   4.5052013   6.3939514
  64.7061996   9.3019629  52.1175842  64.2406769   8.4701366  52.0304565
  65.5752945   9.1291122  51.7556152   9.7947998  31.4572868  88.3976746
  10.5793142  30.9782906  88.1305923   9.3350792  30.8561573  88.9837875
  10.6966352  26.2324409  77.9677658  11.0750484  25.9071426  77.1509323
  11.4531908  26.4538841  78.5107422  57.0996971   7.9093347   3.4936173
  57.3964043   7.1773391   2.9528961  57.9026985   8.3740225   3.7291687
  12.2540340   4.9146333   0.0475561  13.0972385   4.5467401   0.3119293
  12.0687294   5.5853949   0.7048020   5.0361948  64.7455063  71.4802017
   4.2926493  64.1735611  71.2898178   5.0352044  65.3847885  70.7677765
  24.5729179  37.8623581  28.2326012  24.6496983  37.9690666  29.1807308
  23.6318169  37.9025917  28.0624809  39.4547997  28.0771503   2.3952243
  39.7018127  28.9987392   2.4719718  40.0148735  27.7363472   1.6977986
  62.5789871   3.6239133  64.9213638  63.3919411   3.8944712  65.3481369
  62.3055954   2.8418248  65.4007645  43.5151520  55.2224655   2.1339271
  43.6647224  56.1341782   1.8836455  42.6040916  55.0543900   1.8932002
  66.4701843  36.5258484  86.8410187  66.8728943  36.8684540  86.0430984
  67.2078552  36.2238274  87.3709717  83.0783997  45.5704002   7.9180093
  83.3604050  45.1729279   8.7418537  82.6205215  44.8673439   7.4572606
  73.1412811   5.3662748  56.9695549  73.8257828   4.8198061  57.3556404
  73.2489548   5.2534466  56.0251465   2.7641881   5.8802629  82.3426285
   2.5864589   5.8700795  83.2831345   3.5996804   6.3403058  82.2617340
  28.2950230  45.7708473   5.1549263  28.3726425  45.6054993   4.2153163
  27.6472282  45.1343765   5.4574118  85.4511566   7.1223512  37.0845451
  84.6103973   6.8657861  37.4634132  86.0788651   6.4991331  37.4503479
  64.5682297  47.3175392   2.8086116  64.4757538  48.1642609   2.3718739
  64.6616440  46.6881371   2.0935190  26.0346737   2.7634828  67.9437714
  25.1526852   2.9016697  68.2890701  26.6100368   2.8926289  68.6977615
  45.9593964  34.4864998   0.9540495  45.8814545  35.4316444   0.8242280
  46.8129349  34.3717041   1.3718146  49.2164001  62.7418404  85.1617584
  48.7510567  61.9483681  84.8970184  49.9558563  62.4242058  85.6799698
  78.5870590  22.0786438  10.0087538  79.0789413  21.3606281   9.6103373
  79.0001984  22.8711529   9.6660080  23.4595375  51.0086288  76.6066818
  22.8858757  51.4685898  75.9938354  22.8679142  50.6626320  77.2748947
  36.8922958  66.1295929  82.2735291  37.8149185  65.8798904  82.2220154
  36.6394424  65.9276123  83.1743622  20.9129410  20.9355297   4.7675018
  20.0145035  20.9903069   4.4418631  21.0464172  20.0047779   4.9467106
   2.2692077  17.3302307  28.3196831   2.9619482  17.9114361  28.0057678
   2.1703000  17.5535412  29.2451992  73.2343292  48.7956963  27.0380611
  73.6919556  48.4406128  26.2760086  72.3105164  48.7883377  26.7875652
  51.9184647   6.7387762  58.9344749  51.2590408   6.0672946  58.7598267
  52.5343971   6.3191118  59.5350952  24.3010197  15.4599962  84.4629517
  23.4931850  14.9675722  84.6083908  24.9814873  14.7899694  84.3976822
  63.9555168  24.8465958  19.1630039  64.1044159  24.0594959  19.6869640
  63.9464264  25.5605373  19.8005276  58.8798485  16.0648842  53.0946312
  59.4233971  16.4362144  53.7895432  58.6551132  15.1889925  53.4085388
   0.0387251  54.1726532  10.6703205   0.7987367  54.6284676  11.0320520
   0.1527503  54.2322922   9.7218094  76.1161270  29.8142815   5.5961967
  75.8578110  29.0633030   5.0618401  76.3747787  30.4823265   4.9613380
  59.5177650  42.6819496  62.5463448  59.4433975  41.9777336  61.9023094
  60.3863411  43.0545082  62.3946533  46.3773003   6.0635095  20.5464401
  47.0637169   6.5591383  20.9930038  45.7135239   6.7174973  20.3275013
  40.1897736  54.7145348  23.1275482  39.6212692  55.4500809  23.3556042
  40.1347733  54.1267319  23.8810024  17.9197216  20.2788620  53.1155243
  17.2379513  19.6604500  53.3781776  18.1768513  20.7118492  53.9295502
  73.7908020  36.9302444   5.5371614  73.6291885  37.4611015   6.3171005
  74.3323517  36.2051659   5.8489475  32.0397797  17.0667839  14.5123711
  31.5708294  17.8780804  14.3171349  32.0767670  17.0356312  15.4683495
  51.6991577  28.6723194  24.8029270  51.1414528  28.6533394  25.5806370
  52.1086655  27.8074245  24.7806931  74.2655792  24.9336033  24.4019909
  74.1964569  25.4104004  23.5748768  74.1852036  25.6091728  25.0753250
  58.4369316  17.8126373  32.0638695  59.3689003  18.0194969  31.9940186
  58.4062843  16.8568878  32.1067047  12.9044790  29.7247829   9.3106909
  13.0730295  28.7960396   9.4696293  13.4169827  29.9308643   8.5289612
  55.3027191  58.6922340   6.9771900  54.9622536  58.8103485   6.0904179
  56.2522087  58.7660522   6.8810129  86.6015549  45.3599510  76.2580032
  87.0010300  44.8042145  76.9271851  86.6809769  46.2482300  76.6056900
  77.0152969  23.3169060  66.6850433  77.0823059  23.2764854  65.7310486
  76.3487015  23.9836636  66.8502884  80.4673157   8.0011168  64.6754150
  79.7115860   8.4641247  65.0369720  80.2393570   7.0745659  64.7513809
  27.0661964  49.3063240  17.3350048  26.8595772  48.4378738  16.9895573
  26.7879066  49.2724648  18.2502327   3.1874356   0.5220561   7.4073100
   3.4439466   0.8733989   8.2599487   3.3807988   1.2272826   6.7896547
  72.5553589  56.5033226  67.8576202  72.4082565  56.2314606  66.9517059
  72.2411194  55.7672157  68.3826218  16.1750526  46.4911652  45.7739410
  16.0851192  45.9050789  45.0225143  15.9131393  45.9591522  46.5253372
   4.3926482  17.4588013  71.2549973   3.7527869  17.0705509  70.6582794
   5.2415347  17.1893654  70.9042435  23.5154305  47.9012833  84.0229721
  23.2060719  48.4982681  83.3416977  23.8496704  47.1432571  83.5434799
  29.5031052  55.7751198  85.8157883  29.2509270  55.0268250  86.3568039
  28.7088394  55.9982376  85.3304138  48.0092659  69.9362183   8.2170086
  48.9096832  70.2458649   8.1190100  47.6651840  69.9137802   7.3240728
  54.3805466  51.6475143  86.9795456  55.2702103  51.8129768  87.2915573
  53.8867683  52.4249077  87.2404480  13.1620617   1.7149732  72.3079681
  13.5867548   1.8956569  73.1465454  13.8826151   1.6691637  71.6795273
  79.7401047  48.1666451  66.6132736  80.3185196  47.4594994  66.3275986
  80.0721741  48.9439392  66.1640778  81.1115646  61.9493828  29.9852505
  81.1205063  61.2361412  29.3469410  80.3174591  61.8012962  30.4987659
  80.4862747  55.5029564   8.6784964  80.1424561  54.8723145   9.3112001
  81.3190460  55.1266861   8.3936357  63.8654137  44.8773727  50.3682709
  63.4050522  44.2095985  49.8599625  63.9570580  44.4936600  51.2403908
  25.0937042   1.8910948  17.8473244  24.3366699   2.3564277  18.2031307
  24.9485111   1.8856246  16.9012165   7.8982878  44.3526649  32.1858482
   8.7579165  44.4482727  31.7758121   7.5518785  43.5351906  31.8281288
  30.8008480  41.0099640  11.6630812  30.0530529  41.5864830  11.5060492
  31.1777058  40.8647385  10.7952557  29.4379387  22.2934437  23.2769356
  28.5419044  21.9619122  23.2182693  29.9621067  21.6535149  22.7953033
  86.2155228  53.8662338  46.1022987  86.5028534  53.7608185  47.0092468
  85.2609940  53.8090782  46.1452751  53.2341347  70.0785980  28.8564854
  52.4859085  70.5292358  29.2480373  53.9756889  70.6624222  29.0160923
  51.4903221  51.7403564  62.6620789  50.6693001  52.2093964  62.5132294
  51.2214584  50.8952293  63.0222168  70.9131699  38.8391304  67.9768219
  70.3693237  38.0562592  67.8897934  70.3017578  39.5276451  68.2382812
  85.9141998  27.4029427  56.5962219  86.4071198  26.6223812  56.8491783
  85.8935776  27.9402580  57.3881187  19.3352699  47.3886871   6.4295440
  20.2907047  47.3623199   6.3777423  19.1359806  48.2761192   6.7278414
  57.7639313  37.4483070  36.9665146  57.2794075  36.6238213  37.0076561
  57.4115791  37.9694405  37.6879692  27.9565926  26.7785473  27.7149754
  27.5092468  27.5752888  28.0001431  28.8810883  27.0236244  27.6765614
  10.7779350  62.0774040  59.8157120  10.3281975  61.3640976  60.2686615
  11.4770641  61.6460381  59.3244133  83.3629074  50.4952316  88.7846603
  84.2177887  50.1061630  88.9691696  82.7562027  50.0210533  89.3532562
  12.0087624  18.5257301  66.6929550  11.1897764  18.1848774  67.0525589
  11.7684288  18.8670483  65.8315811  76.7148056  40.2578773  70.2107697
  76.2354050  39.8163452  70.9118042  77.6356659  40.0777855  70.4000320
  84.2524643  34.8377304  38.8204918  84.7723618  35.6287918  38.6785164
  83.7513046  35.0199509  39.6153946   8.2178421   0.5719204  71.4449387
   9.0904398   0.4024633  71.8000336   7.6772423   0.7525123  72.2139435
  44.2923317  67.0524979  82.2502441  44.5285530  67.1011963  83.1765594
  43.7229767  66.2855377  82.1882629  37.0899696  33.3168144   8.0393391
  37.8594017  33.6179581   8.5225735  37.4457283  32.7677917   7.3405943
  79.4747314   2.8958294  71.6045151  78.8706818   3.6366391  71.5539780
  80.1316986   3.1658206  72.2461777  73.9522018  55.7890587  63.3028374
  74.0727234  56.7121964  63.0802879  73.0898056  55.5684624  62.9509392
  71.7284622  60.5440292  49.5304375  72.1490326  60.8270569  50.3423767
  71.2694931  61.3223381  49.2145081  80.8544388   3.0336580  83.7761230
  80.9962540   3.7985513  83.2183914  80.7371902   2.3083298  83.1626205
   7.0402298  16.2589512  77.3953857   6.8967490  17.0393162  77.9308090
   6.5414853  15.5710468  77.8361511  47.2516975  15.7966242  22.0385647
  46.7673492  16.3765774  21.4509506  46.8052902  14.9531651  21.9642181
  83.0985413  12.4394436  85.0877151  83.7844391  13.1038465  85.1536560
  83.0341110  12.2538691  84.1508865  50.7321892  53.2217445  59.4513931
  51.1062279  53.1477814  58.5734100  50.2644958  54.0568619  59.4429131
  22.3740692  33.3663101  75.3420715  22.9346561  34.0835114  75.6380310
  21.4880428  33.6424980  75.5764008   3.2798131   4.3287935  20.4320049
   3.3374152   3.3745396  20.3839092   3.2246761   4.6117206  19.5192375
  74.2265778  42.9680367   9.8045177  74.8643417  43.1771164  10.4869900
  73.4033051  43.3363914  10.1250925  63.6320877   6.6205201  19.5862083
  63.6433754   6.2863150  18.6893177  62.9599648   6.1007595  20.0270424
  86.3906403  60.3112106  50.8306885  85.7526779  60.9764099  51.0890350
  86.0684586  59.9837036  49.9909439  72.6709747  54.7634468  21.2374592
  73.3428345  54.9610710  21.8899822  72.0408249  54.2125092  21.7017937
  83.9650497  21.8699112  85.9878311  84.6213303  21.2221889  86.2447052
  84.2612457  22.1853619  85.1340179   2.2144644  17.3809452   3.5169222
   2.3540397  16.5356827   3.9438677   2.5089202  18.0257168   4.1601930
   1.0328901  31.5142384  68.1368179   1.2456915  32.3724594  68.5034332
   0.8297425  30.9719086  68.8989487  26.1387997   9.1731939  26.5488167
  26.6367188   8.7835875  27.2675076  25.6450653   9.8842249  26.9573383
   5.6637645   7.9672093   9.6347132   6.4561777   8.1124544  10.1516428
   5.1948566   8.8006763   9.6758232   1.2314192  59.0994415  38.4870720
   0.3581600  59.3903732  38.7497673   1.6313869  58.7812004  39.2963791
  55.3920288  40.4738808  32.4281158  55.1304588  39.5856209  32.1856270
  55.8374100  40.3712311  33.2691460  44.6957970  57.1894531  13.4185200
  43.8276367  57.5729065  13.2940483  45.2414398  57.9208031  13.7077045
   4.7446036  43.7179871   2.3792541   4.4177895  43.6436348   1.4826518
   3.9565306  43.8113899   2.9144633  66.2051849  57.8596001  13.7964268
  66.5752487  57.1475334  13.2746515  65.4228134  57.4810829  14.1974802
  62.0327759  10.8566294   6.0417027  62.1932259  11.4070444   6.8082080
  62.4696007  10.0295534   6.2450752  56.5331039  12.6540432  79.1557693
  55.7050323  12.1776714  79.2157669  56.5931473  12.9152079  78.2368469
  67.3657761  43.4666290  80.0688782  67.6474152  43.9175186  79.2728882
  66.9594955  42.6585960  79.7554321  36.3178635  54.7613487  77.5587921
  36.5979424  53.8868408  77.8290253  36.1024361  54.6677704  76.6308517
  10.8978920  29.5489750  16.4121056  10.3176985  30.3102303  16.4022102
  11.4732265  29.6765041  15.6578121  11.7164974  31.6853676  33.0155792
  11.9851675  32.5270691  32.6473579  11.2471905  31.2511578  32.3032265
  76.5546722  63.7899017  43.9388466  76.3381805  64.6478424  43.5737381
  77.4761353  63.6598244  43.7147293  56.0975723   3.5878508  85.4125824
  56.9481163   3.1519504  85.4654694  55.6316414   3.2999077  86.1975784
   1.8039752  26.6971226   3.4713936   2.4679542  26.3221645   2.8927999
   1.0242093  26.7757530   2.9218354   8.2769594  24.8512573  78.9370575
   8.2761230  24.7749443  79.8912048   9.1072321  25.2811241  78.7318878
  59.8513756  65.4472351  45.3053055  59.8496475  65.2747650  44.3637733
  59.0243301  65.0801849  45.6175537  50.0713196  67.7249374  23.2754593
  49.6385612  68.3466415  22.6902847  51.0059471  67.8909760  23.1524544
   0.5237107  70.0314941  47.7020988   1.3286152  70.0833969  48.2175293
  -0.0107137  70.7598419  48.0185280  14.4999142  31.8446465  69.8779373
  13.9094086  31.2714558  69.3890762  14.2156563  31.7611771  70.7881317
  15.7043428  13.5532894  77.7860413  15.6345062  13.2466869  76.8819656
  14.8741932  13.2999668  78.1896667  70.2150726   9.6318569   5.5184259
  70.8191452  10.1138201   4.9535837  69.9498062  10.2675705   6.1830559
  39.8288231   5.6473427  77.4766846  39.6848717   5.6596203  76.5304565
  39.2952881   4.9172807  77.7906647   0.5950841  40.8505440  15.7883358
   1.0086552  40.6635780  16.6310902   1.0919234  41.5891037  15.4363298
  50.5591469   8.9834929  20.4132633  51.1506348   9.5437422  20.9157505
  50.6030731   9.3279352  19.5212650   8.2012434  58.5945435  53.5235214
   7.2680917  58.7787704  53.4161949   8.6336012  59.4256287  53.3270645
  13.0296383  55.1587524  64.6770020  13.9045496  54.9173622  64.3728790
  12.7750149  54.4465294  65.2636337   5.4080210  67.6387405  46.9874687
   6.2082381  67.8997116  46.5316429   5.7081480  67.0510178  47.6808243
  36.7061501  68.7156219  81.8161774  36.7416992  67.8493881  82.2218933
  37.0779686  68.5868530  80.9435959  86.4338837  16.1828747  66.2138748
  86.6644363  17.0562077  66.5306778  86.9723434  15.5886230  66.7365189
  30.1756840  70.8483505   4.5567284  29.6623592  71.3068161   5.2219663
  30.7379036  71.5250397   4.1795802  51.0856476  49.9148331  19.3130608
  51.7679100  49.3785439  19.7169800  51.2718010  50.8047142  19.6125450
  69.0606613  33.5859108  41.0735626  68.5019226  33.6197739  41.8500214
  69.8252335  33.0809746  41.3505096  51.2941551  27.7645683  21.5792236
  51.1473541  28.3802986  22.2972488  50.4239388  27.4213753  21.3763123
  42.5640335  21.0491390  25.1036072  43.5137863  20.9300938  25.0979691
  42.3838310  21.5742245  24.3238335  43.2749557   7.1186523  84.0394669
  42.3364525   7.0996909  84.2267685  43.4397964   6.3071952  83.5592575
   8.9104261  20.6966076  68.8225937   9.5231256  20.1231117  69.2829514
   8.1052914  20.6500683  69.3381729  71.7014694  64.4604111   2.4577734
  72.4144058  64.8710251   1.9685301  71.9730148  64.5217896   3.3735933
   1.5760123  48.4717216  52.8526382   1.4116523  47.7952957  53.5096550
   2.3287311  48.1474648  52.3581657  64.6906128  49.6781845  86.4930420
  65.4129944  50.3058548  86.5136185  64.7944107  49.2208252  85.6586075
  22.1637192  18.7488861  17.1280804  22.0940399  18.6314774  16.1806679
  21.8834476  19.6516399  17.2788048   0.7781765  64.6194153  55.3899765
   1.4458728  64.6489716  56.0752068   0.1232220  65.2605896  55.6659393
  76.2014465   6.1920319  61.2036209  76.7470398   5.4056134  61.2136841
  75.3271942   5.8800159  61.4372215  30.9338360   5.5108175  52.3968773
  30.7695713   6.3901529  52.0562630  30.6843262   4.9262495  51.6811562
  61.9093933  55.2454071  84.4532242  62.5713501  55.1430511  85.1370163
  61.4664078  56.0658760  84.6696091  79.9269028  22.7678738  60.1849823
  79.5151901  23.5135784  60.6216164  80.6771164  22.5506172  60.7383461
  16.6595459  19.5461769  73.2579498  16.5168095  20.3545990  72.7657013
  17.0712700  18.9527836  72.6297836  59.7107658  14.7720928   3.1922433
  59.8136902  15.1096601   2.3024755  58.7646599  14.6820402   3.3063004
  75.2568054  16.8191566  82.4143906  75.4657440  17.4795456  83.0750504
  76.0079498  16.2259121  82.4228287  71.1123047  15.7607327   7.1709914
  71.5133362  16.3430328   6.5257554  70.2039337  16.0569324   7.2290354
  62.0556259  23.9097290   6.9593906  61.9106026  24.8558807   6.9596324
  61.8307457  23.6331787   6.0710316  62.3992538  55.0580750  51.7873039
  62.8881264  55.0247803  52.6095734  62.2441711  54.1404114  51.5635338
  56.6672249  36.8911743  30.8464108  56.9025269  36.7191086  29.9346771
  55.7110748  36.9358292  30.8426743   1.2477911  10.3739357  76.9061279
   0.3168274  10.3704729  77.1286697   1.6617888   9.8604860  77.5998154
  24.2594757  46.8143539  35.7919960  24.3105240  45.8749237  35.6156540
  23.3290787  46.9790916  35.9451408   2.6703942  25.0813103  20.9344463
   3.4219906  25.1595116  20.3468933   1.9113961  25.0642853  20.3514690
  64.3120499   9.3965940  88.0011520  64.6622696  10.1490088  88.4780655
  63.4189644   9.2983408  88.3312683  38.4628487  68.0166321  11.6316195
  37.8616142  68.7398376  11.8097105  39.2471848  68.4381638  11.2803955
  22.5522938  27.0289841  83.8541870  22.8417091  26.2011051  84.2377014
  23.2771606  27.6333504  84.0140076  71.4397659   3.4788733  29.4729366
  72.1757355   3.4842875  30.0849419  71.1343994   2.5716903  29.4735813
  79.6994705  48.8561363  49.6300888  79.0248184  48.2554893  49.3133774
  80.3346481  48.9012146  48.9154282   9.1175776  69.1085434  47.8475609
   9.1940184  68.2124939  48.1754074   8.5415602  69.0367889  47.0864525
   1.8954022  22.5686016  13.4123592   1.2090631  21.9527340  13.1556950
   2.6731386  22.0238209  13.5330734  76.3876572  28.6474247  87.0307083
  76.3607712  29.1462212  87.8472366  75.4812012  28.3762112  86.8857651
  40.4660149   9.3392448  82.6056137  40.5005455   8.8791819  83.4442902
  39.8639717   8.8202248  82.0723267  12.4094267  11.0124645  80.3847733
  12.3291368  10.4272680  81.1379852  11.6703682  11.6148167  80.4695969
  45.4937286  41.8878403  83.1515656  44.5418015  41.9090691  83.0534973
  45.8289909  42.0410538  82.2681885  21.3166618  39.7592468  70.6143875
  21.2096844  39.1149788  71.3141785  21.8501663  39.3125458  69.9570694
   2.1456916  46.4374733  74.8565598   1.9915216  45.9865608  74.0264130
   1.4668660  46.1010094  75.4415512  70.0715485   0.8662077  88.3964005
  69.4566193   0.9687438  89.1227570  70.7928467   1.4589008  88.6077499
  69.6009216  44.0292664  86.7317276  68.7792206  43.5839844  86.5249634
  69.9321213  43.5736008  87.5056229   2.3030438  32.6848412  42.4269905
   2.3532276  31.7566338  42.1986389   2.0256238  33.1157265  41.6185341
  40.4511299   6.2148352  29.0515442  39.7318687   5.6164699  29.2536564
  41.0281792   5.7105999  28.4779625  83.2479935  35.5163231  79.0607681
  83.9001236  34.9558640  78.6402512  82.9724731  36.1214447  78.3721848
  81.6271667   1.8649398  16.8627777  82.5192413   2.1397960  16.6508808
  81.3765793   1.2879368  16.1413174  10.6756105  49.6620522   7.4960070
  11.2474432  49.5882416   6.7319446  11.2316437  50.0435677   8.1753483
  29.9240379   4.6041675  40.7040100  30.2242165   3.8037555  41.1346664
  30.3213863   5.3123112  41.2108421  49.0091667  71.5581741  86.0974808
  49.6395950  70.8573303  85.9313202  48.8133621  71.4876556  87.0317841
  75.7044983  45.0494118  13.3700933  75.1054306  44.4925499  13.8673420
  76.5450134  44.9575386  13.8187752  77.5546188  65.6992569   2.0098307
  76.9542542  65.3546829   2.6709352  77.6864090  66.6138916   2.2594423
  78.2003632  67.6547089  83.1254425  77.3422699  68.0183258  83.3438187
  78.8014145  68.3955383  83.2038269  82.5403595  25.3870926  17.8738518
  81.9571228  24.6775322  18.1432686  82.8879242  25.7361336  18.6945820
  24.0293980   7.2147088   2.9050033  23.5528202   6.3927474   2.7888794
  23.4201870   7.7797093   3.3802598  33.7934265  51.1481323  29.5438118
  34.5389214  50.7112961  29.9556904  33.3878822  50.4706650  29.0026989
  48.5951385  23.7826023  88.6314316  47.6548729  23.8612385  88.7925339
  48.7088547  24.0777340  87.7279968  82.7685776  48.8801575  45.3319092
  83.0412064  49.4986076  44.6541023  82.7167130  49.4066162  46.1296425
  13.7308702  38.1842270  68.1634064  13.3601389  37.9111366  69.0025787
  13.1793652  37.7574844  67.5076904  65.7009430  69.8655243  70.1555862
  65.9054260  69.0585709  69.6831055  65.8217468  70.5596390  69.5076294
  31.3767700  68.9219208  75.0476761  30.6934147  69.3555603  74.5365753
  31.0388241  68.0392761  75.1992111  59.8350410  29.2997417  53.2105484
  58.9017220  29.4821072  53.1015282  60.1475525  29.1127815  52.3253288
  39.1092911  15.6700649  82.7581329  39.2774811  16.4279022  82.1981125
  39.2158279  16.0025234  83.6493988  63.8002281  47.8045197  74.2207184
  63.4056625  48.6761246  74.1913528  64.7433014  47.9680672  74.2107849
   9.9119320  69.3879089  55.6110687  10.5127840  68.6576157  55.4631615
  10.1639471  69.7359543  56.4663963  12.4858532  61.8216858  45.6736183
  12.6072149  61.0838966  46.2712555  12.8035221  61.5009537  44.8295517
  60.1284103  28.3295174  27.6698723  61.0182648  27.9769268  27.6784172
  59.7152367  27.9558468  28.4482613   3.5923569  44.5816803  16.8059330
   3.8360965  44.0871582  17.5884094   2.8734901  45.1448631  17.0927925
  64.3951187  42.2512169  89.3874359  65.3021393  42.4411163  89.1476746
  64.0637589  41.7161179  88.6662598  25.3769112  22.6433849  23.1885376
  24.7822361  23.3862705  23.2920341  25.5722580  22.6216621  22.2517357
  67.1116714  69.8091354  45.6671104  66.8017807  70.2755966  46.4433937
  67.8511200  70.3300705  45.3539391  11.3178759  54.5353470  14.1911917
  11.2962284  55.4870720  14.2911367  11.4363203  54.3958168  13.2516527
   9.1104641  47.7615356  76.1044617   9.3568907  47.4200287  76.9640427
   8.1844921  47.5365982  76.0138397  53.4243507  22.5224304   9.8636370
  53.1665535  21.7801285   9.3170462  54.3671265  22.6081543   9.7220011
  81.4653015  47.0301208   5.4982452  81.7832870  47.4323883   6.3065157
  80.6617508  46.5781631   5.7556620  15.5884275   3.2568009  32.6054459
  15.5022898   2.6431832  31.8758678  15.5064964   4.1211352  32.2024002
  66.7786102  46.9299736  13.6322079  66.5357361  46.3572884  12.9046936
  67.4418030  46.4362717  14.1145639  75.8972549  52.0465393   4.0926390
  76.5439377  52.6591110   4.4430451  75.0977173  52.5657005   4.0063500
  31.8954887  51.9543800  16.6612778  32.1468315  51.4802246  17.4538898
  32.2939873  51.4562111  15.9476519   0.2726852  70.9918823  79.4606552
   0.3891635  71.6349564  80.1600266   0.8586861  70.2727203  79.6965256
  65.5783539  59.6013222  22.7570305  65.7422333  58.6710663  22.6021271
  66.4469376  59.9767380  22.9014587  31.4040680  17.8078556  79.5580139
  32.2089882  17.7768860  80.0750961  31.3854275  16.9711056  79.0935364
   7.8059421  37.8101044  58.9426880   8.5487061  38.3702393  58.7173386
   7.6721654  37.2659836  58.1666336  15.1513033   0.7945884  45.3306770
  15.7141485   0.6860018  44.5640984  14.6964169  -0.0434389  45.4144630
  21.2165279  38.0113983  72.8125153  21.7991142  37.5841980  72.1845627
  21.8014050  38.3472824  73.4917297  86.8058090   8.1988554  48.7020798
  86.7232285   7.6025882  47.9578514  86.2383270   8.9374256  48.4813728
  56.5654678  27.0455608  76.7004547  57.1068230  27.2603989  75.9408493
  55.8216782  26.5654793  76.3364105  35.1492958  59.4170685  14.0280771
  35.8743935  59.9833221  14.2923088  34.3654594  59.8726006  14.3351994
  43.8307648  69.0411224  18.6979771  43.9875526  68.9410858  17.7590199
  44.1593170  69.9163055  18.9037609  28.3733788  55.0766945   0.7926288
  28.0113468  55.2646408   1.6585627  28.1098690  54.1740608   0.6136156
  44.0734520  15.8762894  25.3113499  43.2417946  15.5204382  24.9983788
  44.6542740  15.1172409  25.3635044  85.5062790  71.0333023  13.6753788
  86.2834015  70.8007736  14.1835556  84.8606110  70.3653336  13.9059706
  69.9795303  13.8985224  75.8394012  70.9008102  13.6601076  75.9425049
  69.8981705  14.1476202  74.9187698  57.0938797  69.8318939  11.3418655
  56.6549683  70.3491440  10.6665592  56.4396782  69.1880646  11.6134043
   4.7982597  23.1551876  40.2195168   5.6794934  23.1553497  39.8458061
   4.4058452  23.9707870  39.9080048   0.0546912  69.3271790   4.9403934
   0.1270622  68.5298843   4.4156904   0.2201558  69.0389862   5.8380575
  78.6314087  19.1739426  48.8315697  77.7935104  19.5772114  48.6045761
  79.2891006  19.7763176  48.4839783  30.3060493  16.4693565  34.5353241
  31.1404247  16.7434540  34.1546364  30.0989780  15.6469173  34.0915375
  20.7161427  47.8877373  20.2748718  21.2810287  47.1421127  20.4778042
  19.9533501  47.7714844  20.8413200   8.4892492  67.1615829  17.6565323
   7.9624128  67.7352753  18.2129116   9.3676567  67.5408096  17.6852188
   6.1639118  35.3299713  70.2990189   6.6881418  35.9465446  70.8101501
   6.8069811  34.8179283  69.8086090   3.5823679  69.9156342  31.7951775
   4.0136061  70.7413406  31.5750141   2.7879922  70.1770248  32.2608719
  59.6750031  17.6294098  81.0812607  59.2062912  17.0228920  81.6545639
  59.0499458  18.3355961  80.9174423  62.3699989   1.6774887  54.3475075
  61.8732834   1.5603800  53.5376968  62.9191589   2.4440181  54.1829224
  20.8800983  30.8075237  80.6439438  20.2816620  30.0608330  80.6203232
  20.3067036  31.5739632  80.6484833  86.8797836  18.8789005  67.1144638
  87.1272736  19.8010235  67.1828079  85.9354095  18.8721790  67.2705002
  59.5651855  32.0653419  39.1606827  59.6476440  31.4033775  39.8471451
  60.0688438  32.8115692  39.4858017  72.5511017   8.4203558  84.5988922
  73.0400238   8.9647303  85.2160187  72.2063751   7.7041736  85.1322632
  80.9305954  30.0831184  83.0946426  80.4417877  29.2608147  83.0612640
  80.7404175  30.5089054  82.2587204  46.6712570  64.2466431  16.2608356
  46.7619591  64.1702652  15.3110085  47.0036659  63.4158630  16.6007538
  30.2873898  68.4795837  49.5617371  30.8453674  68.9689789  48.9572716
  30.5459118  68.7887421  50.4299660  78.0339050  41.4872971  82.2471619
  78.3673630  42.0741577  81.5684586  77.5617981  40.8079910  81.7656174
   9.3933105  36.2028008  31.8952198   9.7756138  36.5307083  32.7091942
  10.0678606  36.3582458  31.2341232  41.1256676   2.3938057  40.2823105
  40.3361473   2.0566320  40.7056351  41.4536095   1.6575592  39.7659531
  26.6346931  58.9000435   1.1510698  25.6934376  58.7690735   1.2655978
  26.8345737  58.4817314   0.3136351  67.1488724  33.3665733  24.2026196
  67.1911316  34.2793427  23.9174900  68.0586090  33.1295204  24.3826523
  47.9315910  56.8153496  32.1461678  47.9081230  57.6052513  32.6862946
  47.1646652  56.8905792  31.5783672  10.3865681  49.6079369  20.3372078
   9.7820425  48.9007797  20.5623970  10.7073746  49.3800278  19.4646416
  80.3778915  32.6697044  74.3361282  80.8228378  32.6491318  73.4888840
  80.0249939  33.5571938  74.3998413  31.8230648  10.5824337  21.8130646
  31.4644661  10.9411469  22.6248302  31.8373566   9.6359529  21.9551983
  81.2117310  68.7758560  41.1419106  81.5312653  69.6399536  40.8821907
  81.8432465  68.4731293  41.7944260   5.9448318   8.6274691  58.2444839
   6.1512165   9.4256325  57.7580948   5.6917043   8.9358950  59.1145592
  59.1061707  41.1413536  24.7590599  59.0375862  40.2088089  24.5543880
  58.2343979  41.3825912  25.0721798  61.0768204  69.5724564  24.3791656
  61.4620743  68.7011032  24.2867165  60.2028122  69.4896088  23.9977531
  66.4263153  34.4886551  75.4915161  66.1471481  34.4721375  74.5760803
  66.4201508  33.5700188  75.7604065  12.2225838  51.9074478  83.5037079
  12.2525883  52.8488731  83.6741409  11.9585829  51.5211601  84.3387604
  65.6818008  42.7188187  68.6237717  66.4983139  42.4746132  68.1879959
  65.0625000  42.8635101  67.9083939  72.1438217  47.4469452  22.9438496
  72.7311859  47.5554886  22.1958847  71.5369034  48.1844444  22.8807831
  13.6694231   2.9674635  50.0660973  13.7017174   2.4461153  49.2639809
  13.8941460   2.3501048  50.7622261  13.2535381   7.0315456  74.8638992
  12.9887075   6.1125851  74.9040070  13.2708702   7.3159084  75.7777252
  70.1514359  20.0995998  59.8057289  70.3581009  20.8819027  59.2943306
  69.2685013  19.8572903  59.5265541   5.8894138  17.8472595  40.8373222
   6.7430301  18.2383537  40.6512642   6.0882363  16.9434319  41.0818596
  82.9739609  16.1684227  57.6908760  83.5431671  16.3879051  56.9532700
  83.4964218  15.5723543  58.2275085  29.8509140  54.8448524  40.6410942
  29.1258316  55.2180443  40.1398811  29.4802761  54.6729965  41.5067291
  12.2892332  13.7937822  24.3456745  12.0648737  12.8633699  24.3607655
  11.5391922  14.2276516  24.7524014  34.5890350  13.8883514  80.5120544
  34.8523483  13.0099745  80.2375488  33.7351646  14.0219707  80.1006088
  29.0648365  51.2366257  77.0527496  29.7275486  51.8367348  76.7108154
  28.2540569  51.7453537  77.0446701  39.9862900  35.8339653  13.1361370
  39.2662277  35.7360153  12.5131207  40.4650574  35.0069542  13.0807962
  70.1802444   4.4134388  42.8999786  69.2290955   4.3306389  42.9684448
  70.4374466   3.7227361  42.2892303  25.8159962  45.5590668  77.9381180
  25.4253807  44.9947701  77.2708664  26.2991810  46.2189369  77.4407883
  68.9489517  57.7542725  41.7604942  69.1309052  57.3541031  40.9102058
  69.0427246  58.6945305  41.6076775   7.8468962  71.5078430  49.1534576
   8.1800213  70.9076462  48.4863586   7.5197148  70.9362259  49.8480339
  55.2250061  31.2513027  67.2001648  55.0967789  30.6675453  67.9478455
  54.3388786  31.4591713  66.9038620  22.2442532  60.5613365  55.4102631
  22.4428902  60.0811043  56.2140961  22.8764744  60.2314568  54.7717438
  56.2574768  27.8847923  24.6018066  57.1758919  28.1345406  24.7036495
  56.2648506  27.2208710  23.9123249  34.4095726   0.7938498  45.6959419
  35.2952118   0.4640073  45.8478508  34.5395203   1.6606754  45.3112869
   9.0250845  63.9508209  56.6833038   9.8271856  63.4386559  56.5805702
   9.2749557  64.6745453  57.2577782  37.5402145  31.8848896   3.1701953
  38.0343399  32.6616592   3.4322989  38.2014351  31.1981430   3.0841849
   9.8098097  18.1928673   8.9535475   9.9842634  17.4768200   8.3427515
  10.6314487  18.6826153   8.9894276  31.5735779  29.1419830  86.0612259
  31.3212719  28.2605858  85.7860641  30.7965794  29.6760635  85.8961105
  46.4645424  67.8033676  36.9019737  46.6251755  66.8631439  36.8219223
  45.9560204  68.0266953  36.1223793  36.3655243  28.8421707  37.2634087
  35.4384613  29.0600758  37.3598824  36.7936478  29.6829433  37.1020355
   7.6506252  20.7771740  58.9617119   6.7733178  20.4085636  59.0651093
   8.0607662  20.2341576  58.2885475  37.4163857  47.1053123  75.6407547
  37.3786736  47.4494934  74.7483673  36.6260681  46.5719528  75.7253494
  14.1410227  47.8950424  20.1021252  15.0203409  47.8119965  20.4710884
  14.1318302  47.2842407  19.3651924  77.9497452  20.8501320  83.2391739
  78.3024139  20.0881863  83.6988373  78.3469009  21.6010189  83.6803818
   5.5379272  29.7690086   5.8438735   5.0064182  30.1832218   5.1640520
   5.8056502  28.9329357   5.4623775  16.4241295  71.1331787  55.6289940
  15.7710581  71.6203156  56.1314125  16.9361038  71.8082733  55.1836128
  78.0105743   8.8398542   6.7458692  78.3649139   9.5133085   6.1652355
  78.3279343   9.0824289   7.6157389  72.5956879  56.5233307  41.5122147
  73.3525848  56.1633453  41.9745560  72.3634033  57.3085060  42.0079689
  73.9132919  59.4578514  45.1918030  73.9684830  60.3609276  44.8793259
  74.1853409  59.5044975  46.1083412  28.5219460  63.3893738  70.3779831
  29.4247532  63.4983368  70.6768188  27.9886990  63.7157898  71.1027832
  79.0559311  55.6954918  11.8887491  78.8354034  55.8382607  10.9683056
  78.7474213  54.8085442  12.0741682  35.0574036  30.2825966   7.2179480
  34.6557922  29.4736290   6.9009156  35.3024216  30.0896988   8.1229286
  34.2472267  62.2113609  14.3149281  33.7333984  62.9852600  14.5457764
  35.0504837  62.2951813  14.8287268  65.6753464  66.6187134  52.3480339
  66.2379608  65.8503952  52.2512131  65.1036758  66.4055405  53.0855865
  73.0962143  24.3673229  27.8457642  73.0024643  24.8920631  27.0507221
  73.2196121  25.0103531  28.5439873  30.4062500  26.9480934  77.7891006
  30.5388412  26.6830215  78.6992569  29.4572029  27.0364914  77.7012024
  27.1707554  29.7387886  80.1342850  27.5015297  29.3578739  80.9477463
  26.9084949  30.6272926  80.3751450  79.8607330   5.4122410  64.8703537
  80.2877426   5.0556254  65.6492767  80.1714706   4.8600631  64.1528702
  44.5643616  48.6374245  68.2670670  44.6835785  48.0047340  67.5587463
  43.7783623  48.3392258  68.7248001  30.8942795  67.0338593  79.3822937
  30.4590759  67.6294785  79.9922562  31.2910290  67.6089172  78.7279739
  66.4837494  32.0982895  36.7869453  66.4025192  31.2447491  36.3613892
  67.2235184  31.9978104  37.3860092  77.4677124   2.0855405  13.9311209
  77.1361237   2.4931667  14.7311974  76.9297028   1.3015395  13.8210325
  59.8686256  51.8791885  72.3017883  60.4304428  52.0334549  73.0612564
  60.3797760  52.1965752  71.5573273  33.5354271  11.0233097   9.8939295
  33.5882759  10.4632282  10.6683636  33.2730713  11.8785963  10.2343512
  86.9385147  46.8790474  69.9175568  86.7405167  45.9958839  69.6060257
  86.0902328  47.3220863  69.9366302  64.5931702  11.6818323   0.2502487
  64.2631531  12.5092897  -0.0999481  64.2310867  11.6348343   1.1350760
   1.9557099  71.5943909  68.7031631   2.2170579  71.2291718  69.5484695
   1.0045886  71.4890976  68.6805191  73.7728653  38.1719551  47.3311996
  73.5030975  37.5025978  47.9600220  74.5350876  38.5867691  47.7351646
   7.5671315  65.8770370  72.3667526   6.6877227  65.8457260  71.9900665
   8.1000929  66.3034744  71.6956787  58.3240318  24.2110977  53.2527542
  59.0215492  24.7498932  52.8793869  58.6049805  23.3103275  53.0917702
  42.4105453  52.6936073  83.6689606  42.2938538  51.9212646  83.1156998
  42.4121361  53.4290657  83.0563202  31.7892876  59.6166916  25.7603073
  32.5546799  59.3831062  25.2350998  31.1787491  58.8911324  25.6297626
  65.2013474  39.7171440   7.0606718  64.4389191  40.2734070   6.9009581
  64.8342133  38.8952408   7.3861246  25.5223198   5.5982604  39.9144669
  25.3862057   5.6051102  38.9670219  24.7460175   6.0300064  40.2710953
  75.9699173  25.7380772  52.7283363  75.5678482  24.8695011  52.7162094
  75.5672531  26.1986961  51.9921799  55.9808197  59.1401863  38.2527847
  55.6329918  58.3404312  38.6472969  56.8480606  58.8917961  37.9327431
  74.3824081   5.9637666   6.2139521  75.3057404   6.0847421   6.4354391
  74.1377411   6.7694726   5.7587519   4.1292796  14.2840614  36.1100883
   3.8347497  14.0432434  35.2317429   4.0461144  15.2372427  36.1376534
  41.8672905  33.5286293  13.2254515  41.3534889  32.7846375  13.5396357
  42.2060089  33.9388924  14.0211821  83.0840149  39.1752434   3.7578125
  83.7749329  38.5167618   3.6852312  83.5306702  40.0085411   3.6083276
  23.9743614  62.2202721  44.6963539  23.1203651  61.7915802  44.7524147
  24.2417316  62.1032257  43.7847366  66.8582077   1.4576451  24.3045025
  67.5877686   1.7180444  24.8667889  66.8960114   2.0656335  23.5661583
  65.9659882  15.5325546  61.4930534  65.4238510  15.8330364  62.2224617
  65.8904572  14.5786057  61.5155869  15.2303286  62.0701447  20.0223866
  15.7438478  61.4849167  20.5791950  14.8615093  61.4980011  19.3494415
  78.7481995  14.2171135  38.0695839  78.5809631  14.2944126  39.0088844
  77.9543686  14.5565233  37.6562347  69.0095749  64.3073502  33.9507484
  68.5210800  64.5138168  33.1538963  69.6547470  65.0105286  34.0251350
  18.6299324  67.1735229  13.5281868  18.0634480  66.8850632  14.2438097
  19.2641716  67.7568207  13.9450054  37.8847046  39.2273293  11.1468143
  37.1625366  39.8314819  11.3191757  37.7120247  38.4785995  11.7176151
  24.1799316  54.0162392  37.1414795  24.4510517  53.8685341  36.2354393
  24.2015896  54.9674797  37.2459221  36.1578674  56.4927559  56.8621674
  35.7767334  56.1411934  56.0575714  35.6315231  56.1095848  57.5638618
  72.4661636  63.4922752  77.7195282  72.3052902  63.1919899  78.6140594
  73.0634766  62.8408508  77.3519821  33.6781616   4.1810060  48.2466850
  33.2806702   4.3145242  49.1071548  34.0798035   5.0236897  48.0350266
  69.7683182  57.6514282  67.0808487  69.4675064  58.4093170  67.5821991
  70.5034866  57.9821434  66.5647202  17.3371849  56.5504990  38.5401192
  17.8315506  55.7308540  38.5435867  16.6388073  56.4062805  37.9016037
  38.8958321   3.4928646  12.0798788  39.8410797   3.4685216  11.9310656
  38.8020096   3.4501295  13.0315104  52.6952782  35.2043304  27.2915840
  52.9115944  34.4000740  26.8197670  52.1695404  34.9113388  28.0358868
  25.1502304  47.6106110   4.4268723  25.4855633  47.9178391   5.2691278
  24.8409328  48.4034004   3.9886332  61.8457947  31.7163849  85.6558151
  61.0150871  31.2419968  85.6224442  62.4946022  31.0480194  85.8761978
  80.0165634  67.1820374  23.5630779  80.1461105  67.4817352  24.4628735
  79.3005066  67.7235489  23.2310181  39.1754951  41.0904694  68.0651474
  40.0724144  40.9870224  67.7472382  39.1268425  40.5222778  68.8339233
  59.5798988  15.5899076  35.3628426  58.7906113  15.0493832  35.3298111
  59.2601280  16.4684410  35.5681686  30.4164143   2.3540916  67.3283920
  29.9209824   2.5619512  68.1205902  31.3323956   2.4673800  67.5821152
  64.8343201  62.4118576  86.3157425  64.6663666  63.3249474  86.0827408
  64.8265228  62.4035835  87.2728806   9.8085871   6.4166427  51.3209534
  10.6331806   6.2140737  50.8790932  10.0518427   6.5361323  52.2389870
  67.6061096  34.4131126  88.6330643  67.3516464  33.8086472  87.9358521
  68.5569687  34.3216743  88.6941299  23.5653915  44.3687363  64.9359207
  23.4789143  44.9545593  65.6879654  23.0642471  44.7955284  64.2409821
  10.3578987  36.9695244  69.8026505  10.8449821  36.1667404  69.9884567
  10.4874535  37.5135155  70.5795212   9.3224497  32.1286774  35.7450905
   9.2091675  31.3041821  36.2179642   8.5047903  32.2410278  35.2602806
  12.5463400  46.8584328  87.1707611  11.8510485  46.8677101  87.8285751
  12.8547077  45.9523163  87.1609650  42.3890915  25.7399292   3.9148645
  42.6802559  26.4030819   3.2890172  42.5113678  26.1490288   4.7715554
  28.7148819  16.8571415  85.5155334  27.9527187  17.2137222  85.0592575
  28.9248295  17.5132923  86.1800766  35.5376320  16.1224670  78.3779297
  36.3981476  15.7352018  78.2173843  35.1496048  15.5707130  79.0570679
  28.5973415  28.8425598  82.4871750  28.1992092  29.6230373  82.8726273
  29.5393009  29.0060005  82.5343933  79.2636795  11.3025980  73.3177795
  79.5334091  11.0825911  72.4261093  78.3729553  10.9596367  73.3900757
  34.7467613  44.2480888  34.2314339  34.2846642  43.7076111  33.5906639
  35.0719719  43.6244659  34.8807106  12.2891121  57.1699028  16.9437904
  11.3445368  57.3051758  17.0193691  12.4152346  56.2428284  17.1459236
  14.4740534  68.6806107  35.6448669  14.0347815  68.1239090  36.2877960
  13.7612934  69.1274719  35.1882248  79.3381500  53.5675812  16.1596203
  79.7535858  52.7286072  16.3590393  79.3351364  54.0375595  16.9934921
  18.5861034  44.0267906   8.4043875  19.0174961  43.2396049   8.7367573
  19.1106625  44.7502975   8.7473297   3.2943208  64.8373718  18.9675159
   4.2425022  64.7618484  19.0746574   3.1099503  64.3880997  18.1426563
  18.2688599  15.8210745  75.6166077  18.5383911  14.9283991  75.4004669
  17.6349030  15.7147598  76.3258514  55.3699341  39.5980034  41.3131447
  55.2850533  40.5438232  41.4333458  56.0198174  39.3313026  41.9633446
  68.4360657  59.7841377  72.4213791  67.9253998  59.4938240  71.6656265
  67.7845078  59.9403381  73.1049881  45.6541557  11.0952177  79.3849716
  45.2782440  10.4624777  79.9969864  45.9797783  11.8025427  79.9416504
  12.9182949  20.3069897  61.2790756  13.0457649  21.0345402  60.6702614
  12.8611822  19.5330200  60.7187729  56.9787827  40.6027832  57.6297493
  56.3176270  41.0853271  58.1259956  56.5729027  40.4489059  56.7766304
  59.5529289  29.6494408   9.6914797  60.4142494  29.6803627  10.1078949
  59.1824608  30.5190029   9.8426352  65.6941986  20.4840660  60.1800041
  64.8452759  20.5775852  60.6122322  65.6287689  21.0370502  59.4014397
   2.0379159   9.4437752  79.4710388   2.9485369   9.5959921  79.7236862
   1.9317247   8.4936819  79.5187683  70.5399551  45.5401764  39.8840828
  69.6407776  45.3224525  40.1296577  70.6532135  46.4469109  40.1691017
  56.2496872  61.8333588  28.5317345  55.8976936  62.5574799  29.0494041
  55.4939995  61.4904556  28.0546799  67.3289642  63.6924210  69.8545837
  66.7814102  64.0782089  69.1707840  68.0831223  64.2786102  69.9166870
  26.7453804  52.5615616  72.0222855  27.6450729  52.6208305  72.3436432
  26.2234306  52.3795052  72.8037262  80.0549850  25.8018551  25.8749638
  80.7220993  25.4600067  25.2797108  80.1726456  25.2988892  26.6808262
   3.7608285  36.5962563   9.4675312   4.0759344  35.7689629   9.8315763
   4.3196626  36.7511177   8.7059841   0.7602097  44.6908112  82.4487686
   0.3103309  44.9908600  81.6589584   1.6643642  44.9838562  82.3353653
  23.9440937  55.6142883  19.2106991  24.2507553  54.8923912  19.7593842
  23.6527843  55.1933670  18.4018764  11.5755100  19.1778049  35.7317886
  11.5270548  18.3595676  35.2374496  11.8102083  19.8380547  35.0797005
  54.1688194  36.0325699  69.8384171  53.7170906  35.2610550  69.4964523
  53.7083015  36.2388382  70.6518097  10.6153860   8.0935726  13.8905420
  11.4405642   8.1895618  14.3660412  10.7185802   8.6483011  13.1173286
  71.7955627  62.0070801  32.6485863  72.5587387  61.4374619  32.7451286
  72.1518326  62.8302498  32.3143730  74.8700714  54.3396263  58.3726349
  74.0391998  54.0459938  57.9989204  74.7212296  54.3381653  59.3181877
  74.3726425  47.4411888  24.6963577  74.9563751  46.8445702  24.2278099
  73.5457840  47.3932915  24.2165260  72.7393646  49.3126030  41.5959549
  73.2225952  50.1366806  41.6560326  73.3805313  48.6823769  41.2673950
  79.2762833  48.4111252  71.1918106  79.4974747  47.7366409  70.5496445
  79.6938095  48.1171379  72.0014267  59.5447769  35.1176033   9.3779488
  59.3528290  34.2539749   9.7433767  60.4691467  35.2629356   9.5795813
   1.9937015  48.3758392   9.7037487   2.6988239  48.4390182  10.3479862
   2.3069236  48.8836670   8.9552593   5.8175516  49.0078392  38.0803947
   6.4783182  48.3248062  38.1947784   5.9886079  49.6277046  38.7894363
  82.8526993  30.4957523  85.2131882  82.7812042  30.1004467  86.0820160
  82.0644302  30.2072277  84.7531738  79.3428192  14.5907612  52.0708351
  79.9881210  14.0504904  51.6148453  79.8558960  15.2979574  52.4617996
  16.1993084  39.1995125  77.7959366  16.4880352  38.9635887  78.6775284
  16.5042210  40.0989876  77.6767349  15.4059992  57.9186020  17.6481686
  15.1958809  58.1562996  16.7450733  15.1294708  57.0055313  17.7260456
  70.1340408  22.7325554  38.8684044  69.4243164  23.0608902  39.4204216
  70.7592468  23.4561539  38.8265228  42.1770668  23.2959061   5.1785202
  42.1460457  24.1521912   4.7518520  43.0823288  23.0054893   5.0671902
  28.3365192  28.3561554  22.8987617  28.4512825  27.6342602  22.2807579
  29.2005310  28.4728661  23.2938480  79.0142975  31.6423244   1.3516573
  79.7710419  32.2236595   1.4266015  78.3661728  32.1540451   0.8676059
  12.5713348   1.2061697  77.5302582  13.0479498   0.8962649  76.7601700
  12.4346447   0.4204367  78.0595703   1.2113650  50.2948227  29.7815895
   1.6779408  51.0151291  29.3576794   0.7369472  50.7083054  30.5028324
  58.4672050  61.6069489  52.1883354  58.4579315  62.4402351  51.7174034
  57.5960884  61.5434418  52.5799408   4.5943255  36.0539131  16.6009731
   4.3027263  35.3040886  17.1195946   4.2927489  35.8626862  15.7128773
  18.8590698  15.5760374  80.0162201  17.9417515  15.8489418  79.9993591
  18.8254814  14.6329803  80.1766815  17.5501328   8.3787727  31.7661095
  17.1935577   8.5912952  30.9036026  17.9430771   7.5129051  31.6561165
  53.1293602  61.2355995  53.5082169  52.3680153  60.9160461  53.0239944
  53.0707626  62.1888885  53.4447021  12.4138212   0.5403298  27.9607143
  12.9686947  -0.1797346  27.6609573  12.3534794   0.4178217  28.9081230
  12.1793909  25.2937527  60.8099709  13.0161619  25.2702408  61.2741814
  12.4161854  25.2194614  59.8855019  59.7723808  17.9362411  78.2666016
  60.6133385  18.2771339  77.9619598  59.8389053  17.9528255  79.2213440
  18.2785816  56.3073311  -0.0158090  17.4395428  56.7467194   0.1226894
  18.7901497  56.5160484   0.7658349  25.0795135  12.1492872  26.6288757
  25.6049118  11.9634857  27.4071217  25.2473049  13.0728512  26.4415073
  75.9219589  38.5134506  83.0942612  74.9712906  38.6058807  83.0316620
  76.1895523  39.1995049  83.7057724  45.1445618  67.2857437  49.1743965
  46.0041084  66.9010010  49.0029716  45.1283875  67.4235077  50.1214943
  75.0640030   9.3874226  77.2391968  74.2259216   9.6195068  76.8392105
  75.5598602  10.2061243  77.2484512  39.1998863  27.0461712  85.4329071
  39.3424873  27.6042881  84.6684418  39.5191536  26.1849155  85.1635742
  60.9470825  39.5374336  69.1688843  61.2200699  40.4399223  69.3338699
  61.0244789  39.1045609  70.0190964  60.7841034  52.7725754  70.0019150
  60.3584023  53.0705872  69.1980515  61.7140808  52.9494591  69.8602066
  34.3886490  32.3409309  81.1974640  34.0480042  33.1933060  81.4688416
  33.7330322  31.7131977  81.5013580  -0.0052711   9.8465910   1.5215580
  -0.0164111  10.1220474   0.6049165   0.7741424   9.2960539   1.5967557
  57.9080276  57.6933708  60.8335724  58.4627151  56.9472160  61.0611839
  57.3168297  57.7889137  61.5802879  24.7803822  48.9248047  25.7810822
  24.5078735  49.4341698  25.0178528  25.1270275  48.1112518  25.4147472
  82.2437668  14.3751001  42.9014702  82.0181656  14.4119616  43.8309708
  82.9547043  15.0083122  42.8022614  25.9384708  48.4161339  79.2193756
  25.6731644  48.3845329  78.3002243  26.0020046  49.3502655  79.4183502
  68.8720856  25.1609001   4.1077986  68.3187943  24.4120960   4.3300419
  68.9374847  25.1354198   3.1531751  73.5029449   5.9837604  67.5741196
  74.3251343   5.5572858  67.8156891  73.5219727   6.0162411  66.6176605
  28.6243973  12.6642599  29.6554718  28.4692554  13.5066490  30.0827217
  29.3635921  12.2865210  30.1320591   9.5794792  68.1475906  38.0893402
  10.1356869  67.8734741  37.3601456   8.7910337  67.6116104  38.0038223
  21.0242558  46.7369156  38.2278633  20.0759869  46.6240425  38.1624565
  21.3167057  46.8361244  37.3218498  19.0994854  23.9006634  17.3498726
  19.8473854  24.4112759  17.6599579  19.4774914  23.2704830  16.7365093
  66.6215286  51.1565323  68.6433182  66.0821152  51.9213448  68.4424820
  66.8796616  50.8141060  67.7875519  55.8664627   1.7617247  10.6958780
  56.7024803   1.3969685  10.9861612  55.2094879   1.1524143  11.0325565
  62.0261078  71.0243988   9.3286943  61.2095985  71.4113235   9.0127239
  62.7016907  71.3924484   8.7591724  57.0118027  32.2075195  27.9999866
  56.7619591  31.4605694  28.5439301  56.5409622  32.9489975  28.3804493
   3.6844501  62.4260521  35.2739906   3.7159040  61.7357101  35.9363098
   3.6350582  63.2387619  35.7772789  76.2988892  40.8033638  87.2752762
  75.5635529  40.2570839  87.5529251  76.6843719  41.1194725  88.0924072
   9.0268507  61.9188728  65.0395660   9.3986759  61.0519791  65.2022552
   8.6147623  62.1621628  65.8685532  63.6295013  56.0267067  39.6106911
  62.9600029  55.4492912  39.9775581  63.8607788  56.6132126  40.3309364
   6.5345573   4.4652634  75.6350250   7.0493474   4.6151309  76.4279709
   6.1004887   5.3021774  75.4695282  13.6901159  19.3513126  37.2409439
  12.8827276  19.3073215  36.7286720  14.2103739  18.6095295  36.9322052
  86.2015076  30.3757744  42.2683105  86.8108826  30.0694675  41.5966949
  86.3470993  29.7881660  43.0097618   2.6803792  24.2332649  33.4532242
   3.3187306  24.2237320  32.7400284   2.0873046  24.9519711  33.2342377
  53.0562897  49.1744576  52.8998375  52.2298889  49.3404541  52.4462547
  53.4227180  48.4087753  52.4574661  68.0495148  63.9729919  37.0253754
  67.9326935  64.7077103  36.4230690  67.8332672  64.3320389  37.8859329
  85.0108948  57.7356796  49.8963394  85.2137070  56.8377724  49.6339226
  85.5331421  58.2809258  49.3079529  74.5123444  26.9175873  75.5663376
  74.9891586  26.0926685  75.4747086  74.4408569  27.0491676  76.5117493
  11.6783209  66.3213272  33.9860497  11.3325920  66.8818359  33.2914047
  12.4656420  65.9295273  33.6080894  23.0812740  10.7463398  25.1007805
  23.8238831  11.0446873  25.6259041  22.6410446  11.5517330  24.8291702
  85.1215515  22.8073330  79.0695877  85.0572281  23.7620029  79.0431061
  85.6948547  22.6264820  79.8144760  17.1327839  44.2330322  -0.0680951
  16.6997433  44.1148796   0.7773325  17.0243950  43.3921051  -0.5123112
  63.1986427  11.2565956  20.6932144  63.2983742  12.1892653  20.5023899
  64.0883026  10.9063549  20.6477623  77.3064957  34.3380432  85.5595398
  78.0055237  34.9880066  85.6312790  77.3971405  33.8009567  86.3466568
  14.8435888   5.0479760  51.3617630  15.7564869   4.8927555  51.1193657
  14.3530331   4.3735399  50.8919525  22.3251457  52.9137001  64.9891968
  22.9184437  52.7710457  64.2517090  22.8227215  53.4641533  65.5938873
  80.3976746  52.5738258  37.8769035  79.5600357  52.6645546  37.4226227
  80.2649078  53.0169868  38.7148857  29.9510021  45.3661919  79.9294510
  30.2352562  45.7013550  79.0791016  30.3370495  44.4919662  79.9835358
  64.1672058  38.4401741  40.4317780  64.5859375  37.5801468  40.3964767
  64.8867340  39.0616264  40.3208275  41.4320717  48.3914909  73.8681412
  41.0678329  47.5811577  74.2244110  42.3799019  48.2820778  73.9448166
  20.9640903  45.2889748  77.4628906  21.0825424  45.6125069  78.3559341
  20.1408253  44.8015099  77.4919739  13.8832331  48.0177002  53.2047539
  13.4315786  48.5117073  52.5205040  13.5531788  47.1239624  53.1124191
  43.5755272   0.6095767  43.2368011  43.1721344   1.4415787  42.9892540
  42.8494072   0.0799833  43.5662193  74.5591431  11.9437342  51.5625229
  74.4853973  10.9999990  51.7045021  73.8401489  12.1531582  50.9663467
  50.7681618  61.5416451  46.2973251  50.3471260  62.3610802  46.5571175
  51.6812172  61.6461487  46.5649796  78.7446823  18.1137257  63.2561607
  78.3634415  17.3467274  63.6834755  79.4039688  17.7542248  62.6625786
  58.2802086  54.2979546  73.5574799  58.3576202  55.0676003  74.1212921
  57.4264565  54.3949585  73.1356583   8.2849360  50.8858948   7.7729034
   9.1995506  50.6087074   7.8265696   7.9681277  50.5087357   6.9521623
  78.1386108  42.4655876  64.7037048  77.6279602  41.6693039  64.8500061
  77.9078217  42.7383499  63.8156929  86.6996841  53.2156715  73.6420898
  86.2708435  53.5528564  72.8555527  86.4899445  52.2817459  73.6475525
  64.6640167  48.0039864  83.9839554  64.2574081  47.6482048  83.1938171
  65.1889801  47.2818375  84.3291321  62.7523804  49.1642113  63.8955612
  62.8211327  48.6612968  63.0840340  62.7757988  50.0785828  63.6134033
  25.8177071   4.3231893   4.0742588  26.6103077   4.0555644   4.5394411
  26.1350460   4.6712337   3.2409563  60.3193932  54.7004433  35.0036697
  60.4572067  54.2762985  34.1567116  60.6154099  54.0551338  35.6456833
  69.9084854  11.2854099  62.4613686  70.5333405  11.7337065  63.0312920
  70.3460922  10.4684706  62.2219086  59.7151337  65.6768951  38.4106636
  60.0274048  65.2327576  37.6223335  59.3858986  64.9719391  38.9682274
  52.7061005  47.7548599  13.9447756  52.7125664  48.1962433  13.0954409
  52.0323448  47.0803719  13.8590565  50.3093033  49.6169739  13.0248137
  51.0766296  49.1432762  13.3458376  50.5665703  49.9299774  12.1575909
  46.9418526  38.0736237  78.8137283  47.2996025  37.5638657  78.0868225
  46.2415886  38.5938110  78.4196930   4.1981468  18.2079124  81.3760986
   3.6001329  17.4786167  81.5396194   4.6669526  18.3231831  82.2026367
   4.3801417  59.3265800  45.2314682   4.0393295  58.4389229  45.1212730
   3.6038423  59.8860130  45.2064857  71.5273666  43.5051994  14.7746210
  71.1101913  44.2752838  15.1608381  70.8983002  42.7971840  14.9132519
  10.4694576  70.5932999  35.5770340  11.1197519  69.8952713  35.6551323
   9.6421833  70.1783752  35.8213463  22.9071217  69.6771088  15.9567165
  23.3243771  69.6909256  16.8180752  23.6357651  69.7128830  15.3370152
   2.2115340  26.7686768  60.1468124   2.6293168  25.9416428  60.3870277
   2.9407458  27.3607349  59.9625587  83.0713425  24.7754917  41.0959549
  82.9110718  24.5118732  42.0020752  83.1266327  23.9510002  40.6128502
  70.6894913  56.3333092  25.9990673  69.9092102  56.3452606  25.4447689
  71.3166351  55.7932205  25.5182037  46.0785942  39.4257698  17.7872009
  46.2326279  38.9484825  16.9719086  45.2585678  39.8964195  17.6379471
  -0.2041495  64.1060486  52.3308411  -0.1039007  63.4012375  52.9707031
   0.3268550  64.8225327  52.6785660  51.4084854  16.9743195  32.3797340
  50.4826736  17.0734119  32.6017380  51.7985725  17.8213139  32.5957489
  34.4429436  33.4404411   3.8936374  35.0577354  32.7934341   3.5477374
  34.3089142  33.1802063   4.8049803  70.2596054  66.6217422  75.5065308
  70.9186478  65.9293518  75.5564117  70.0835953  66.8510666  76.4190369
  12.3773994  13.6173801  28.8725243  12.6239653  14.4962797  28.5844765
  13.0670786  13.0501003  28.5278950  36.6910133  41.0355110  16.5836887
  37.3158226  41.5312881  16.0544930  35.8354988  41.2618141  16.2188339
  15.8245163  57.3600235  58.7437515  15.5886478  58.1462746  58.2514038
  16.2987823  56.8166389  58.1144371  54.3359070  29.7284870  13.1861353
  54.8105927  30.3578682  12.6431971  54.8275719  29.7014980  14.0069685
  34.9638519   4.9598527  19.8546066  34.5061493   5.7097578  19.4746323
  34.2739716   4.4454331  20.2737312  25.1435890  64.3925323  33.6623001
  25.9282341  64.7429352  33.2406616  24.8259888  63.7218857  33.0576553
  41.6986198   3.2196894  11.7263250  41.9995804   3.9856884  11.2375498
  42.2643547   2.5076184  11.4277802   7.2173424  17.8710747   2.3081703
   7.5941072  18.7286072   2.5054426   7.8070130  17.4949875   1.6546576
  27.7591267  26.7343998  18.1355152  28.5883923  27.2031288  18.0414639
  27.1385708  27.2373314  17.6080666   2.9054732  46.1614723   1.9849646
   3.3848050  45.5910950   2.5859149   1.9952422  45.8741531   2.0567849
  57.5766029   1.3070879  46.5277405  57.2126045   1.9180291  47.1684341
  56.9059677   0.6305528  46.4340172  64.8714752  26.2108250   7.2350473
  65.1469650  26.3463573   6.3284235  65.1326141  25.3114243   7.4328208
  63.1315422  23.9947338  34.7567825  62.5604095  24.7489300  34.9024696
  63.5716209  24.1840878  33.9281044  16.3260117   0.5756752   8.1627197
  15.5948687   1.1915109   8.2117939  16.4526863   0.4284823   7.2254262
  85.5788193  68.7121277  50.6916695  85.7462387  69.3705063  51.3660126
  86.4469223  68.4831924  50.3596840  14.8490181   9.3001404  54.3181076
  15.1277199   9.7689724  53.5315018  14.5510969   8.4491243  53.9967880
  85.7090988  25.5570412  53.4604378  86.5676727  25.1893940  53.6699829
  85.0918808  25.0261345  53.9638367  68.8016815  40.4797668  11.2757149
  69.4842300  39.8110733  11.3323584  68.0473328  40.0900726  11.7176752
  68.1653442  11.5211477  87.3598175  67.5073853  11.7737532  86.7121201
  68.4816971  10.6689224  87.0600357  29.8376007  42.7819519  73.1084900
  29.7324200  42.8886490  72.1630936  30.2714901  41.9344521  73.2070694
   2.4987605  39.9318581  68.2506866   2.6435390  39.3754654  67.4853821
   3.3018022  39.8461227  68.7645035  54.3727798  23.1054916  24.1264858
  54.3351822  23.9602699  23.6973305  54.5282440  22.4861202  23.4134369
  53.1095352  24.3972759  83.7231903  53.7826920  23.7574711  83.9550171
  52.4560471  23.8925953  83.2389603   2.0902500  62.0202827  10.2056808
   2.7471294  61.8437881  10.8791733   1.2522501  61.8705521  10.6433678
  43.8924789   2.3292515  81.0586395  43.6163940   1.7349162  81.7563324
  43.0966568   2.8046324  80.8200836  81.7005997   8.5386009  11.0848808
  81.3367844   8.9963675  10.3270416  82.0531540   7.7241755  10.7262030
  39.6246147  34.1198959  20.3826046  39.9143257  35.0317421  20.3537350
  40.4284706  33.6099091  20.2827911  10.2108994  43.0656967  12.7895250
   9.7033482  43.3951035  13.5312223  10.6532402  42.2875481  13.1287165
   3.8661406  45.1977234  11.9766378   4.5013962  44.5226479  12.2152929
   3.1579194  44.7187347  11.5462599  67.3585892  16.6733341  41.3082237
  67.3552094  16.6432247  40.3515015  67.8627777  17.4585724  41.5213585
  82.8623199  68.2322845  58.2818947  81.9483948  68.0853958  58.5256042
  82.8677139  68.1743393  57.3264656  42.9250755  33.3469582  36.6785126
  43.0965424  32.9082832  35.8452072  43.7476425  33.2721519  37.1622696
  24.4679871   8.2885180  84.7180710  23.5419006   8.1974325  84.4937973
  24.5090179   8.0867157  85.6528549  11.4270153  55.1023445  57.8906860
  11.7039509  56.0089340  57.7578773  12.2448025  54.6113739  57.9706993
  36.4772949  47.7661362  21.6820850  35.5680733  47.4699745  21.7249184
  36.4341011  48.7015495  21.8804932  56.6719933  63.4479485  16.2814102
  56.8215141  62.5481796  15.9910793  56.9383965  63.4503555  17.2007885
  80.8656921  62.5094490  73.5324097  80.8028793  61.5968933  73.8144073
  81.1558914  62.9818344  74.3127060  16.4319344  37.1408730  28.8234177
  16.1557961  36.6745453  28.0344200  16.7469578  36.4532928  29.4101238
  73.2932816  52.6133575  73.1177902  72.6906128  53.3143005  72.8694153
  73.9653015  52.6225700  72.4362183   7.6672349  12.3054123  52.8108406
   7.2166648  11.7225637  53.4219933   8.0849514  11.7166986  52.1822243
  72.3166733  28.7664909   9.1440639  72.2787018  28.4891968  10.0594311
  73.2455368  28.7190857   8.9177771  77.9278793   6.8472085  23.6020660
  78.2350388   6.2973309  24.3228416  77.0848541   7.1868620  23.9023685
  71.4531326  33.4967651  75.5163727  71.1894150  34.4145660  75.5821457
  71.8986282  33.4355316  74.6713791  83.3677444  36.5413322  52.2872620
  83.9807205  36.2736511  52.9719849  83.8835220  36.5171738  51.4812698
   1.9915720  22.2247429   2.0682437   1.6514636  22.9022846   2.6526198
   1.7783889  22.5376167   1.1890994  65.2132950  52.2372971  79.7564926
  65.0033951  51.5286217  80.3647308  65.4192505  51.7936325  78.9337082
  34.6674576  59.5620193  26.7734013  34.5839958  58.6084671  26.7752190
  33.7784271  59.8805618  26.9295692  31.6702557   4.9826498  12.1834269
  32.3968506   5.5265822  12.4874487  31.8744297   4.8011885  11.2660294
  11.5566387  43.4429054   8.5345325  11.3827620  43.0333862   7.6870098
  11.9776812  44.2745056   8.3168354  52.5120468   0.0142647  74.0318146
  52.4238853  -0.3124203  73.1364212  52.8916206   0.8872967  73.9319611
   6.9726381  62.4075089  15.3463068   7.3776250  63.2465706  15.1267796
   7.2237353  61.8254356  14.6291094  83.7418289  40.3202477  51.0976219
  84.6404343  40.5231705  50.8376884  83.7410355  40.4141579  52.0502014
  63.1431046  15.9669075  81.9011078  63.1124573  15.9450798  80.9446487
  62.9379196  15.0708103  82.1678314  48.7037582  71.1748123  23.9764366
  49.5070457  71.0045853  23.4845181  48.7198830  72.1173325  24.1426640
  86.4083023  64.6756210  49.2999878  85.4699249  64.6873093  49.1114769
  86.5222092  63.9415359  49.9036255  41.5445023  24.1065979   8.5237904
  41.7252998  23.7873631   7.6396909  42.3768692  24.0130825   8.9870930
   3.9752645  30.1310863  80.5037384   4.5314951  29.4728069  80.0871964
   3.8280158  30.7864532  79.8217926   8.0588770  12.2520027  73.9683456
   7.3787422  12.1094170  74.6266098   7.7685885  13.0274611  73.4881058
  73.0706940  26.5715599  65.2316971  73.4753799  27.3826218  65.5393295
  72.4391327  26.8547916  64.5705261  20.7661438  17.0175877  75.6588593
  19.8596783  16.7196522  75.7349167  21.1808052  16.3777542  75.0801544
  73.7130890  46.6317520  45.3936310  74.5112305  46.9547501  44.9754562
  73.8598557  46.7706261  46.3292618  79.4618301   0.6133343   1.5074768
  80.3456268   0.3859112   1.2186623  79.1157455   1.1661798   0.8068926
  26.1188030  13.6460180  87.3205109  25.3902760  13.2254114  86.8638153
  26.5461521  12.9339895  87.7965546  70.2219238  38.3426590  23.2283173
  70.8130188  38.0953407  23.9394226  69.5109406  38.8152008  23.6612606
  72.7240601  16.6257706   5.0932546  72.3374252  17.4625072   4.8351560
  72.8633957  16.1615524   4.2678342  62.5753822  46.2177658  63.2193871
  62.4279671  45.4088707  63.7094765  63.4805069  46.4570160  63.4187355
  78.8101044  49.6925774  77.0287933  78.9864044  50.0664825  76.1654587
  78.3238678  50.3754692  77.4908142  54.3276443  71.4673996  12.0953770
  53.5402908  71.5981750  12.6237745  54.0256348  70.9719620  11.3340912
   9.3858633  19.2274494  79.4543533  10.2844229  19.4869175  79.6580658
   9.3379335  19.2600002  78.4989014  31.3635941   4.3087373  16.5627365
  31.6489658   5.0974612  17.0239410  32.0481377   4.1505156  15.9126616
   4.2679248   1.6653869  35.4038391   4.7135134   2.4324718  35.0443039
   4.5154009   0.9488409  34.8194160  48.8751717  69.3570175  12.1894608
  49.2966042  68.9826126  11.4158669  49.4326706  69.0881882  12.9196367
   2.6735284  47.9556351  69.5337448   2.4279737  48.7972145  69.1494522
   1.8424572  47.5621948  69.7997437  47.8412437   2.5334656   9.5145140
  47.1709862   3.1137168   9.8754797  48.0309868   1.9173670  10.2220812
  14.6583223  58.5031586  69.8862762  15.0396700  57.7785339  69.3905716
  14.7886982  58.2609673  70.8031082  80.8963242  62.3122940  85.9734726
  80.4419632  62.4508324  85.1424561  80.5454483  62.9878159  86.5538101
  18.7403603  26.6272316  15.2289200  18.8314209  27.5488987  14.9871140
  19.6398945  26.3061256  15.2918625  11.0342703  42.5463715  45.7504883
  11.9701347  42.3741226  45.6469536  10.9135647  43.4301987  45.4033394
  66.5700302  33.9436569  59.3689003  67.1383514  34.6962852  59.2051964
  66.0368576  33.8694992  58.5774117  30.7996292   5.9514437   7.5218782
  30.9301090   6.1003885   6.5853834  30.3414192   6.7343578   7.8273630
  86.1458817  55.5094376  65.0912094  86.5659943  55.7356224  64.2613983
  85.3970337  54.9683342  64.8408661  81.1493835  28.5712223  26.1427593
  80.5467300  27.9309502  25.7644806  81.2772293  29.2186108  25.4493809
  85.8058548  57.3813858  71.2431412  85.4751053  58.2520905  71.0224380
  85.2820892  57.1102295  71.9970551   1.8900310  34.1030922  72.0647659
   2.1071696  35.0264053  72.1935272   2.7311893  33.6815071  71.8888474
  29.4520721  69.0018311  17.2833004  29.3475933  68.4525833  18.0602436
  30.3369713  69.3587265  17.3595219  53.7754822   4.5973129  63.8752861
  54.4652138   4.6984520  63.2193336  53.0687981   4.1473064  63.4123344
  58.3981171  28.5037556  85.1163483  57.7351265  28.6326218  85.7946320
  58.5966911  29.3867416  84.8046875  84.5934219   9.5153408  42.1682472
  84.7785187  10.3934393  42.5012856  84.5999451   9.6139736  41.2161636
   3.0338972  36.1123848  77.8880463   3.3958209  35.4075623  78.4251404
   2.7198389  35.6738319  77.0973129  70.0799408  67.9578018  39.9390831
  70.0603638  67.9330368  38.9824028  70.9230347  68.3584061  40.1511002
  68.8221664  61.6325417  34.6647339  68.8136978  62.5851173  34.7583313
  68.8942490  61.4851646  33.7216988  57.2494469  57.8092613  70.1499939
  56.3777008  57.4207687  70.2231903  57.3730659  58.2775459  70.9756241
  82.4069519  68.6955719  65.8340454  83.1410675  69.1437454  65.4139862
  82.6609116  68.6309204  66.7546768   8.3744049  13.1076479  57.9171257
   9.1247807  13.2314243  57.3358765   8.5415049  13.6968555  58.6527481
  76.3417892  38.1581306  50.1097832  76.5802002  37.3329887  49.6872597
  76.8090897  38.1432991  50.9450302  42.4474869  16.5291939  16.3732986
  42.0638618  17.1119347  17.0286407  41.7494698  16.3978958  15.7316093
  64.9677658  51.2999039  46.9203415  64.8983536  51.8156090  46.1169357
  64.5758438  50.4555168  46.6975517  63.2656975  49.9983063  12.2581844
  63.5286789  49.6084137  11.4244843  64.0898285  50.1608391  12.7171249
  16.7593803   6.3334751  34.8204613  17.3467560   6.9573135  35.2471313
  16.2105103   6.8723950  34.2507782  55.9637299  16.3666515  37.7829742
  56.0041313  15.7264118  37.0725555  55.1883240  16.8927326  37.5874786
  38.1065521  66.2681046   5.5003519  37.3275299  65.9192429   5.9335403
  37.8832474  66.2681351   4.5695634  84.6104889   9.3211517  25.2681770
  85.5252380   9.5988693  25.3165569  84.6187592   8.4147921  25.5758705
  70.9017105  57.3621979  61.0848198  71.7382507  57.8265610  61.1132393
  71.0953827  56.4974518  61.4466743  70.2462540  25.5900707  29.4561272
  69.6046371  25.6568470  28.7489510  69.9924774  24.8017654  29.9361324
   0.5691598  29.5944958  28.5594769   0.2310248  29.9706440  27.7468224
   1.1629368  28.9004173  28.2732658  56.6608009  69.3735886  76.7872925
  57.4088936  69.8863525  76.4812393  56.0392113  69.3991470  76.0598297
  86.3699722  24.8257732  58.3745155  87.2599106  24.5470276  58.1587601
  86.3913498  24.9862690  59.3179207  58.0456810  22.6646709  32.8027344
  57.2973824  22.0692101  32.7613754  57.8615379  23.3273296  32.1369972
   8.2095823   5.6141381  56.5373840   7.4509459   5.8410769  57.0751610
   8.4018183   4.7047410  56.7660217   8.9997873  31.3954945  16.2181492
   8.9029655  32.2274666  15.7548151   8.3984213  31.4629745  16.9597931
  82.0619659  29.4778652  13.6141615  82.9466476  29.6770096  13.9206057
  82.1050644  29.5954628  12.6651907  36.6355476  61.3173866  83.4312897
  37.1587334  60.8689728  82.7668915  36.9905052  61.0080032  84.2646713
  50.9947166  41.4496956  31.0290260  50.0738983  41.4058876  30.7713261
  51.2764397  42.3250237  30.7631969  50.1252975  59.8408394  59.5565948
  49.4036903  59.2400894  59.3705215  50.5617180  59.9595375  58.7129822
  64.4565277  32.8261032  33.2870979  63.7817726  33.4927177  33.4157753
  65.2642517  33.3240700  33.1612320  78.6455688   1.8433832  88.3356628
  78.9302063   2.1439469  87.4726028  78.5033188   2.6478233  88.8345337
  79.1630096   2.8684659  35.7193527  79.6513748   2.3596425  35.0721779
  79.2312698   2.3581798  36.5263100   4.0980253   2.0504596  84.3641586
   4.5543890   1.4920269  83.7347794   4.7913637   2.3894982  84.9303436
  51.7891884  47.9284630  84.1771851  52.1719856  48.8037834  84.2364960
  51.1858635  47.9806213  83.4358978  44.6963768  44.5047150  62.7784462
  45.3355064  44.3138962  62.0919075  45.1627388  44.3284073  63.5955467
  24.4982681   6.1312175  52.2971001  25.3836460   6.2099581  52.6522598
  24.4248142   6.8544245  51.6743584   5.7466016  45.4138298  77.5589752
   4.9124870  45.3554535  78.0248871   5.7509747  44.6521301  76.9793015
  61.1255531  48.7834854  43.5215416  61.7757988  49.4859085  43.5253410
  60.3015900  49.2186737  43.7404518  72.2006149  61.8145828  16.4057426
  72.4310532  62.2016411  15.5611629  72.1803818  62.5556259  17.0112801
  58.3409920  66.0442123  76.2358322  57.6120415  65.8719482  75.6398544
  59.1164818  65.7530975  75.7561493  76.4686050  52.3359375  43.0451546
  75.8600235  51.6349907  42.8116341  76.5852585  52.8317299  42.2347107
  67.0203476  24.0256252  32.4057770  66.1529541  24.0499134  32.8098412
  67.2424545  24.9452000  32.2598953  72.2872009  22.5180874  54.6376877
  72.4918137  22.7643852  55.5397415  71.3892059  22.8215179  54.5043755
  12.7295256  42.5134468  29.7787609  12.9147205  43.4121132  30.0514011
  13.1028042  42.4480820  28.8997707  37.7974701  39.4699821  77.6308670
  37.3862305  38.8179665  77.0634232  38.6263237  39.6752663  77.1983185
  50.5279999  71.0497437   7.5338736  50.2761993  71.9732285   7.5381064
  50.5421028  70.8095779   6.6073999  19.3659286  29.5615368  14.2530174
  19.4444847  30.4232807  13.8438025  18.6902065  29.1148911  13.7429781
  56.0056229   1.4128437  21.2522259  55.3731537   1.4334317  21.9704132
  56.5064850   0.6101116  21.3970985  67.7269669  59.0404167  80.0607147
  66.9796982  58.4443245  80.1106720  68.2749939  58.6795998  79.3637924
  46.1859474   3.1991158  85.2864838  45.3691063   2.8799798  85.6700974
  46.2506027   4.1072497  85.5820312  76.8429260  54.0918427  40.5839462
  75.9346085  53.8948479  40.3550797  76.7915039  54.9002457  41.0939178
  46.1740990  22.7809467  60.8787384  46.0564117  23.5232258  60.2859497
  47.0886955  22.8379631  61.1553078  76.9798431  59.0989418  41.6372375
  76.8622360  59.4067116  42.5359459  77.4022369  59.8303986  41.1869202
  58.4422188  46.2775383  12.8440399  59.0299110  45.8552094  12.2175531
  59.0191078  46.8082237  13.3934059   4.8864441  62.3069496  68.3093796
   4.8589187  61.4101028  67.9759979   3.9679830  62.5411758  68.4427872
  62.3634796   4.9480906  70.0228424  61.9878807   4.6316757  70.8444519
  63.2303009   5.2736630  70.2654572  30.8122139  21.7484436  89.3287201
  30.3645191  21.9252224  88.5013504  31.7414532  21.7325611  89.0996094
  46.1944542   3.9694231  75.5120697  46.0097580   3.6482077  76.3946457
  47.1272964   4.1835561  75.5254517  53.3160019  63.6684647  12.1319990
  54.1854515  64.0625992  12.0616341  53.4684334  62.8274536  12.5629253
   8.3722515  60.5021629   1.8230332   8.3083973  59.7709122   1.2086806
   9.1259441  60.2879486   2.3728437  54.7247467  33.1324348  21.9840908
  53.9447594  33.4278908  22.4537277  54.5951843  33.4403000  21.0870590
  47.7677841  47.7604332  80.3162308  46.9632568  47.2650566  80.4697495
  47.5282440  48.6689491  80.4991150  21.7211075  28.5473633  56.1071281
  21.6306610  28.5191345  57.0596275  21.5610580  29.4629421  55.8783722
  37.2778816   5.5087056   2.8478241  37.8555908   5.9206200   3.4903274
  36.4039040   5.5788875   3.2318444  12.3663092  41.7385406  64.5669556
  13.1661100  41.2968559  64.8523788  12.2166710  41.4130440  63.6793251
  14.7393665  65.3062057   8.9009724  15.3144264  66.0691910   8.9592085
  15.0096636  64.7464523   9.6288748   7.2985873  43.9303093   3.5195186
   6.4254532  43.9054604   3.1280458   7.8303461  44.4151764   2.8883517
  82.5475082  60.1974030   0.3769369  81.9019623  59.5336037   0.1342992
  83.3026352  60.0125389  -0.1814918   0.7534881  41.3936081  47.5115623
   1.1895568  41.1003380  48.3116035   0.1066933  40.7123413  47.3278122
  40.7448578  65.8839264  71.4515533  40.3552399  66.6311035  70.9975052
  41.3560944  66.2751236  72.0757294   3.2021008  60.4235725  37.3091469
   3.2415860  60.9757767  38.0900078   2.5442171  59.7603416  37.5178375
  16.5768013  48.4628601  56.2849998  15.6669121  48.2313461  56.0986290
  16.8069859  49.0959167  55.6049385  79.5887222  10.1683617  83.4162216
  79.6946335   9.4376688  84.0253983  79.0167694  10.7827473  83.8762512
  25.8942833  38.2270966  73.4907990  26.0815849  38.8476410  72.7864685
  26.5706940  38.3974762  74.1462936  85.9297638   9.8290043  14.1670074
  86.0260620  10.7565928  14.3827372  86.3455429   9.3690777  14.8962727
  14.4094267  14.0795908  73.4987946  14.8672228  13.5780210  72.8241959
  13.8283577  14.6629152  73.0106125  60.5619659   0.5154937  45.4560432
  59.8652687  -0.0132348  45.8450012  61.3451958   0.2844209  45.9554291
  80.3113327  60.9251099  12.6397400  80.1582489  60.2884331  13.3379078
  79.4455948  61.2879486  12.4524269   4.4076629  48.8152122  49.4108276
   4.3979383  49.6522598  49.8750381   4.0204415  49.0101089  48.5574150
  77.0918503  61.5472183  73.0342941  77.6569901  61.7404671  72.2863007
  77.3782425  60.6845474  73.3343048  66.8334732   0.9910364  34.4050903
  66.5291138   0.6590500  35.2497139  66.0312347   1.1609880  33.9113731
  35.2288704  29.6631985  88.0916214  35.7762756  29.6996002  88.8760071
  35.6319427  30.2882252  87.4890366  21.6510563  18.8445930  82.5880585
  22.2661610  18.1127377  82.6356430  21.0644531  18.6179085  81.8664322
  74.7382965  11.9850636  24.6459026  73.8572693  12.0981112  24.2891941
  75.2748108  11.7497587  23.8889198  80.6226578  29.2943783  42.3479729
  79.8325500  29.8338795  42.3180389  81.2542953  29.7642593  41.8034706
  57.6560287  60.7489624  32.8552017  58.3552246  60.2042770  33.2166824
  56.8501549  60.2822266  33.0764542  75.9369583  37.8653145  61.0013733
  76.7083664  37.3780708  60.7119637  76.1068954  38.0570755  61.9236412
   9.7733831  42.3210983  34.4214821  10.2359304  41.4874420  34.3360786
   8.9408321  42.1803627  33.9706116  53.0563011  60.7518196  30.6760006
  53.8320122  60.5587196  31.2025127  52.6104317  61.4511147  31.1539345
  47.1409073  23.6597214   7.4993281  47.0201492  22.9436340   8.1229210
  47.3071251  24.4277802   8.0458517  82.0785217   7.3988442   8.2051811
  81.1598053   7.2550263   7.9782362  82.3535919   6.5812201   8.6199799
  15.4755850   7.7086973  14.4060736  15.4472036   8.6434660  14.6101170
  16.3938103   7.5368819  14.1973324  68.7356491   5.2525020  49.3741035
  68.4462128   5.2622719  48.4617615  69.1796951   6.0920229  49.4935112
  71.3246918  36.4574699  70.6768188  71.9336166  37.1071777  70.3256454
  70.9580612  36.0298996  69.9028702   4.3473411  69.4573441   6.3218327
   3.9059944  69.5259857   7.1684332   5.2313919  69.7859421   6.4852581
  31.8802567  69.6778412  41.8396530  30.9287281  69.6259766  41.9298668
  32.1242981  68.8616409  41.4031868  56.1553993  38.6409264  88.6884537
  56.5938568  39.0698051  87.9535675  56.8110886  38.0387993  89.0402222
  42.5073204  34.3224258  83.1420135  41.8431320  34.3711205  82.4544754
  42.6182747  35.2277451  83.4323959  55.7435532  55.2130737  16.2724190
  56.6338959  55.3990669  15.9742031  55.3219795  54.7948227  15.5217037
   1.5240026  32.5603981  13.6479740   1.7773715  31.6440029  13.5372772
   0.8926175  32.7207260  12.9466333  31.1753540  39.6145821  31.6301956
  30.5839233  40.2168427  32.0815582  32.0191422  39.7363472  32.0654297
  44.3171654  37.0525932  62.0067635  43.4139862  37.2394600  62.2628403
  44.6968460  36.6159325  62.7692604  85.3717804  68.0499573  34.1735306
  85.3097763  68.1383133  35.1246223  86.2789688  67.7884521  34.0159111
  44.5992928  69.6864090  54.1059418  44.3430405  70.1938019  54.8760796
  44.7050629  68.7927704  54.4322090  18.0366096  49.6075439   7.2465873
  18.6005116  50.2047691   7.7380853  17.2359600  50.1082993   7.0902600
  27.0232201   4.6389556   1.6003243  27.1891899   4.1727843   0.7809524
  27.8942680   4.8211508   1.9529040  72.5423279  32.8692665  13.1030283
  72.3337173  32.0537987  13.5587997  73.3968201  33.1256866  13.4498997
  21.1466331  25.7542286  15.0715609  21.4576492  25.7626972  15.9767847
  21.4111881  24.8979321  14.7354116  10.4762106  54.6654739  30.1542606
  10.2691736  53.9253349  29.5836792   9.7488794  55.2750587  30.0292454
  76.8704529  12.6518898   6.7992463  76.3548965  11.9004335   7.0920782
  76.3082886  13.4081650   6.9673405  47.6035919   0.1068405  46.0707855
  46.9011803  -0.5329179  45.9543533  47.1534843   0.9140589  46.3198471
  80.5327835  30.4120560  15.9911251  80.8772812  30.2765865  15.1083994
  81.1383972  29.9369431  16.5601044  32.7321472  16.5644474  25.0146790
  33.5878372  16.9739914  25.1423397  32.2925568  17.1229744  24.3735542
  61.4069176  34.1569710  27.6887360  61.0378151  33.2918777  27.8665161
  62.3535423  34.0318565  27.7556953  51.6914558  67.2374344  70.9541550
  50.9325027  67.7071457  71.2999802  51.6200371  67.3331909  70.0044327
  56.1895218  71.6124878  31.0325031  56.1495934  70.6638031  30.9115181
  56.2620277  71.7303085  31.9796543  70.9507675  49.2920227  66.3254700
  71.8152466  49.0819817  65.9722137  70.4551392  48.4769745  66.2461929
  38.1568260  68.7285843   0.8062977  38.2763824  68.0486069   0.1433019
  37.4394112  69.2663803   0.4711455  45.0043869  60.2270813  70.7843399
  45.3665085  61.1057930  70.8982010  44.2629890  60.1933823  71.3888474
   3.5566771  70.3064575  35.8614998   4.0255327  70.5327606  35.0582619
   2.6996465  70.7213516  35.7635574  28.3714123  46.0275650  49.5020828
  28.3423443  46.9838448  49.4718323  29.0380211  45.7877235  48.8583908
   4.6720824  71.0571594  13.8550787   3.9957399  71.4379959  13.2949409
   5.4080572  71.6656494  13.7894297   1.1327826  29.3477306  84.8570633
   0.1996815  29.5312157  84.9660873   1.5423859  29.7161274  85.6398392
  20.8090725  49.0037575  80.3564911  20.0520058  48.9133530  80.9352036
  21.3894711  49.6116524  80.8145676  37.0044746  69.7553329  63.4516830
  36.1631737  69.3622208  63.6838531  37.1023636  69.5766602  62.5164146
  55.4089966  60.5249519  35.6664543  55.6048698  61.3174820  36.1662178
  55.4568062  59.8180237  36.3100395  84.3091660  53.0028915  31.3573971
  83.8935394  53.2309914  32.1889381  85.0829849  53.5646629  31.3143673
  73.7382965  30.3187561  50.3086967  74.6644211  30.5297508  50.1903610
  73.7393723  29.5381680  50.8626938  59.0743141   6.5240417  11.0443087
  58.6582336   5.7253695  10.7199144  58.5619850   6.7644477  11.8162899
  23.5596256  34.6382637  82.3696518  23.6292191  33.9645233  83.0460052
  23.4457512  35.4548798  82.8558655  58.2457123  10.3429317  63.3906097
  58.0791435  11.1674490  63.8474045  59.1333961  10.0989637  63.6527824
  18.5251446   2.8883719  64.5340652  18.1827869   3.7749641  64.6479797
  18.0437164   2.3618844  65.1722412  24.6840096  50.6429520  73.5601501
  24.6777248  51.3333321  74.2231522  24.0688248  49.9881630  73.8903503
  66.5466080  45.2299500  42.6221657  67.3179855  44.7496147  42.9229813
  65.9222717  45.1566696  43.3440132  26.0145340   9.0044460   2.3627405
  25.2440338   8.4562035   2.5110323  25.6608677   9.8841953   2.2316158
  22.8920040  58.8134270  78.7078400  22.7080994  59.6363258  79.1608887
  22.6897354  58.9949226  77.7900314  70.1485748  16.4471836  67.3106308
  71.0990448  16.5602207  67.3175888  69.9071198  16.5061626  66.3862610
  77.1655273   9.9880686  24.8831177  76.3538818  10.3800039  24.5608654
  77.8411179  10.3127022  24.2877846  84.8643799  36.3083267  58.4609985
  84.8949051  36.5073891  59.3967705  85.1795807  35.4067459  58.3975029
  83.6941528  40.2040977  43.6750870  84.0779190  41.0784531  43.7418785
  84.1543427  39.6892700  44.3379631  14.2252598   2.2234185  65.2896042
  13.3830881   1.7684861  65.2934723  13.9989996   3.1451602  65.1653824
  54.9601021  34.2736359  64.2373581  55.8283157  34.1696281  64.6267395
  54.3586769  34.2429390  64.9813843   0.5560478   7.5121226  51.0973511
  -0.2472468   7.0003533  51.1924400   0.4792502   7.9204211  50.2350159
  47.0787468  42.2472687  21.6727905  47.9937057  42.2242279  21.9530621
  47.1111755  42.0639877  20.7338619  75.1595459  31.7970619  87.2235031
  74.7516098  30.9878922  86.9151840  74.6480560  32.4945145  86.8134155
  55.4130287  24.2224407  71.5352173  54.6175728  24.2120457  71.0028915
  55.9000854  23.4481831  71.2532043  11.0865564  29.5336800  76.1337433
  11.4534607  28.6779690  75.9115448  10.2120953  29.5277290  75.7444992
  35.7370796  16.4025955  21.3794327  35.6349983  17.2840290  21.0204258
  36.0093307  15.8697300  20.6323280  84.4840393  60.1823845  67.5998535
  84.6162109  59.2454071  67.4555054  84.6435165  60.5813293  66.7444916
  71.2667847  25.4301758  61.9185944  71.4071274  25.4228306  60.9717674
  70.3426666  25.2047424  62.0255013  63.6546021  61.6263008  69.3249054
  64.5287094  61.5238304  69.7012939  63.0688133  61.6463432  70.0816650
   5.6189551  54.2505951  54.8268051   5.6234388  55.1320992  55.1998520
   4.6916461  54.0464973  54.7056694  68.1136475  33.7366982  78.9563828
  68.2999725  34.6001968  78.5877609  67.1599731  33.6622276  78.9218292
  83.4779587  20.0656052  58.3404846  83.6762848  20.9733391  58.5705261
  83.4412766  19.6081734  59.1805077  62.0056038  61.4348068  34.3769798
  62.6921272  60.8882751  33.9946022  62.3530922  62.3253365  34.3275986
   7.7217369  59.4897461  77.2270737   7.5274596  59.8571281  76.3647995
   7.4652233  58.5700798  77.1589127  86.8200378  25.2324753  39.5225372
  87.2047577  25.2329903  38.6460571  85.9058151  25.4793549  39.3829613
   8.7708206  53.4790306  14.9091005   8.0505152  53.8323326  14.3870182
   9.5241690  54.0215836  14.6760054  65.7603455  12.5282850  40.7702217
  65.4300919  13.3455048  40.3969688  65.1361542  12.3118696  41.4628868
   6.5729413  37.4175301  66.3272781   7.2659311  37.5210190  65.6751404
   7.0139403  37.5435066  67.1674423  -0.0482660  22.5114193  40.2573090
   0.5970885  22.2040310  39.6207085  -0.0915008  23.4572773  40.1168976
  35.5891190   4.7139878  42.5071068  35.4079018   5.3995109  41.8641052
  34.7274475   4.3636732  42.7330170  78.5621719  48.8168983  80.8717728
  79.3130264  49.3314171  80.5755997  78.6992569  48.7133255  81.8134308
  38.7530785  11.3500395  12.3930197  39.6240387  11.1621065  12.7427893
  38.6314087  12.2873688  12.5441580  10.5142088  23.8462677   2.6365395
  10.4063702  23.8145065   1.6859639  11.0614367  24.6164970   2.7899039
  56.7902794   3.6191089  42.0978165  57.2835655   3.4059110  42.8899345
  57.3994255   3.4412923  41.3811874   3.0435808  39.4774475  31.8180122
   2.4995420  40.0040054  32.4036674   2.4298229  38.8744850  31.3985271
  76.9132462  65.7239456  16.4149284  77.7936020  66.0642014  16.5743999
  76.7563934  65.8915100  15.4856539  66.3100204  64.3711929  67.3927460
  66.1295776  63.4580574  67.1694489  67.1208801  64.5759048  66.9271011
  58.5144348  30.4634781  47.5114098  59.4595718  30.5925579  47.4321365
  58.3498077  30.4718399  48.4543076  70.9888306  20.1080112  53.8227921
  71.3052902  20.8066730  54.3954697  70.0822220  19.9669418  54.0955429
  72.4158554  48.4423637   1.6832596  71.6923523  48.9218864   1.2797327
  72.7505569  49.0353661   2.3559813  68.7806931  67.2224731  84.5863419
  68.1791306  66.5564651  84.9192047  68.5180054  67.3482437  83.6745224
  18.9784412  54.6180878  15.0103455  19.7870445  54.2327499  15.3478460
  18.6877804  54.0087738  14.3317547   7.4868016  47.0367661  61.0249367
   7.0692811  47.1092110  61.8832283   7.2290406  47.8356705  60.5649986
  19.5337315   8.7069674  11.2882118  20.1263256   8.2228231  10.7131729
  19.4668465   9.5739307  10.8880453  13.5969610  38.0036163  71.0821609
  13.2833424  37.1854057  71.4673996  14.5496378  37.9118080  71.0676270
  21.8309822  31.0996170  55.3631821  21.6384182  31.6906967  56.0910378
  21.9838257  31.6798801  54.6174164  24.1479187  52.6282196  83.7988510
  23.2525463  52.8801041  84.0249023  24.5607872  52.4311180  84.6396408
   7.2456021  50.9863129  21.5607891   6.4093719  51.1682358  21.9895725
   7.0150981  50.4433403  20.8069439  29.7779369  50.1507912  70.9907074
  29.3258266  50.6543312  70.3137436  30.6965694  50.1588516  70.7218552
  72.9401932  15.7293167  51.6873322  72.3539658  15.1979790  51.1485901
  73.6107635  15.1160231  51.9880676  12.8091307  15.6474733  71.9879303
  13.5416002  16.0247307  71.5006943  12.5162745  16.3531208  72.5645828
  36.4503708  53.4428368  40.5834656  37.2835274  53.7789307  40.9138031
  36.1577225  54.1033478  39.9555206  50.1338539  28.1325531  80.2846756
  49.6243629  27.6898632  79.6059494  49.4768600  28.5014324  80.8750305
  13.0760841  42.3170090  55.8632889  14.0085649  42.4245338  56.0507698
  12.8231602  43.1325531  55.4306831  48.0966873  70.6882324  62.6647224
  47.3783607  70.0712204  62.5250015  48.7860641  70.3917923  62.0704880
   9.0412493  34.5452271  11.6938810   8.9335938  33.7551422  11.1643448
   8.1781883  34.9590836  11.6848040  27.2467327  57.8376846  67.4919662
  26.8464584  57.8801193  68.3604202  26.6438980  57.3020439  66.9763031
   7.8374257  47.8050385   1.4909923   7.0695114  47.9524727   2.0430818
   7.6107001  47.0379753   0.9652140  34.7589378  47.0179558  28.1233444
  35.1834068  46.1671982  28.2341118  34.7110519  47.1400948  27.1751766
  82.3882980  23.7865448  43.7513885  82.4180145  22.8661270  43.4902763
  81.4900818  23.9208641  44.0536995  71.4346924   9.1781893  82.3275299
  70.7702789   8.5403738  82.0668182  71.8429489   8.7950068  83.1038895
  79.3457489  38.3086395  43.9544868  79.8682327  37.5295677  44.1449852
  78.5361786  38.1808929  44.4489746  71.5920868  60.1578712  58.1135330
  70.8287811  60.7235222  57.9967613  71.3152313  59.5134354  58.7649040
  66.2410812   5.6601968  72.9871826  67.0041809   5.1027126  72.8351517
  66.0211868   5.5193133  73.9080658  59.7981186  70.9327240  42.2404060
  60.3494072  70.2409439  42.6061211  59.4158134  71.3636093  43.0048790
  42.8647232  53.0008621  25.0922527  42.1302605  52.4784393  25.4145451
  43.6398506  52.4808960  25.3044777   6.0034971   9.7895927  51.6192741
   6.1375480   9.7258921  52.5648994   6.2597146   8.9309425  51.2826691
  31.8738346  68.4160080   4.3531160  31.6889477  69.3231049   4.5964751
  31.0677452  67.9433212   4.5605288  67.7580109  66.8296585  87.6954193
  67.0998154  66.4079056  87.1430283  67.2505417  67.2875519  88.3655243
  41.8818665  38.5916023  22.7861309  40.9375420  38.6126289  22.6310844
  42.0233994  39.2259979  23.4888000  41.4884338   4.5768824   8.6041117
  41.3538284   3.9547050   7.8892627  42.0858688   5.2315359   8.2425423
  56.4025269  47.8911362  70.1917572  56.2313652  48.0039558  69.2567673
  56.2074814  46.9695129  70.3614578  86.3399506  62.9970932  25.5196056
  86.4016495  63.7384987  24.9173260  86.0175858  63.3781853  26.3363590
   6.6737208  51.3503838  58.1701965   6.7949219  50.5218048  58.6338768
   7.2096782  51.9773026  58.6559448  72.7083893  68.5800858  40.9152260
  72.9965591  67.7289429  40.5854568  73.2629776  68.7414703  41.6785240
   8.4347363  52.9948349  33.9075089   9.2281504  53.3486176  33.5055580
   8.5671701  53.1177711  34.8474960  21.5754318  66.1497116   8.2431641
  21.0361729  66.3796844   8.9998283  21.0111790  66.3149567   7.4878197
  37.6884727  39.4074860  86.1090698  36.7924805  39.3780327  86.4445877
  38.1901627  39.8351593  86.8030701  15.3599167  33.7517586  30.6360512
  15.5286522  34.6433716  30.9406605  16.0402527  33.5890961  29.9826641
   8.0846462  15.9651365  46.6559105   7.6222649  16.1558208  47.4720421
   7.7359562  15.1190834  46.3751221  78.4950943  40.4262924   9.3902817
  77.8299332  39.7852592   9.6410284  78.1481018  40.8335114   8.5965557
  56.5884972  68.3483658  14.2426300  56.4412460  67.5137634  14.6875887
  56.4381447  68.1561279  13.3170643  23.2403622  36.0829811  75.4769211
  23.7850780  36.1718788  76.2589798  23.2258549  36.9602013  75.0941620
  40.6166954  40.8984032  36.9326172  41.1933327  40.3713837  36.3794708
  39.7502480  40.7995911  36.5379829  81.6824188  51.6541786   8.7681408
  80.9900436  52.2527771   9.0483618  82.3503647  51.7245064   9.4501495
  36.6580086  12.6578159  15.1935358  36.8682213  12.1215124  15.9580097
  37.4588051  13.1528912  15.0207500   9.8001766  13.1915216  27.4700565
  10.4546709  13.2340298  28.1672382   9.9830666  12.3668652  27.0198059
  13.0067015  63.5131721  49.3498878  13.7767801  63.3071938  49.8797798
  12.4756413  62.7173576  49.3796616  62.2484016   0.4964030  74.0671310
  62.1968040  -0.4302054  74.3015747  61.4059067   0.6863004  73.6543655
  83.4820557   4.2547555   5.1702323  82.6407166   3.9069967   5.4659557
  83.2833252   4.6896405   4.3410072  76.3189850  49.1345177  79.1063766
  76.9719620  49.4752197  79.7177505  75.7298813  49.8724365  78.9493484
  11.2444344  16.4598198  11.0613070  11.2350988  16.1468811  11.9658594
  12.0951719  16.8877716  10.9646893  47.0152397  70.1743240  43.1533203
  46.3368988  70.2523422  43.8241386  46.7599716  69.4059296  42.6427879
   9.6484356  55.9275322  66.4981995   9.7888975  55.0344315  66.8126373
  10.5266504  56.3051224  66.4492569  45.8121948   5.0839877  36.0944824
  46.1501846   5.3126988  35.2286377  45.7132072   5.9240427  36.5425262
   7.5199900  67.3481216  25.9044971   7.5704265  66.7131042  26.6189442
   6.7156415  67.1205902  25.4381466   7.2563658  35.1414795  33.8120880
   7.5627470  35.1754074  34.7182961   7.6266036  34.3301888  33.4642944
  63.0650253   7.7772403  33.7529259  62.8661003   8.6064558  34.1877365
  62.5595589   7.8054767  32.9405594  80.4383316  47.5715752  43.8341789
  80.5076599  46.7443619  43.3575897  81.2956161  47.6839561  44.2448730
  64.7776108  67.4716568  48.7370911  64.3669205  66.6272202  48.9228287
  64.6408691  67.6033020  47.7989006  44.7015305  20.5821304  11.2562809
  45.2530098  20.9503975  11.9465590  44.0254707  21.2440338  11.1111431
  70.6010132  17.1398792  59.6863518  70.6547318  18.0939217  59.7424698
  70.5415726  16.9580936  58.7484550   0.3474452  35.5379372  25.4309845
   0.5271382  35.5058556  24.4913483   1.1910542  35.3507233  25.8426933
  64.8546524  69.0381775  39.1458168  64.4368286  68.2964935  38.7081528
  65.5654373  68.6471024  39.6538200  63.7303276  27.3368168  31.0795460
  63.8656197  27.7366085  31.9386711  63.0297165  27.8540955  30.6823082
  12.5138474  37.3412209  77.3685608  11.9757309  37.7776604  76.7081146
  11.9544544  37.2999382  78.1441956  72.4871826  26.8851318  82.9644318
  72.3612823  26.2861767  83.7003937  72.7205734  27.7193146  83.3717346
   2.2937508  40.1651535  86.6996307   2.9140337  40.3706665  87.3990860
   1.5051032  39.8734016  87.1569595  47.0888214  66.3570633  69.1605911
  47.2321548  65.6612930  68.5190353  46.2997742  66.0895157  69.6318130
  83.3706665  20.6424828  27.8719959  83.3774872  19.8208790  28.3630714
  83.1725311  21.3115253  28.5272484   1.6631832  38.6017227  12.2761812
   1.1413656  38.2748795  13.0090599   1.4070774  38.0517998  11.5357590
  16.2483368  48.7959404  24.8524017  16.5468636  47.8873596  24.8923092
  16.5158596  49.1729813  25.6905575  45.1033058  14.7137585  83.0191193
  46.0507584  14.5794916  83.0424500  44.9895477  15.6484394  83.1913452
  51.7789345   9.5937700  40.9611435  51.3904572   8.8001738  41.3292770
  52.5996666   9.7036362  41.4413147  22.1456509  49.3778458  55.6821709
  22.2891388  49.4501724  56.6257896  23.0238152  49.4132919  55.3029594
  59.8525276  17.0963898  19.8408966  59.2540550  17.0104446  20.5829735
  59.4108200  16.6425381  19.1231594   2.6053739  63.2099838  24.6353207
   2.3702610  64.1073837  24.8711720   3.1575823  63.3032036  23.8590412
  32.9667587   3.6298912  14.4120522  32.4437180   3.9722757  13.6871843
  33.0108795   2.6873214  14.2512798   1.0986485   9.1393356  85.4676666
   0.2380230   9.0627642  85.0557327   1.3637521   8.2355547  85.6383514
  40.6566887  66.9373932  33.0912132  40.0586586  66.4576111  33.6642799
  41.1997833  67.4517136  33.6885033  63.5635223  54.3419533  82.4951706
  62.9654465  54.5674629  83.2076874  63.2768784  53.4753036  82.2070999
   2.8253849  17.3901024  54.6726074   3.6499584  16.9883938  54.9463577
   3.0504298  18.3040066  54.4983521  66.5928040  24.6939278  37.8536530
  66.3918686  25.2704144  38.5908890  65.9173126  24.0166168  37.8881989
  52.6544266  22.7985344  28.8713322  52.2469749  22.6421089  28.0194244
  53.5688896  22.5430603  28.7499828  70.6290131  23.8112144  86.8979263
  70.3146973  23.2179146  87.5801544  71.1184082  23.2484360  86.2979279
  61.1154823  33.9819031  46.0755959  60.7000809  33.4990654  46.7901154
  60.5978661  33.7576637  45.3022766   8.3508644   7.5966420  66.7258606
   8.8220139   7.4836531  65.9003372   8.8219881   8.2974720  67.1765366
  40.8896523  54.5230751  31.2778339  40.1786156  54.8939323  30.7552204
  41.0430527  55.1697388  31.9666939  76.4109650  37.1854134  40.9700623
  76.4722137  38.0918579  41.2714539  75.7221375  36.7991867  41.5109634
  82.6073227  64.4919968  61.6633148  82.6753006  64.7162704  60.7352448
  81.9390945  65.0861130  62.0049744   4.7763252  52.1259422  63.4398880
   4.4855227  51.7289352  62.6188812   5.6294465  51.7266159  63.6100502
  71.4304199  58.0460854  64.6750336  71.1865005  58.4000816  63.8198013
  72.0269852  58.6980629  65.0428238  30.7080555  61.8481445  24.7458439
  31.1076431  61.1726761  25.2938423  31.4107380  62.4801712  24.5941429
  14.1551933  17.9457321  60.2373352  14.9619560  18.3830566  59.9650955
  13.7208109  17.7121525  59.4169807  75.5203781  69.2918320  58.0864525
  74.8118286  68.8280945  57.6401978  75.1877136  69.4431610  58.9711380
  65.6973419  42.0539703  33.6595116  66.6001358  41.9932213  33.3472633
  65.5209503  42.9938660  33.7008896  29.1840553  70.9333572  58.2530975
  28.2731457  70.9613419  57.9603615  29.2346191  71.5957336  58.9422455
  30.9270496  54.2664490   5.4588761  31.3584080  53.6582451   6.0590839
  31.3326359  54.0927696   4.6094255  32.2550240   7.4826698  32.2750015
  32.3422470   6.8506994  31.5613937  31.7809963   8.2181721  31.8869743
  69.7086563  46.7308655  65.3411179  69.0202332  47.3162384  65.0254517
  70.2525864  46.5638237  64.5713959  11.5350943  15.5347233  67.6356506
  11.7139921  15.0131273  68.4180527  10.7935743  15.0953798  67.2192841
  49.4595490  13.4041538   8.8755140  50.2505836  13.1236200   9.3357286
  48.9538803  13.8783464   9.5355692  55.9586563  16.2852859  18.3865070
  55.3438454  15.5552711  18.3135910  56.6538048  15.9569321  18.9567585
  60.0818214  13.8598137  77.6539917  59.5506821  14.6256418  77.4357529
  60.6086922  13.7025776  76.8704605  51.3572655  33.8595428  78.0868607
  51.4904404  33.8279572  77.1394958  51.2423019  34.7896271  78.2816925
  53.4314957  53.4115448  59.8686256  52.5171585  53.1392555  59.7906647
  53.4404984  54.3143311  59.5506134   4.7461843  12.7184534  52.8614883
   5.5703735  12.5321579  52.4117813   4.3218923  11.8647337  52.9473419
  68.4798965  34.0329933  11.8639193  67.8745346  33.5532875  12.4292955
  68.4214249  33.5881538  11.0183830  59.0668449  14.5429440  22.6264343
  59.7540741  13.8785114  22.5766792  59.1409760  14.8983421  23.5121136
  57.8966026  14.5281839  11.6203766  57.5797272  15.2587633  11.0892687
  57.3788452  14.5741253  12.4241476   4.3590798  47.9498138  61.0055962
   3.8259687  47.5185165  61.6734314   4.3739724  48.8700790  61.2685165
  21.1815453  56.1763382  63.2773972  20.7226582  55.8029633  62.5249062
  20.4883156  56.3717270  63.9078636  86.3093033  52.8861542   3.7304916
  86.3671112  53.8410225   3.6971469  85.5582047  52.6721992   3.1770458
  53.6023750  54.2969055  70.1690598  53.3256912  54.7972260  70.9367599
  53.9263840  53.4700012  70.5261078  52.7809296  65.0862045   0.1370530
  53.4082565  64.9884033  -0.5792750  52.8561516  64.2716980   0.6341920
  55.4156380  24.8865528  81.1830063  54.6305695  24.3863659  80.9600372
  55.7753792  24.4389038  81.9487915  78.8332214   9.8338413  70.6084824
  79.4251099   9.0880814  70.7071686  78.5981369   9.8318901  69.6805954
   9.7011213  47.7980385  56.6214485   9.7473030  48.2130966  57.4827423
   9.7960949  46.8626289  56.8009491  40.1079521  51.9401474   7.5210857
  40.9576721  51.5585213   7.3006968  39.8447571  51.4909935   8.3243427
  61.5265198  48.1523666  25.8142986  61.8290939  47.4620209  26.4043007
  60.7655029  47.7743187  25.3736591  74.5060654  16.5426273  25.0044403
  75.3479614  16.8030243  25.3781185  73.9134827  16.5010033  25.7550068
  32.5371857  69.9098816  68.5318680  31.6558247  70.1926727  68.2880096
  32.4093323  69.3780670  69.3173904  55.1917801  53.6360168  84.0016251
  55.9222832  53.5627747  83.3874359  54.4646835  53.1944618  83.5627670
  49.0212402  48.0907211  36.0721931  48.3340378  48.6095276  35.6540756
  48.6244278  47.2297325  36.2043762  82.4039307  65.1093369  31.6395454
  81.7457657  64.9968033  30.9536991  82.4358826  66.0544052  31.7880802
  13.0997839   5.5868630  14.2905817  13.5022812   6.3601413  13.8952742
  12.4459648   5.9393435  14.8943291  61.7593384  60.4934540  79.5251846
  61.2938499  59.7681694  79.1086349  61.5579109  61.2528572  78.9784088
  56.2044449  11.9699955   5.3409057  56.6998520  11.1509857   5.3356943
  55.2931442  11.6979971   5.4494433  43.8236313   5.8816624   1.1439068
  43.3076477   5.3079004   0.5775209  43.9433479   5.3784952   1.9493397
  65.2122650  18.9173813  21.6435852  64.9074554  19.0804787  22.5361786
  65.1727142  17.9658794  21.5470943  76.8260956  19.5560093  80.4215927
  76.3554306  19.8703747  79.6496658  77.4840393  20.2300510  80.5919266
  66.6223373  23.2165432  16.6258526  66.9943619  22.3538952  16.8093472
  67.3539658  23.7226906  16.2726231  59.9141769  44.6792297  57.0365829
  59.9379692  43.8318901  57.4811935  59.1829605  45.1432228  57.4443436
   1.2189296  21.9125729  70.8064041   1.7681671  22.0353069  70.0321198
   1.0340836  20.9735298  70.8225250   1.3155141  27.5555172  33.4734650
   1.6892701  28.3358173  33.8829384   1.7915789  27.4669647  32.6477814
  15.6505823  12.5670052  62.0047913  15.3490114  12.1308594  62.8017006
  16.4970474  12.1620302  61.8157883  80.0355377  58.6243706  69.8864899
  80.2431793  58.5513268  70.8180389  80.8779297  58.7973862  69.4661789
  54.9379616  54.3347702  14.0345306  54.4610367  53.5101929  13.9404888
  54.3345184  54.9996529  13.7028360  38.5280495  39.3657951  33.2047310
  39.4790115  39.2574730  33.2177048  38.1870537  38.4768562  33.1060524
   7.3232179  39.3550606  62.5860367   7.2229414  38.5829201  62.0292816
   8.1842661  39.7050781  62.3573112  44.3189201  52.1584778  16.5730057
  44.0350494  52.8418159  15.9658031  44.9497986  51.6406746  16.0729046
  10.2881975  38.2969780  15.7863121  10.9697256  37.8530121  16.2909393
   9.5471573  37.6912498  15.7999020  41.6153755  20.3166866  83.3900452
  41.5147896  19.5716171  83.9824905  41.1401520  20.0601425  82.5997467
  20.8027191  37.2719917   3.8705852  21.4470711  37.5532341   3.2210104
  20.5007629  36.4201813   3.5551960  67.2096786  63.7181053  27.0760040
  67.5436478  63.3325615  27.8859749  67.0525513  62.9690208  26.5011845
  31.6914082  57.7051392  77.0281067  31.6767540  57.5529671  76.0831909
  32.5929260  57.9673309  77.2145233  44.7893753   4.3577108   3.2657466
  45.1676216   3.6050031   2.8112218  44.9843292   4.2022109   4.1898923
  62.3886414  34.6209869  33.2396736  61.4840279  34.6219139  33.5525665
  62.3132439  34.7002106  32.2887421  25.8788395   8.2754393  78.5728989
  26.0881634   8.5417461  77.6776352  26.7275791   8.0765467  78.9682617
   4.0831008  13.9270449  49.4930267   3.9230318  14.5890722  48.8204727
   4.1840806  14.4276314  50.3026237  39.0242424  60.4980507  72.4677811
  39.5232315  60.5576515  73.2824478  39.2039642  61.3225479  72.0159607
  50.4774399  38.1146469   6.7897496  51.3274689  37.6750832   6.8112197
  50.2703476  38.1902428   5.8582826  40.8532257  65.9296417  54.1362228
  41.0461197  65.5694199  53.2706223  40.1101646  66.5154800  53.9916992
  74.3590775  49.1546288  73.3167496  74.9968719  49.2999725  74.0155487
  74.5694580  49.8172913  72.6588364  41.4779854  12.4901133   3.5919764
  40.5838127  12.2113552   3.3945358  41.7804222  12.9120255   2.7877676
  54.4445801  68.6101837  43.8890877  54.1783600  69.1000290  43.1110077
  55.3914757  68.7400665  43.9415245  67.3759537   5.8233156  21.7863426
  67.4032898   6.6247077  22.3090801  67.6084290   6.1061907  20.9019413
  19.6784782  45.5642319  64.4065323  20.3653755  46.1555519  64.0987244
  20.0128250  44.6881371  64.2144394  26.7581787  40.5199127  47.5865517
  27.5289402  40.9282722  47.9807625  26.0338516  40.7732849  48.1587296
  32.5830879  52.0238686  85.9807587  32.5888710  52.8396721  85.4801025
  31.7603931  52.0485764  86.4694290  73.0860672  42.8693352  57.0567131
  72.7239456  42.7022285  57.9268723  72.4596405  42.4667664  56.4552460
  26.9068336  58.7277451  45.7710152  26.4637871  58.9228058  44.9452477
  26.3197956  58.1193657  46.2198982  15.6951494  59.5476570  27.5243340
  15.1711903  59.6385345  26.7284451  15.0668058  59.2817612  28.1956882
  16.7718334  47.2131081  20.8251209  17.5148525  47.1652794  21.4266758
  17.1174908  47.6603165  20.0526199   2.2548521   3.3780036   2.1550834
   2.1478581   4.1402154   2.7241333   3.1978254   3.2136784   2.1496048
  18.1461220  56.4876366  83.4290085  17.7880783  55.7997780  82.8678589
  17.5241089  57.2106819  83.3481369  56.4312057  70.2148666  19.9465275
  56.0260277  69.3585434  19.8095188  56.0982399  70.7548294  19.2297230
  13.6829681   5.2446437  46.6132202  14.3191967   5.9512644  46.5030746
  14.2111998   4.4464865  46.6254044  16.8541813  61.3221626  25.1530399
  16.5377216  62.2250252  25.1226082  16.8820572  61.1094475  26.0858879
  52.4947357  24.3919373  35.5164375  51.6936684  24.2403107  36.0179672
  52.4239807  25.2995529  35.2207031  74.0749664   9.0134792  51.6016388
  73.1663971   8.7513952  51.4531784  74.2088547   8.8916502  52.5415649
  62.1449585  21.8730221  59.5726967  62.6216621  22.4770336  59.0033493
  62.0088730  21.0933743  59.0343094  56.4079208  71.0332489  82.2317200
  56.0527649  71.8235474  82.6385727  55.7542572  70.3572769  82.4106674
  45.9525871  25.9242516  25.1192017  46.2914734  25.2824078  25.7432404
  45.0043755  25.9069271  25.2489300  59.4901657  66.7469864  12.2204456
  59.4375191  65.9534912  11.6876869  59.5468712  66.4275208  13.1209784
  34.6381798  64.4745407   9.2965040  33.9518433  64.3340073   8.6442566
  34.5265770  65.3852615   9.5692072  34.1457329  56.8062706  58.9047470
  33.6368217  57.3449860  58.2989235  34.9397316  57.3151207  59.0686798
  84.0730743  17.1370735  36.4056969  83.6124268  16.3610096  36.0866890
  83.3841858  17.7896042  36.5316696  47.6680031  45.8756714  54.2524071
  48.5731964  45.5644569  54.2506790  47.1435585  45.0877342  54.1097603
  27.7749424  46.8536186   8.6985960  28.4601078  46.5558052   8.1001911
  28.2504864  47.2424507   9.4326925  42.9988098  26.7675476  31.9300652
  42.5570297  27.5915890  31.7250786  43.6858139  26.6928864  31.2677345
  29.7940788  65.3275070  73.3745651  30.2678280  65.0149078  74.1453247
  30.1877747  64.8527145  72.6425705  11.5309601  48.5299225  80.7221680
  12.4527006  48.7078400  80.9091721  11.5351505  47.6776924  80.2863693
  49.2277718  52.5425339  11.2724609  49.3006248  53.4849014  11.1212368
  48.7416306  52.4686241  12.0936995  38.5501556  55.9964066  58.3314857
  37.7054863  56.1391258  57.9044113  39.1411972  55.7544632  57.6184883
  85.0628510  66.7361755  39.1460838  85.5149612  67.5594864  38.9617043
  84.9420776  66.3316498  38.2870140  47.9951019  34.4294434  41.9110374
  47.9802780  33.4797554  42.0297852  47.6221390  34.7779198  42.7207870
   2.5090101  20.6622009  39.3423500   3.4377718  20.5052872  39.1720200
   2.1059482  20.6798000  38.4743271  43.6565666  56.9691162  16.4361477
  43.3536873  57.6844139  16.9954758  43.6201859  57.3268623  15.5490589
  17.5844803  66.5517807  70.0822830  18.4550610  66.7845917  70.4049606
  16.9950790  66.7707138  70.8040237  81.8452072  37.4172897  36.6904373
  81.0017090  37.8173943  36.9017715  82.4123001  37.6518059  37.4250412
   1.0997282  15.9899282  56.5323868   0.9717014  16.4282951  57.3736191
   1.8577725  16.4288826  56.1464844   6.4185524  70.4380264   9.9766159
   6.8968821  71.2651901  10.0334072   6.9745460  69.8078842  10.4348955
  39.2911339  38.5810699  22.8054466  38.7484093  39.0235023  23.4580822
  38.7494316  38.5621643  22.0165043  12.4091425  19.3010712  64.0928574
  12.8474112  18.5159416  64.4210663  12.3260098  19.1528797  63.1508598
  10.0467119  59.8628693  61.3030243   9.9291334  58.9269295  61.4655800
   9.1939678  60.2495003  61.5019569  42.7124138  47.5124397  44.0539780
  43.5413971  47.8704567  43.7364159  42.1375618  47.5243378  43.2887077
  44.7012177  50.1250343  32.5844193  45.2329712  50.4121819  33.3267250
  43.7979965  50.2675209  32.8674774  13.9550800   3.2384403  43.8348236
  14.1183195   2.7224324  43.0453186  13.8944845   2.5901122  44.5364151
  26.5426884   5.4030666  34.8595695  26.7984009   6.0458584  35.5211296
  26.9296856   4.5814047  35.1617889  44.9299469  55.6912231  85.0485764
  45.1186066  55.2099724  84.2429504  44.9740448  56.6126328  84.7930679
   9.4554205  46.6684074  68.5167007  10.2719307  46.3310699  68.1482620
   8.7699327  46.1526833  68.0920105  30.0807762  10.1159573  16.0518341
  30.8564835  10.6760607  16.0800133  30.2420597   9.4496641  16.7198715
  83.0648880   4.7682505   2.6888623  83.1005859   5.6509280   2.3203006
  82.3973236   4.3190351   2.1704030  84.0563202  28.7210464  39.0002975
  84.5657654  29.0133686  39.7561073  83.2742310  28.3198719  39.3792839
  49.1267357  68.8977737  87.8135834  49.2874374  68.7365952  88.7433243
  49.3019333  68.0569839  87.3909607   8.0850277  67.5096283  34.3636551
   8.4372396  67.2595596  33.5094643   8.6885691  67.1186218  34.9953804
   5.3715067  58.9577904  30.7051773   4.6348300  59.3758469  31.1510124
   6.1072316  59.0624466  31.3084927  70.1919632  52.2497330  66.2208405
  70.0612488  52.4279022  67.1521835  70.4489212  51.3282852  66.1870270
  23.6089783  18.4536400   1.9812795  23.7160950  18.4151745   1.0308700
  23.5747681  19.3891945   2.1807821  27.6439056  21.0845528   9.4713202
  27.9374847  20.2014751   9.6954098  28.1623917  21.3214092   8.7023573
  26.8342018  48.1750870  67.7147446  27.1661072  48.3220520  68.6004486
  25.9226398  47.9118385  67.8411713  70.2777481  61.7511597  28.2528801
  69.7295227  61.3892555  27.5566730  70.2660675  61.0833397  28.9385242
  20.0816097  31.9899559  29.2606411  20.7745495  31.6118755  28.7192326
  20.0285835  32.9031067  28.9785480  73.7157745  13.3452091  39.0229988
  74.6326981  13.0711184  39.0419044  73.3820572  13.1252680  39.8927650
  75.3179169  65.7995987  56.9441910  74.6709137  65.4058609  57.5294991
  75.0352859  66.7094803  56.8521461  36.7075577  68.6086807  24.5652485
  37.4156685  69.2513199  24.5224495  37.0635567  67.8949051  25.0944176
  34.0072098  17.6531868  87.6410751  33.5994034  18.4603653  87.3274002
  34.6777229  17.4539948  86.9876480  16.5629101   0.3867203  42.7050476
  17.3206406   0.0694055  42.2137337  15.9427481   0.6691322  42.0328331
  82.7438965  35.7931290  33.6173859  81.8691177  36.1183281  33.8300591
  83.3254471  36.5299568  33.8047867  68.5079575  26.6452312  56.6979828
  68.1789398  27.5349751  56.5701790  69.1972046  26.7369308  57.3558311
   8.4860077  18.4633789  64.7628784   8.5459433  19.0846043  64.0371246
   7.5861640  18.1390152  64.7268143   7.6267943   5.5251522  62.1350632
   7.2346420   4.9461637  62.7886848   7.7847652   4.9602265  61.3786659
  78.9713135  28.9714069  55.7534714  78.5330963  29.6635132  56.2486343
  79.1151657  28.2737751  56.3928833  83.4672470   6.0205288  38.8444214
  82.9935303   5.2757230  38.4741669  84.3366928   5.6748967  39.0465012
  44.3163681  54.6595573  52.2388382  44.1539154  53.7346725  52.4243813
  43.6475372  54.8959923  51.5961914  62.6170082  58.0163231  35.1855202
  62.5691566  58.4798851  36.0216141  63.4986153  58.1989822  34.8605003
  70.8212585  27.2918777  63.9719429  70.0921860  27.0999241  64.5617218
  70.7329407  26.6518173  63.2657204  15.3992586  63.8953896  11.2171154
  16.1394138  64.3726654  11.5920916  15.4975452  63.0026131  11.5480556
  76.5248795   3.6792810  28.2837505  76.5375366   4.4072623  28.9051323
  75.7689590   3.1538002  28.5458202  63.4292107  37.4867058  51.3359032
  64.2286301  36.9610443  51.3647537  62.7899132  36.9779739  51.8346252
  47.3873825  57.9567223  78.6115875  47.0207176  58.2922821  77.7935486
  48.2978745  58.2520142  78.6048660  73.4729233  17.9323463  40.0768623
  73.5539932  17.8469086  41.0267906  73.7375488  17.0779018  39.7360840
  36.9048386  57.0815849  34.6495590  36.4170303  57.8811493  34.8469658
  37.4796982  56.9590530  35.4050407  43.5903091  51.9787788   3.8032060
  44.1694946  52.7200432   3.9801316  42.7128487  52.3090553   3.9961135
  70.1221008  26.8296890  33.0836792  69.9224548  26.0050526  33.5267868
  69.2881775  27.1049881  32.7028809  85.2745361  67.3524551  31.1725197
  85.4826889  66.7256165  31.8653259  85.4006882  68.2096863  31.5793095
  11.6796026  63.4919891  56.4092598  12.3754272  64.0501556  56.0621147
  11.8177872  63.4980545  57.3564110   9.7488890  64.4293213  34.1280785
  10.2174053  65.0213776  33.5396957  10.4385376  63.9964943  34.6313477
  14.6434546  44.8360558  38.3176765  14.3204956  45.6259384  37.8840714
  14.0149221  44.6751518  39.0214424  16.8611393  55.7581139  65.4154053
  16.3507214  55.6915665  64.6083908  17.2225571  54.8810310  65.5432281
  20.7988052  58.0567131  86.0444717  20.6502628  58.4244843  86.9156265
  20.3547306  58.6616020  85.4502182  59.4520645  24.9478931  43.6139183
  59.8787689  25.5015621  42.9600067  58.7200546  24.5457115  43.1463242
   9.2266436  35.8126183  19.3464546   9.5873251  35.0485268  18.8966751
   9.9440279  36.4462738  19.3549843  35.9667282  41.8817024  56.0759010
  35.8744659  42.8252487  55.9438438  36.8873825  41.7020607  55.8852348
  84.5416641  45.6781158  44.3091431  83.7525406  45.8036728  44.8361626
  84.2170639  45.3829231  43.4584198  69.0931702  63.6924706   0.8187071
  69.7269135  63.1804047   1.3210862  68.2489700  63.4918671   1.2228379
  68.7129669  69.7956085  48.3353348  68.3752975  68.9528503  48.0320663
  68.8935013  69.6605530  49.2656021   3.0650451  62.4981422  79.7722244
   2.8643267  63.2392044  80.3438644   3.9309669  62.6977425  79.4164505
   8.3090925  29.5572681   9.3955460   7.7287669  29.3516941  10.1284809
   8.8276396  30.3012028   9.7019835  65.8544540  10.2711172  67.7455521
  65.2024994  10.4933271  67.0808563  66.6888885  10.5416899  67.3624802
  34.5965500  67.2258606  84.2931137  34.0386925  66.4731598  84.4892120
  34.4437828  67.4017944  83.3647079  85.0792313   6.6487355  74.9139557
  84.5136185   7.3880601  75.1369019  85.1161041   6.1254110  75.7145767
  78.2741928  40.5846214  59.3495750  77.4580002  41.0636940  59.4929543
  77.9979324  39.7460823  58.9797668  83.8204498   8.0072699  70.8131409
  84.2827682   7.2710605  71.2137527  84.4692993   8.4134197  70.2384491
   0.2566352  62.3124504  44.1896744   0.9929020  62.7061424  43.7215424
  -0.5169325  62.7403374  43.8226128  65.5575485  32.1520195   1.3142067
  66.5085831  32.0435371   1.3136371  65.3849335  32.7482567   2.0428581
  20.0622616  45.9697762   0.9238494  20.9189816  45.5470467   0.9835432
  19.7177048  45.6938820   0.0744999  18.0904160  61.4081001  55.8284721
  17.2212696  61.8090286  55.8370247  18.6851177  62.1298447  55.6243973
  84.4380112  66.9091110  52.9266090  84.6599274  66.9086685  51.9954872
  85.2836227  66.9355087  53.3743515  67.7048721  58.2064018  45.8713531
  67.3301239  58.2841682  46.7487068  68.3837662  57.5373764  45.9593201
  85.5084686  58.6129646  79.3395615  84.9364166  59.3557968  79.1467285
  84.9929581  57.8441086  79.0959702  17.5408382  32.8129272   3.8802888
  17.5525455  33.6329193   3.3866179  16.7008057  32.4114914   3.6579764
  69.7496490  19.7370396  20.9426193  70.5500183  20.2616673  20.9224892
  69.7697372  19.2380638  20.1260090  76.7191010  27.5254230   1.2285208
  76.4232635  28.3802586   0.9155194  75.9133835  27.0624313   1.4580482
  52.6114769  60.8393440   9.9164715  53.4586754  60.3941422   9.8996859
  52.8308334  61.7705345   9.9481344  25.4476242   0.8803235  54.7245369
  24.5642986   0.7847744  54.3683968  25.9990139   1.0384585  53.9582520
  12.9105377  67.2556534  87.4373627  12.1735477  67.4904938  86.8735123
  12.5956478  67.4236984  88.3255310  55.7292099   0.3610546  64.4027939
  56.6435814   0.2037684  64.1673889  55.7667656   0.6963452  65.2985611
  -0.0445470  27.0159836   7.2065291   0.8283382  26.6344604   7.1130252
  -0.3666218  26.6754761   8.0411272  31.3737259  65.0253906  50.1900902
  30.5205040  65.4433289  50.3065720  31.8708611  65.2746048  50.9691811
  21.3319931  55.4896584  77.1882629  20.9200859  54.6256294  77.1923523
  22.1584663  55.3631973  77.6542892  65.7943039  13.9856625  79.2029724
  65.1953506  13.2641783  79.3951797  66.3836975  14.0149117  79.9566269
   4.7690539   1.1202695  71.4371948   5.1161013   1.5097708  70.6346512
   5.4378028   1.2983474  72.0984726  71.7937698   6.4480047  22.4375648
  72.2509384   7.0170989  21.8184013  71.2041931   7.0344796  22.9115696
  17.2949123  63.4792671   1.2526474  17.2935028  63.4991035   0.2956539
  16.4370022  63.1247177   1.4861277  74.4011078  54.1849289   7.0525169
  75.2997589  54.4270439   6.8288107  73.8610001  54.8536415   6.6314025
  66.5045395  15.8842478  17.9247284  66.6584320  14.9403982  17.8835430
  65.9393082  16.0677299  17.1743431  52.1780701   3.3312304  62.3044128
  52.5263977   2.4528754  62.4573593  51.3896599   3.1883967  61.7807350
  11.9092350  11.7469835  22.2942715  12.8436489  11.5843019  22.4232502
  11.8762388  12.5208874  21.7319393  50.7660141  45.4437637  22.5821762
  50.5231514  46.3174629  22.8886032  51.1333809  45.5892563  21.7103348
  74.0983963  34.4058838  37.1085815  73.6699677  35.2546730  37.2192154
  73.3768845  33.7812996  37.0341339  61.7545433   7.3006592   3.6808836
  61.1620560   8.0487680   3.6065671  61.5503464   6.9172158   4.5338235
  72.1144791  67.7554703   8.6966715  72.4723663  67.1721191   9.3658876
  72.7719955  67.7538376   8.0010395   5.4877338  32.9370537  45.7790833
   4.5411754  33.0162697  45.6608315   5.7937140  32.5070305  44.9805298
  82.8982849  71.1222763  59.5048294  83.0378952  71.8798141  58.9365997
  82.6241074  70.4241104  58.9101715   6.4507232  51.3169174  52.8153648
   6.7415853  51.6874657  53.6486244   7.2608690  51.1115456  52.3487625
  19.3202591  23.7373714  27.3530140  19.7967072  23.0862160  27.8680153
  18.6191196  23.2417870  26.9298954  79.6875153  67.5480881  70.3031921
  78.7707748  67.7399216  70.5007324  80.0067902  67.0826645  71.0762863
  50.2357483  46.3199806  14.1687145  50.2588043  45.9797096  15.0630951
  49.3043671  46.4347000  13.9800348  75.1756287  65.5260162  47.0987549
  75.0458832  65.9206390  47.9611206  74.4950256  64.8557739  47.0372124
  64.5791321  71.1292648  14.1839857  63.6768112  71.1428375  13.8648243
  64.6922760  71.9746933  14.6183691  10.3031416  58.1893120  38.9236679
  10.6700754  58.9245605  38.4327507  11.0631905  57.6610527  39.1675911
  59.9736252  25.4556675  68.9292145  59.3856544  24.9034519  68.4138718
  59.9599648  25.0685158  69.8045197  64.0659027  64.7174911  33.5131683
  63.6037445  65.4050980  33.0337563  64.5636520  64.2506409  32.8419571
   2.9333887   0.8368340  73.2239075   2.9228144   1.7564850  73.4891663
   3.5619373   0.8027622  72.5028000  13.7718334  38.3808937  84.8581848
  12.9825010  37.8830528  84.6452484  13.5451231  39.2881737  84.6540375
  60.1815071   9.3522930  25.2825375  60.6694031   9.4972582  24.4718742
  60.8291931   8.9979916  25.8917980  -0.1137564  17.3086147  43.2292442
   0.1938287  18.0175800  42.6644516  -0.0648261  16.5263233  42.6798286
  86.7371292  34.9795952   3.1726644  86.6144714  34.2961922   2.5137625
  86.0357361  34.8297691   3.8065681   9.6937504  56.9398575  11.1579943
  10.0394936  56.3185577  10.5171528   9.0634222  57.4658089  10.6657591
  83.5298920  49.5629578  82.2229004  83.9716568  50.4053726  82.1160736
  83.0893631  49.6292648  83.0701141  72.8299255  38.5652847  64.9561462
  72.4976959  37.6891937  64.7603912  72.6588593  38.6830673  65.8905411
  68.0292816  45.3783989  61.2712631  68.5614243  46.0016060  61.7658997
  68.6662369  44.8331757  60.8094635  42.1762848  64.0161362   5.4054861
  41.2367134  64.0138855   5.5883226  42.3488884  63.1536446   5.0279326
  59.1164513  49.2515831   3.4243279  58.3532410  48.6745033   3.3974431
  58.9149971  49.8831253   4.1148343  74.0803375  61.6779137  77.0109329
  73.9087982  61.3725052  76.1201324  73.7710190  60.9665527  77.5717545
  58.2557297  46.5427704  34.4510307  58.1420975  47.4453506  34.7487984
  59.0611267  46.2495728  34.8771820  68.1681976  32.1125488   1.8348292
  68.9085464  32.3235092   1.2659582  68.3220749  32.6253738   2.6282790
  58.0733299  46.3250656  58.3091545  58.3501816  47.2073669  58.0619125
  58.0313606  46.3462982  59.2652016  52.8944359  30.3018894  27.7162380
  53.4077148  30.7825222  28.3656750  53.4424477  30.3000889  26.9314384
   3.7182097  59.5211678  19.3224373   3.0723677  60.1831245  19.5692806
   3.6699100  58.8675575  20.0200729  57.3867455  12.8605080  81.8044205
  57.2981186  12.8873034  80.8517075  56.7647057  13.5153799  82.1213455
  74.7572632  20.5646458  32.0301971  75.2327042  19.9151001  31.5122471
  74.6549530  21.3122959  31.4413128  47.1322365  62.2253723  82.3090286
  47.2764282  62.8747597  82.9973145  47.5734024  61.4375725  82.6268005
  42.8531456  68.5506287   3.3537772  42.1595383  68.7131653   2.7144618
  42.4224396  68.0625763   4.0555820  69.1025238  69.0071793  73.6850815
  68.5836639  68.7906036  72.9104156  69.1046295  68.2031097  74.2044067
  45.8952179  68.3208771  41.6359444  45.8825493  68.4113998  40.6831169
  45.0589066  68.6878662  41.9225388   7.6626225  55.0889702  17.4544487
   6.7856812  54.7552376  17.6437283   7.8533325  54.7737427  16.5709934
  43.5953331  10.8684149   3.1201148  42.8393898  11.3823624   3.4040849
  43.9768486  11.3783302   2.4055066  20.5776024   5.9875698  76.2673950
  19.8971500   6.6189022  76.5011368  21.2804680   6.5199237  75.8948212
  79.7324600  40.3578300  39.2929916  80.4593582  40.7322540  38.7953415
  79.5107803  39.5531235  38.8244400  15.6473351   7.6850400   8.0369015
  16.0745125   8.5361881   7.9404778  16.3257637   7.1164584   8.4011564
  18.7236233  62.9796295  85.1913147  18.4697609  62.8736076  86.1081314
  18.0842724  63.5968170  84.8355865  29.5724010  46.8621445  82.2894058
  29.7467270  46.4536972  81.4414597  28.6606808  47.1484566  82.2344284
  46.8046837   3.7215717  27.5956497  46.4280777   3.4826529  28.4425945
  46.0610580   3.7168727  26.9929657  44.7547379  60.6724930  42.5503731
  44.2707977  59.9792480  42.1015396  44.3218346  61.4816437  42.2781563
  38.9451561  56.5340118  68.5638809  38.4613190  56.6746025  67.7500229
  38.9826813  57.3987274  68.9726486  75.1002655  25.1586723  16.8859959
  74.7191238  26.0359650  16.8496552  74.4067535  24.5827141  16.5642185
  86.1755371  14.2017403  63.9746933  86.5229950  13.5154819  64.5443878
  86.1013794  14.9691734  64.5419464  84.4227829  59.5994110  57.9259682
  84.6792755  59.4555244  57.0150642  83.5582962  59.1948357  57.9981384
  82.4291153  20.8617382  66.3845444  81.7971878  21.2907829  66.9614487
  81.9944000  20.0536957  66.1119156  36.6202888  20.3977451  12.4479589
  36.7959061  19.6276474  11.9072762  37.3648033  20.4441071  13.0477743
  16.4152317  22.1904011   0.5804494  15.9867735  21.6099052   1.2094796
  16.2466393  21.7870445  -0.2710863  61.8577957  13.8096161  35.9784088
  62.6906624  13.9518557  36.4282188  61.6971855  14.6273584  35.5075226
  54.6366882  36.6117668  28.6027451  53.8681793  36.3564262  28.0924263
  54.4359398  37.4949684  28.9124012  29.5072594  63.9851685  60.0324020
  29.9790707  64.5737915  59.4432030  30.1220322  63.8179893  60.7467804
  37.3163414  12.8251457   1.0847412  36.6473312  12.3999290   1.6212552
  36.9615479  13.6958179   0.9050655  85.9554977  12.1735573   3.4822755
  85.2563324  11.8570843   2.9102190  86.2379074  12.9962626   3.0827394
   4.8410268  53.4748001  42.5795631   5.2781692  54.2252846  42.1771812
   3.9638646  53.7939415  42.7916145  75.0703506  36.1735115  55.7961655
  74.4896164  36.4220886  55.0770073  75.7795181  36.8156090  55.7642288
   7.0062189  41.4063835  14.3709717   7.7802858  41.2312279  14.9061089
   6.7714210  42.3108940  14.5782442  26.8183079  59.0257072  49.6569786
  26.8285542  59.9036293  50.0382614  26.0726547  59.0339088  49.0568428
  46.8585548  41.7479630  65.2834320  46.4720116  41.6394997  66.1523666
  46.4628143  41.0534515  64.7568588  10.1922884   2.5706627  29.3731022
  10.6297712   2.4306955  28.5333099   9.4291153   3.1073146  29.1590862
  79.9645157  66.4228592  55.2664413  80.8886871  66.1998291  55.3778267
  79.5456924  66.1171341  56.0710182  23.1274452   9.5951424   4.3869181
  23.5229931  10.4282818   4.6431465  22.2449207   9.8277197   4.0983157
   1.7853149  64.2643967  87.1276474   0.9703138  64.2653275  86.6256409
   1.9080178  65.1776428  87.3868103  34.3528442  71.5079727  15.4258432
  33.4753838  71.8454742  15.2458639  34.3801079  70.6615982  14.9795942
  58.2523689   1.6402174  18.8305759  58.5185432   2.0560296  18.0105247
  58.0707779   2.3708663  19.4216843  76.1359482  64.6018219  26.5944939
  75.7285690  63.8996429  26.0873299  76.7242203  65.0341644  25.9754200
  75.5542297  62.7039948  89.0101318  75.0861130  62.0098343  88.5461807
  76.3783340  62.7978516  88.5323486  84.9779739  61.1538506  17.8596745
  85.0540314  61.5528526  16.9929333  85.6883774  60.5131226  17.8915672
  11.3217545  69.8317184  51.6294632  10.4189472  69.5967484  51.4150734
  11.3311596  69.9002075  52.5841637  64.3103867  46.8549881   5.4385619
  64.2689438  47.2760773   4.5799584  65.2375107  46.6505394   5.5605555
  51.1101837  45.8990898  11.2485352  52.0616798  45.7953186  11.2374334
  50.9130516  46.3864403  10.4486217  81.8447647  29.0069046  71.7176666
  81.2993164  28.9135647  72.4986954  81.4238129  28.4491558  71.0634918
  79.0278473  21.7933960  80.4502029  78.7375183  22.6438160  80.7799377
  79.2870560  21.9634361  79.5445862  22.9916077  63.6950912  27.5337658
  22.9090881  62.8876686  27.0263290  22.8545780  63.4227905  28.4411297
  54.7725906  47.4867973  15.6229486  55.1831017  46.7973595  15.1010427
  53.9626923  47.6910172  15.1554127  69.5015259   0.4900309  35.9943352
  69.7299271  -0.0427356  36.7560577  69.1366653   1.2936664  36.3648415
  64.8442993  34.3855591  47.9165764  65.7430267  34.2393837  47.6213608
  64.3193130  33.7776337  47.3959541  44.8481712  70.1807098  61.1402855
  45.0796127  70.5111160  60.2722397  45.2029419  69.2919159  61.1606865
  83.0578384  26.2119865  84.5922775  83.7977066  26.8152256  84.5220490
  82.3850250  26.7110596  85.0553970  31.4480133  38.1000252  24.4602261
  31.4588108  38.7022514  25.2041607  31.6796551  37.2507706  24.8361759
  58.7156601  59.3554039  76.6786118  58.1908913  59.0340309  75.9454193
  58.4290733  60.2606392  76.7996368  53.6656799  12.8557158  82.6465912
  53.6063461  12.3403683  81.8421478  53.9541893  13.7209158  82.3560333
  76.7833176  13.6283140  84.4567719  77.4988251  13.0397701  84.6974106
  77.1946335  14.2910528  83.9019547  62.2464333  -0.0902912  61.6790009
  62.0019646   0.8027705  61.4362907  61.4749260  -0.4362610  62.1276779
  49.0908508  46.5900307  74.6887360  49.4408989  47.2842903  75.2470398
  49.7627182  45.9084320  74.7044220   3.6011331  53.2654037  39.8722000
   4.2803559  52.5953941  39.9495049   3.4802749  53.3762474  38.9291496
  58.9343491  69.9327316  46.5441208  58.6147957  70.2227859  47.3985138
  59.6439781  69.3235626  46.7480011  56.6402664  56.1564941  39.2852325
  56.1610832  55.3979874  39.6188278  57.4737434  55.7980347  38.9801788
  17.2954693  65.3421707  62.5024643  16.5341682  64.7964859  62.6996460
  17.0805779  66.1969910  62.8757439  35.7901611  67.1585999  66.1591415
  35.4981689  68.0480881  65.9596939  35.0082893  66.6184692  66.0444107
  72.7354355  43.6042900  75.5456772  72.7783585  43.3058815  76.4541626
  73.6408691  43.8184891  75.3209000  35.5500641  26.8552380  19.3926105
  34.8379440  27.0938416  18.7991562  36.3360596  26.8832703  18.8470364
  69.5340042  31.4812527  26.9895802  70.4372787  31.7552261  26.8306408
  69.0342178  32.2975616  26.9987698  10.7373905  26.8770256  38.0691872
  11.2120285  26.1816120  38.5245438  10.0731325  27.1637173  38.6959267
  66.5365372  15.9846907  21.5940247  67.1164932  15.7715588  20.8629570
  67.1282654  16.1646824  22.3245659  77.0735321   1.7733221   9.5992804
  77.2839127   0.8581148   9.7846632  76.4171295   2.0059540  10.2559776
  73.1480865  45.4194641  85.0674438  72.1942368  45.3866692  84.9944229
  73.4642487  45.0607033  84.2382507  60.3340759  12.5345440  37.8172722
  60.9012184  12.9837036  37.1905060  59.4956169  12.4495029  37.3634109
  86.9517136  61.3932571  85.9680023  86.0252304  61.5396385  85.7771454
  87.4138718  62.0050430  85.3949661  84.1868515  60.8414307  54.4469795
  84.8840408  61.2938690  53.9721489  84.6114578  60.0663948  54.8147545
  78.4865646  43.3685455  30.0116291  78.5309525  43.7040672  29.1162605
  78.9875717  43.9991951  30.5288410  69.0283890  21.6311913  29.2401581
  68.8664703  20.9907494  29.9328690  68.2974243  21.5170383  28.6327934
  64.8807831   5.1983552  70.6645813  65.4885941   4.9967294  69.9531479
  65.4428864   5.3468003  71.4249954  10.3721027   0.2368521  57.6466789
  10.7233362   0.8158943  58.3231239   9.6222525  -0.1892645  58.0618668
  18.4780273  32.6467781  19.7618580  18.1262913  32.1959991  18.9941921
  18.6541843  31.9469719  20.3907242  63.3039894  65.2599945  29.2150440
  63.7926254  65.3081284  28.3933697  62.9581757  64.3676987  29.2361355
  17.6340923  22.5049286  14.3655252  17.2415352  23.3575916  14.1781845
  17.7571793  22.1037045  13.5052338  85.1287689   9.9842987  81.1012192
  84.5452118  10.5325403  81.6257401  84.6257858   9.7865686  80.3111954
  78.1443939  28.2360992  29.9975491  77.7658691  27.3773766  30.1860847
  79.0565796  28.0518017  29.7735424  52.9037094  45.2315712  76.0282440
  53.0498924  44.3994904  76.4782486  52.7546577  45.8620110  76.7329102
  60.6737900  54.7630196  26.3599167  61.6074562  54.5869675  26.2436905
  60.4743614  54.4299774  27.2348709  82.3749390  31.0980606   8.6641130
  83.2695084  30.8097134   8.4829273  82.4529572  31.6432610   9.4469929
  33.3113518  65.5371780  34.2776756  32.8666153  65.4241180  33.4376411
  34.1654587  65.1230850  34.1541405  79.4168320  12.4743118  58.9794273
  79.8755722  12.8943586  58.2518616  79.0752487  13.2018919  59.4992180
  16.8415775  21.8135319  21.5097828  16.7129841  20.8975658  21.2634029
  17.7143307  22.0296268  21.1813965  65.0685577  15.5759706  49.4491348
  65.2317886  15.7893171  50.3678703  65.8983536  15.2161894  49.1357193
  63.1039085  43.0311623  59.4620171  63.1680565  43.8204956  59.9996681
  62.1759377  42.9706039  59.2352295  37.1944847  11.9659538  84.3868484
  36.8277435  12.7571917  83.9922943  38.0623436  12.2305584  84.6918640
  26.0074787  47.5732841  42.5850105  25.7753563  46.9108467  41.9342194
  26.4185600  47.0787735  43.2940254  50.2348442  49.0025063  47.9914856
  50.2287331  49.7720680  47.4223061  50.9292908  48.4475594  47.6365089
  22.0219917  53.6933174  39.3275642  22.7515202  53.6383095  38.7103157
  22.3633728  53.3120193  40.1364517  48.2559891  64.1483231   7.8724909
  47.9389954  63.4494057   8.4445629  48.0781021  63.8320312   6.9867439
  36.5970001  50.4213371  69.5302582  36.0569611  50.4558830  68.7406998
  36.0788116  50.8751526  70.1949081  37.6098175  22.8265133  30.4143829
  37.9760437  22.8886108  29.5321960  38.3487167  23.0116196  30.9940319
  75.1545334  18.7463551  69.3732300  75.6434021  19.5174999  69.6605835
  75.0510025  18.8664494  68.4292526  68.5884857  55.9644623  17.4652576
  68.5009537  56.7734146  16.9611092  69.5295639  55.8774338  17.6169758
  19.7204838  15.2991629  19.9698048  20.6252747  15.4365597  20.2503490
  19.2341404  15.1704807  20.7841415   0.9293163  18.5879402  88.5987167
   0.7884626  19.4310284  88.1679077   1.0313774  18.8064022  89.5250473
  28.7304153  58.2923012  42.2492027  28.4505501  58.0631866  41.3629684
  27.9160881  58.3586006  42.7479095  44.9918327  12.0499792  15.7282562
  45.2847481  11.1645327  15.5128107  45.5204697  12.2993383  16.4862766
  59.3480186  27.1424160  35.4320488  59.3210487  27.4613342  36.3341560
  58.6787682  26.4588356  35.3995628  36.2944260  37.7787132  79.9723740
  36.5174408  37.0408897  79.4048233  35.8372765  37.3811913  80.7134705
  17.7889118  17.4513626  60.2948112  17.4978046  16.6033421  59.9596291
  17.1224270  18.0692444  59.9943886  45.9944038   8.3151312  58.8905106
  46.7595596   8.8121166  58.6010742  46.0892944   7.4615707  58.4678268
  18.6775208   7.1840987  52.0160370  18.2405586   7.7982836  52.6060143
  19.6092339   7.2881026  52.2092400  75.8740234  34.4072189  30.6020851
  76.6396790  34.9086037  30.3216877  75.7803802  33.7225571  29.9397392
  68.3701706  10.9851418  32.7331009  68.1307678  10.2987356  33.3558044
  69.1666336  10.6603479  32.3131180  73.0311966  24.1215096  78.9294815
  73.2436371  24.2414303  79.8550720  72.0799332  24.0162506  78.9137650
  34.5483017  45.4184761  12.7085085  35.2704086  44.8208733  12.5144310
  33.8646317  44.8572121  13.0743008  25.9734459  60.5861740  14.0063305
  26.1403904  59.6937485  13.7031164  26.8408394  60.9363213  14.2094479
  35.8935432   6.0975561  55.7624626  36.8131676   5.8555384  55.6531181
  35.4814682   5.8534665  54.9337006  31.3339653  50.0701714  53.1708565
  30.9201050  50.6101646  52.4975395  30.6458492  49.4661102  53.4498558
  81.9338379  36.8026352  75.1956482  82.2932510  36.8596649  76.0809784
  81.2518768  37.4738426  75.1703110  40.7560806   7.6046314  87.4328003
  41.5842133   7.2962394  87.0649338  40.4661980   6.8912969  88.0014420
  63.6844254   4.1251588  15.5487547  63.1740685   3.4516790  15.9984150
  63.6710281   4.8738337  16.1450253  81.2269592  57.6268997  88.2281799
  80.6373825  57.7913666  87.4922562  82.1003494  57.8066788  87.8801880
  51.5990982  60.5661888  37.2376671  51.0403481  61.0975952  37.8047981
  52.4832878  60.7002144  37.5789604   3.1886325  45.4470253  79.0667038
   3.5778854  45.3201599  79.9319305   2.8359864  46.3365707  79.0908203
  45.3202286  64.7498779  86.6032257  46.0709152  65.2828979  86.8651428
  44.7883301  64.6793671  87.3959045   5.1025820  16.3004265  54.6291084
   5.8306842  16.7631168  54.2143593   5.4910588  15.8825455  55.3976746
  29.4436455  58.0447769  14.1423445  29.8866024  57.9001617  13.3062181
  29.4493866  58.9952850  14.2551813  60.2940865  44.3204727  41.9614296
  60.6271133  43.4234924  41.9887733  60.8925056  44.8153076  42.5211296
  77.3634872  27.9249020  50.4531174  76.6563797  28.5539951  50.5962257
  78.1581116  28.3970337  50.7019043   8.2588186  12.8427429  88.2567444
   7.5104361  13.3349829  87.9193192   8.2620106  12.0324984  87.7471161
  61.5203819  53.1398544  11.0278397  60.6745796  53.5681000  10.8957062
  61.2984543  52.2398949  11.2666979  44.2275124   9.7842999  12.4403915
  44.2891197  10.7385960  12.3985023  43.3697014   9.5830212  12.0663815
  30.4707222  14.8967810  87.6107330  29.7332878  15.1185322  87.0421829
  31.1604214  15.5108948  87.3589172  23.0879803  29.7827988  62.4387970
  23.6439629  29.8509636  61.6626053  22.8475208  30.6868973  62.6413193
  40.8248787  54.1870079   1.3235872  41.0615578  53.7044640   0.5315213
  40.6660843  55.0810928   1.0208890  36.5632133  57.5139503  37.6169739
  35.9791946  56.8016396  37.3566551  36.0340652  58.3055267  37.5188065
   0.3938674  51.2056389  52.6698341   0.8910880  51.7724686  53.2595024
   0.5399743  50.3219109  53.0073357   2.4358826  22.0321960  18.6585522
   2.9843369  22.2512341  17.9052582   3.0156991  22.1308727  19.4137402
  62.7856407  10.1222639  35.5911942  62.1386147  10.1705647  36.2949371
  62.4788513  10.7532396  34.9400520  53.3125954  71.5491257   3.3023493
  53.5640182  71.4467926   4.2202525  53.3317566  70.6600494   2.9482152
  71.8243027  44.0510864  35.4360886  71.0081406  43.8531227  35.8953438
  71.6821747  43.7296524  34.5457458  85.7043839  15.0912170  16.9395847
  85.5928192  14.1554422  16.7719193  84.8118668  15.4316196  17.0009766
   9.3053675  71.3872223  30.4675961  10.0690880  71.0802002  30.9561672
   9.5924196  72.2065964  30.0645351  31.4319839  39.8594666  80.8415985
  31.0068893  40.1960831  80.0527954  31.0602512  40.3791313  81.5543365
  61.5831070  42.2100639   2.1977623  62.3426590  42.7709274   2.0404401
  60.8307762  42.7562218   1.9698539  38.4525146  68.6540756  66.8324890
  37.5904617  68.2584381  66.9611893  38.7516518  68.3082123  65.9915771
   0.9692769  35.1665382  22.4897995   0.5203035  34.8808212  21.6941738
   1.8869443  34.9377213  22.3422775  46.2017326  69.5649338  10.1781492
  46.7975388  69.8303833  10.8787069  46.7006607  69.7052383   9.3734035
  24.5842590   3.3914466  23.5276871  24.6299534   4.3474388  23.5127735
  25.2599773   3.1290867  24.1528301  41.0005035  37.5994873  16.0864887
  40.2879410  37.4605217  16.7103271  40.8196793  36.9846573  15.3754892
  39.4113464   2.7158999   9.2539339  40.0620613   3.4172275   9.2845774
  39.0609741   2.6752117  10.1437740  52.3251114  43.7882195   4.9569731
  52.4900169  44.4542160   4.2895250  52.2811012  44.2779312   5.7782373
  34.7117805  48.8660126  88.7578964  34.0228462  48.6789742  88.1202316
  34.9662323  49.7708855  88.5771027  66.0828323  17.3721428   3.0823169
  66.9641953  17.6056976   2.7909617  66.0316010  16.4248505   2.9548683
  29.8972149  19.3473129   1.2671409  29.9423618  18.7405529   0.5281988
  29.9999256  20.2133331   0.8725643  28.9498596  49.9012489  61.2574158
  29.2131157  50.7833977  60.9952316  29.0187988  49.9045372  62.2121239
  72.7561111  60.6021309   2.0317943  72.2917175  61.3000984   1.5698260
  72.6315689  60.8045158   2.9590282  72.1827927  58.2081451  39.1830444
  72.9766464  57.9781837  38.7001839  72.2016373  57.6451530  39.9569397
  62.6282272   0.6021116  70.7275543  62.3228035   0.4715795  71.6252823
  62.7670326  -0.2830386  70.3907013  17.1944904  68.0654297   3.0427217
  17.9703999  68.1727371   3.5928862  16.5236931  68.5998001   3.4678278
  32.7915688  49.6700974  69.0237122  33.5606995  50.0504646  68.5994644
  32.9298248  48.7246284  68.9670715  59.5972328   3.0090640  79.5916138
  58.9706841   3.7148738  79.7513123  59.4546242   2.3947313  80.3116760
  49.5256233  24.7269058   6.5297451  49.0358467  25.2285595   5.8780599
  48.8724174  24.1540623   6.9314985  30.3191013  53.3108559  34.5890236
  29.3732395  53.4559708  34.5663071  30.6688786  53.9072304  33.9270363
  84.0824432   6.7327576  67.4100571  83.7865753   7.2361360  66.6515656
  83.8213959   5.8323889  67.2166061  46.9504051  43.2095985  29.2260189
  47.0900612  44.1481857  29.3516273  46.0368385  43.1382904  28.9493561
   9.7104397  59.0575333  65.0269241  10.4961720  58.5297318  65.1693420
   9.5048132  58.9356842  64.1000519  69.1092224  15.9850750  46.7057495
  70.0468903  15.8008337  46.7610741  68.7570343  15.6890774  47.5451431
  83.8478241  53.6092987  20.7627316  82.9634552  53.5364380  21.1216488
  84.2772751  54.2627754  21.3147907  11.6839027  21.5350857   3.6933780
  12.6359358  21.6205864   3.7439115  11.4098606  22.2469044   3.1150637
  79.7565918  52.1982956  46.6169243  79.8955994  53.1295624  46.4447365
  79.3150787  51.8729591  45.8324165  74.3407135  62.3325996  72.8366699
  75.2298965  62.0283394  73.0183716  74.0382233  61.7743454  72.1203766
  12.4372644  55.6172409  60.9271126  12.7254066  55.7591629  60.0254135
  13.0975075  56.0582237  61.4617577  60.8457222  21.0309525  46.6857986
  59.9450836  21.2585697  46.4549866  61.1264000  21.7314472  47.2746582
  14.2311974   9.2156153  44.0282822  13.7635889   9.9718904  44.3827133
  13.5420656   8.5867815  43.8140411  73.2678680   6.1355972  33.1592751
  72.4873657   5.5817962  33.1780930  73.8809433   5.7057939  33.7556305
  25.7473373  54.6551743  41.5380058  25.2420311  54.8946075  40.7611122
  25.9246407  53.7207832  41.4298096  25.4438019  36.0275726  11.6738958
  25.6562195  35.1045761  11.5353823  25.0784016  36.3173141  10.8379745
  58.2848816  47.9223251  17.9619865  58.8150711  47.5298309  18.6555843
  58.4526634  47.3760681  17.1940765  66.5565262  58.3509979  86.8733902
  66.8759308  57.9988213  86.0426178  65.9890594  57.6637344  87.2225189
  72.0429535  34.4100342  79.9446182  72.1717758  33.6507301  79.3762054
  72.1033554  35.1626511  79.3562775  62.7871933  10.7400141  81.8714905
  62.1621399  11.2461023  81.3524323  62.4449577  10.7802305  82.7645111
  73.9810104   5.4270496  84.6361237  74.6480484   4.8701167  85.0375137
  73.7584152   4.9825516  83.8181305  81.2947388  35.0457382  59.2788429
  81.3842926  34.3520012  59.9322472  80.5828552  34.7499008  58.7114487
   2.0438452   6.5878301  41.5660019   2.7628996   6.6280828  40.9354706
   2.3186235   5.9261107  42.2007141  77.9863510  25.8837910  69.5611191
  78.6079407  25.5960789  68.8924789  78.1444855  26.8239765  69.6464386
  67.5490723  55.7053986  74.0229797  66.9850845  55.6087723  74.7903214
  67.0909271  55.2328568  73.3279724   6.8790069   6.9250150  16.4793262
   5.9745145   6.6495728  16.3301392   6.8039351   7.7099648  17.0219593
  19.9717884  53.9195251   9.6516905  20.0065498  54.8695984   9.5404005
  20.3414841  53.7665482  10.5212631  11.8298283  41.3005562  58.0708122
  12.3153124  41.6410103  57.3193970  12.4239435  41.4165115  58.8123055
  70.8820724  61.7587166  54.6520386  70.7524109  60.8413734  54.4114113
  71.6460648  61.7494011  55.2286301  71.9353867  44.8889427  53.3658295
  72.1456451  44.0745201  53.8227119  70.9909058  44.8432274  53.2172089
  51.0581017   6.7464881  67.9679260  50.1267624   6.9667220  67.9863663
  51.3186874   6.8837581  67.0571671  71.5955048  71.2850723  18.4360275
  70.8028564  71.0603180  17.9487534  71.5619965  70.7316360  19.2162933
  43.0796661  30.9458332  27.4246159  42.2775421  31.4273472  27.6270428
  42.7795639  30.1663189  26.9571419  10.1453905  21.6289177  39.4972801
  10.3888130  22.5242901  39.7324181  10.8894377  21.0966339  39.7788811
  76.3567047   0.1346205  87.3244553  76.7569427   0.8249181  87.8531570
  75.4452667   0.1079322  87.6156540  47.0614662  41.1709976   8.7591190
  47.8431892  40.6539497   8.5646830  46.5557594  40.6238403   9.3600426
  45.5586014  18.3750935  24.2049351  44.9803314  17.6146088  24.2641163
  45.5591888  18.7448215  25.0878468  82.6929169  33.5833054  65.5814209
  82.2818527  32.7211609  65.5184479  82.0125275  34.1467018  65.9500504
   2.5771990  70.5090103  49.3581924   2.3794029  71.4125977  49.6044350
   3.4417429  70.5557785  48.9500160  48.3342209   0.5089219  70.7963715
  47.9689331   0.7728401  69.9518967  48.5962715  -0.4029295  70.6695251
  18.1778088  47.6532593  16.1419239  18.3089485  48.0921364  16.9824123
  17.5044479  48.1729202  15.7028666  41.7868118  58.1712494   3.0508525
  42.2494812  58.4495316   2.2604556  41.0842133  58.8128319   3.1555266
  58.7610168  55.8513947  30.8350353  59.6963005  55.6840820  30.9511375
  58.6047440  55.7011261  29.9027119  21.1134872  66.8169098  83.1204758
  20.5202675  66.0734329  83.0129471  21.6166840  66.6098709  83.9079819
  48.1413879   1.0242431  14.8153868  48.0717087   1.6046821  15.5733232
  48.0130043   0.1459709  15.1736984   4.8323131  49.2441559  67.3954239
   3.9560735  49.6292496  67.3836594   4.7729115  48.5331573  68.0335388
  53.5710564  16.0593376  25.7384510  53.1132698  15.2332783  25.5825958
  54.4303169  15.9368353  25.3348465   9.9513474   9.2361059  69.4488297
  10.4657946   9.6845112  70.1200333   9.7054090   8.4035149  69.8519897
  78.7259064  24.9098835  19.7891903  78.8270340  25.2735271  20.6688328
  78.1827698  24.1314545  19.9127998  74.8460999  20.8660393  61.1538773
  75.7861786  20.8100128  60.9825745  74.7460861  21.6560631  61.6850014
  20.8488827  49.9516258  66.7394562  20.5557804  50.8584938  66.6504822
  21.7453423  50.0207710  67.0677948  69.5877914  47.0285759  58.5757446
  69.6070175  47.4417686  59.4389534  68.9136353  47.5090103  58.0951958
  47.2312851  40.2104149  69.2164154  48.0886726  39.8587303  69.4560852
  47.4269829  40.9324455  68.6192474  39.8627396  30.0559711  78.3206558
  39.1929550  30.6377373  77.9612579  39.3773613  29.2858162  78.6164551
  48.9415016  69.3031464  76.0346222  49.0106659  70.2367630  76.2341385
  48.0601845  69.0619278  76.3198013  44.3843498   6.1096134  13.5486479
  44.0805283   6.9336786  13.9292278  43.5837059   5.6097970  13.3893337
  39.2808075  65.5059204  34.9347382  38.5808372  66.0649109  35.2720833
  39.8269348  65.3188553  35.6982727  50.1419640   2.1496480  60.9235458
  49.4717522   2.1742222  61.6065140  49.8542747   2.7993424  60.2821693
   6.9361835  12.8007088  26.7970695   7.8083224  12.8959961  27.1798553
   7.0399232  13.0886288  25.8901119   6.5764570  22.2006855  63.2281990
   6.4542732  22.9512043  63.8095970   6.2386994  21.4554291  63.7249336
  17.4151382  41.8028793  87.4814072  17.8479824  41.0906181  87.0107040
  17.6373062  42.5892258  86.9828720  72.9923553  49.0398674  86.2809677
  72.5556335  49.1834908  87.1205368  72.3043747  48.7014465  85.7079239
  53.3516464  39.7261772  13.9808092  52.8622284  40.3902550  13.4953184
  53.6712952  40.1846352  14.7579012  74.8419571  39.0872383  35.5946503
  74.6696548  38.8027000  36.4921913  75.6234894  38.5995407  35.3346405
  77.1288834  69.1746979  87.8942108  76.4287109  68.6102905  87.5664291
  76.8474579  70.0612488  87.6682434  15.5033197  43.6021080  64.6856003
  15.7929039  43.7584991  63.7867622  16.0234051  42.8536072  64.9779892
  34.8782845  46.1245461  75.5476837  34.4728012  45.6088104  76.2447052
  34.2243729  46.7887497  75.3298187  39.0148964  53.0464630  12.2876854
  38.9389763  53.4619865  11.4287281  39.9403496  53.1349220  12.5155888
  74.9569550   7.9149690  17.3362503  75.6330490   7.6744046  17.9697018
  75.2565079   7.5350370  16.5103264  34.6814117  48.7519913  35.4460945
  35.5426178  48.7159996  35.0298538  34.5058212  49.6868820  35.5527496
  61.2909431  31.0645485  74.4877167  61.9217644  30.5390854  74.9798355
  60.4409409  30.8281155  74.8589706  19.4631119  34.3126259  80.8404694
  20.3094425  34.5895424  80.4893723  18.8187466  34.7213211  80.2625504
  59.8046188  67.7338486  22.2275238  60.2138062  68.5402069  21.9135418
  59.5557632  67.2655334  21.4306660   8.1461010  39.2423172  86.2386398
   8.6845207  39.9993362  86.4694138   7.4474430  39.6028366  85.6926193
  61.6784058  57.7035637  69.4450989  60.9783363  57.1119347  69.7209854
  62.2097740  57.1818542  68.8436813  27.2886734   1.3932253   3.9432921
  27.8120441   1.3953025   4.7447348  27.9025307   1.6513259   3.2556915
  29.2733021  55.9785118  64.3522949  29.8054714  55.7194710  65.1045761
  29.3052998  56.9351730  64.3543167  64.9921570  37.7793007  57.6335678
  65.8553085  37.3657646  57.6201439  65.0041428  38.3333778  58.4140091
  53.4652557  20.2448635  27.3084545  54.0894547  19.5417767  27.1288071
  53.9487114  20.8589497  27.8610840  81.1274185  51.1914940  17.3643723
  81.3627396  51.1979942  16.4365711  81.9286270  51.4557686  17.8165359
  28.0604858  17.6720695   5.2555184  28.6310272  16.9087143   5.1660643
  27.5462685  17.6826706   4.4482388  13.5294151  38.3038139  48.8438301
  12.6026707  38.5418816  48.8703079  13.8378677  38.6353378  48.0005112
   7.9915609  36.4778786  56.6468353   7.4369583  36.3466797  55.8777885
   8.8613949  36.6530724  56.2877731  40.5672340  12.1588583  21.5882740
  41.3657494  12.5824833  21.9031506  40.5476189  12.3514233  20.6508503
  50.7005196  48.7747383  59.5374374  50.4131126  49.5373611  59.0354004
  50.1394157  48.0617905  59.2323112  35.7173080  23.1561871   1.2998847
  35.1494751  23.9083252   1.1322976  36.3762817  23.1944180   0.6066839
   4.4439011  54.7485466  63.9771347   5.1382613  55.0731010  64.5505142
   4.6299005  53.8145523  63.8807259   8.2055140  15.4423227  83.1518631
   7.6508455  15.1382589  82.4334488   8.7069178  16.1665802  82.7773285
  84.3086166  57.4289017  40.2714157  84.9373856  57.1536674  40.9385910
  84.7165756  58.1891823  39.8569565   2.7789812  60.1876640  27.1643906
   2.7255938  61.0813103  27.5031853   2.8467336  60.2948570  26.2156277
  38.5798187  65.1775589  43.4512444  37.8686600  64.5373077  43.4276810
  38.3768959  65.7333374  44.2036819  24.4182682  18.4153175  80.3028412
  24.3937836  18.1162338  81.2117844  23.7283783  19.0767231  80.2496567
  49.3243446  45.9489784  44.7483063  50.2466240  45.8084755  44.9625244
  48.9223709  45.0853691  44.8422699  18.2147636  13.7873011  21.9899273
  18.2545166  13.7636585  22.9460087  17.3478298  14.1431856  21.7949829
  33.6595879   7.8488779  26.0000057  33.0508728   8.2647238  26.6105556
  34.2887573   8.5368929  25.7831764  14.7251663  13.2151880  69.4468384
  15.0052443  12.5112867  68.8617630  14.7590637  12.8274908  70.3213501
  37.8006973  52.9357681  48.2318382  38.1445465  52.6754646  47.3772964
  38.1013718  53.8372536  48.3465080  32.8698578  39.6285629  83.4707642
  32.5913696  40.0189056  82.6423264  32.3890610  38.8023300  83.5198212
  69.5968399  54.5657272  83.9591293  69.7006454  53.6168556  83.8877411
  68.7591019  54.6819687  84.4073639  56.3045921  60.5095940  77.8624573
  56.7422371  61.3258133  77.6206207  55.9594193  60.1692390  77.0370789
  56.8223381  33.2831116  40.1776810  57.1293564  32.8879776  40.9936676
  56.1458702  32.6843414  39.8612976  69.2198715  14.7580624  78.4549408
  68.5632553  14.0957260  78.6703644  69.7074738  14.3823957  77.7219086
   6.2084312  40.0031281  16.8857059   6.6467686  40.3244057  16.0977516
   6.7927432  39.3252907  17.2253342  55.2456169   7.3113999  51.7195854
  54.8734169   7.4049039  52.5964851  55.2015953   6.3723068  51.5395889
  32.2204094  67.0394440  63.8683357  31.5033073  67.4708023  64.3330154
  32.6624908  66.5197067  64.5396576  84.8219223  53.3454094  88.3239517
  83.9684830  53.6485443  88.6337814  84.6474152  52.9874382  87.4535294
  72.3236694  64.4387131  34.8212166  71.8841629  63.6616592  34.4758949
  71.9498367  65.1661835  34.3239555  58.9923515  22.6399021  39.8551941
  59.6465683  22.3935204  40.5090485  58.8984833  21.8620148  39.3053627
  48.8139915  48.8923912  87.4266434  48.1642685  48.4509850  86.8796005
  48.3401146  49.6276779  87.8152618  29.9665108  13.1228399   5.7383580
  30.3786221  12.6220331   6.4423389  30.1900501  12.6432829   4.9406819
  46.0353661  59.4645882  86.8651962  45.7741966  60.1270828  86.2255707
  45.2274246  58.9909096  87.0629044  81.1410904  55.6100044   3.7954462
  80.7169418  56.1299095   4.4781141  81.7513580  55.0448685   4.2691741
  67.2347565   6.7568574  19.0342808  67.9672318   6.7288489  18.4187088
  67.4406662   7.4865727  19.6185303  18.6990509  25.1429920  21.8063583
  18.3561897  26.0363598  21.8303070  19.0171375  24.9846191  22.6951618
  21.1829014   3.5742419  24.4061985  21.5698605   4.2282920  24.9881878
  21.9281826   3.2028434  23.9341278  43.2161369  59.1022606   1.0691178
  43.4644966  58.3726349   0.5014990  43.8083534  59.8118210   0.8200598
   6.1268473  19.3936749  10.3423042   6.7324815  18.9197884  10.9122772
   6.2432976  18.9911690   9.4816875  45.2390480   0.6973044  40.1809502
  46.0217934   0.1530105  40.0955887  45.2812386   1.0391229  41.0740395
  84.9993286  63.6107292  68.7208786  84.1730194  63.4636612  69.1811218
  84.7711334  63.5490494  67.7933273  54.4777794  16.4926567  30.5672970
  54.5448341  15.8085003  31.2333794  55.1073227  16.2341290  29.8941879
  72.2666245  58.5311775  20.0615139  71.9071655  59.3322830  19.6804008
  72.6732941  58.0765419  19.3238430  42.3612938  63.0185890  58.9557190
  42.6859665  62.9065819  58.0622559  43.1506081  63.0363693  59.4969139
  71.6230164  39.0679245   4.2928472  71.4089432  39.8332062   4.8264656
  72.4715500  39.2777367   3.9027212  57.8943443  26.9022331  17.5480080
  57.3456230  26.9145393  18.3322182  58.7761688  27.0895977  17.8697414
  66.7690582  65.9684448  64.4985962  66.1703644  66.5879364  64.9157639
  66.6729431  66.1367035  63.5612183  48.8844376  42.2496796  61.8271790
  49.1118164  41.5377731  61.2290802  49.3467636  42.0380402  62.6381645
  33.7104874  11.3654633  13.5077782  32.8834229  11.8453321  13.4639225
  34.3837967  12.0448523  13.4714937  49.1287880  45.3268929  84.6972961
  48.4671860  44.7455406  84.3224030  48.7084808  46.1866455  84.7173462
  21.9124413  43.9891815  13.0927811  22.4583092  44.6221619  13.5592546
  22.2470245  43.1356354  13.3679943  70.5908508   8.8651714  60.8042145
  71.4782715   8.5974245  61.0430107  70.7155075   9.6096315  60.2155952
   0.9913908  25.4790382  36.9938507   1.9325651  25.3726234  36.8556519
   0.5870392  24.9619370  36.2971878  44.5416489  25.7560158  82.8734970
  45.3815155  25.3386803  82.6819534  44.7629166  26.6709652  83.0471115
  35.4421883   5.6417713  14.9967966  36.2062607   5.0925031  15.1721010
  34.7594643   5.0251012  14.7325315  26.8114834  64.6992950  66.8335419
  26.6727028  64.4158096  67.7372055  26.0785484  64.3202744  66.3483734
  56.4420128  40.1372833   9.3047590  55.4920616  40.0200195   9.2962170
  56.7846107  39.2951813   9.6043072  46.9969177  69.4268112  85.6279144
  47.6869125  68.7869263  85.8030930  47.4622612  70.2552872  85.5125275
  84.0359116  37.9595490  10.7975025  84.7167892  38.3726883  10.2665062
  83.2180939  38.3388100  10.4756861  75.0373993  68.1751938   6.1864891
  75.9718399  68.0336838   6.0347290  74.9976807  68.9815674   6.7007022
  31.3979321  45.0708694  -0.2301311  30.8128757  45.5502129   0.3565296
  31.2942562  44.1540794   0.0247727   2.9812305  66.4036255  64.6846390
   2.6151323  66.9151001  63.9631157   2.2232714  65.9777069  65.0850525
  76.5544739   5.9236736  70.5732651  75.7776489   5.5563345  70.9949722
  76.4822311   5.6506195  69.6586838  14.2911892  55.0249405  45.1077576
  15.2004719  55.3104553  45.1967239  13.7960615  55.6250343  45.6654015
  48.3024063  51.6923676  70.5872192  47.4934311  51.3213615  70.2348709
  48.8962708  50.9453049  70.6610260  71.6644287  58.6545868  43.1584663
  70.7191620  58.5224915  43.0860252  71.7567825  59.5483131  43.4885483
  83.0550690  37.3510971  83.6222000  82.2014923  37.7839355  83.6050720
  83.4267273  37.5200996  82.7564392  16.7916870  64.2621765  19.4626675
  16.9719887  64.0617218  18.5442238  16.4301453  63.4504433  19.8184814
   8.1983347  47.1351891  25.4610157   7.7072620  47.1490135  26.2825317
   7.8102107  46.4164352  24.9620342  50.9553795  56.6390915  30.6718349
  50.3260002  56.3183861  30.0258789  50.7744522  56.1246033  31.4584713
  15.5654221  62.5222321  64.5438461  15.8233252  63.1949921  65.1740112
  16.3797112  62.0640411  64.3359375  24.6619587   8.9693270  34.2419205
  24.4631939   8.1231337  33.8410721  23.9853401   9.0830126  34.9093742
  63.5656624  59.0741882  73.1669769  63.1588821  58.2836189  73.5215912
  63.5850830  59.6847496  73.9039078  83.6810608  20.0925846  48.6159630
  83.7516708  19.2147770  48.2408600  84.5365677  20.4909821  48.4558678
  41.7472267  49.9386024  20.2578430  41.1249809  49.7339630  19.5598698
  42.1347008  50.7737885  19.9960060  48.4662285  71.7626266  18.8815060
  47.8700638  71.0650024  19.1537895  49.1807060  71.3069687  18.4363918
   5.9933047  23.6256256   9.4003382   5.0839396  23.5171585   9.1219120
   6.1474075  22.8986492  10.0036526   3.0233090  56.3536568  84.4504318
   2.3942280  56.4602127  83.7369003   3.7423465  56.9442902  84.2260132
  11.7018595  27.6654167  18.0172462  11.3728094  28.1850739  17.2838192
  11.7225428  28.2766209  18.7536106   3.1991704  11.2740116  82.9471359
   2.5804069  11.2406549  82.2175827   3.8209891  11.9594326  82.7026596
  85.4404984   5.9617333  15.0857306  86.0573425   6.3569169  15.7018204
  84.5877914   6.0481091  15.5119514   5.0715442  23.8315945  70.7048721
   5.4938545  22.9857159  70.5552826   5.0536695  23.9252644  71.6573105
  19.2365494  64.5417709   9.0518589  19.0067272  64.0688629   9.8517179
  19.9491348  64.0308533   8.6679077  64.1261139  31.1606789  82.8620758
  63.2816658  31.6044388  82.9409103  63.9016418  30.2542629  82.6517105
  61.2924805   8.8002186  45.6357002  60.4420891   9.2330351  45.7114487
  61.4949036   8.8318748  44.7006836  65.6790390  21.3141155  46.9033699
  65.0255051  21.8625450  47.3373528  65.4434433  20.4198551  47.1503944
  84.5959930  66.7121964  28.6448078  84.9977417  66.8744354  29.4983330
  84.6541824  67.5519867  28.1891804  22.5329094  62.4612007  22.2925167
  22.9076576  63.3376236  22.3801136  23.0148849  61.9301605  22.9264965
  77.4702225  44.6072388  43.4636688  76.5469208  44.4698906  43.2518234
  77.8901596  43.7722702  43.2570000  14.7089195  54.2210083  70.1595383
  15.5719433  54.5387917  69.8941422  14.6168261  54.5083389  71.0679398
  11.8704643  34.6379051  26.3680382  10.9960337  34.2730789  26.5040684
  12.3653049  34.3688354  27.1419659  62.3437691  30.1192379  37.8602295
  62.6936111  31.0011654  37.9869003  63.0475006  29.6435032  37.4190102
  38.4176559  57.5697136  54.5902901  37.8812370  57.7343102  55.3657837
  39.3192978  57.6532860  54.9005966  84.2249222  51.3467598  72.4495544
  85.1481247  51.2000389  72.2436447  83.8138275  50.4906616  72.3298340
   5.3004827  34.3895988  19.4745560   5.1087728  33.6611137  18.8839741
   5.6962485  33.9775467  20.2425499  74.0595703  28.2069302  51.8433189
  73.1819153  27.8689060  51.6652718  74.0577927  28.3954716  52.7817650
  23.3977566  54.9845657  33.6182213  23.9665318  54.3653145  34.0756683
  23.6926022  54.9532890  32.7081032  55.5605698  39.0854187  12.3289318
  55.0918312  39.5709724  13.0077181  54.8744736  38.6207390  11.8497906
  27.1805496  -0.0734299  71.2593613  26.9896030   0.3361326  70.4155426
  27.8567963   0.4817834  71.6475143  64.8739624  70.4373779  52.2911606
  63.9759369  70.1390610  52.4353447  65.3790512  69.6318665  52.1804008
  16.4755421  16.3069668  78.6207504  16.3019581  15.5221338  78.1010056
  15.6199398  16.5576267  78.9691010  73.2217789  16.9210510  80.7215118
  73.0508347  17.6141109  80.0838013  74.0929642  17.1205158  81.0642700
  78.4922104  16.0433064  65.1194534  79.2058258  15.5359898  65.5062637
  77.7905350  16.0036964  65.7693100  11.1293364  10.0240097  71.6172714
  12.0773201   9.9653425  71.4984589  10.9763803   9.6788645  72.4968796
  54.2755585   1.9438610  26.2633877  54.8640823   2.2064204  25.5556202
  53.5235329   2.5300679  26.1794453  25.6963139  22.3166962  25.6656075
  25.4469433  22.3914337  24.7444878  26.1784954  23.1229000  25.8493748
  20.3246078  14.5306978   8.1777077  21.2392311  14.7865705   8.0584412
  19.8355732  15.3506565   8.1088171  60.5140839  23.9116859  12.2246170
  60.9636192  23.2790909  12.7849503  60.5241661  24.7263355  12.7270870
  33.0639191  20.3924541  17.0609436  33.0905266  21.3209743  16.8299160
  32.3039818  20.0501976  16.5902081  53.8269463  57.6047707  85.7851105
  53.7625809  58.1933479  85.0329971  53.0344887  57.0698624  85.7391510
  58.9471703  63.6811638  23.8339787  59.4353256  64.0299072  24.5798454
  58.4476433  62.9491806  24.1957836  20.1466064  26.2324505  28.8886356
  20.1090221  25.5170765  28.2537670  20.6224384  25.8663254  29.6341343
  67.8502884  19.1446362  58.7726059  67.4383011  19.3937321  57.9452896
  67.1485901  19.2137337  59.4199600  30.8158035  48.7143517   3.5464451
  31.2870998  48.9857864   2.7587681  30.6087742  47.7920303   3.3957973
   6.3993707  18.0162354  57.1938400   6.3752737  17.1160221  56.8693924
   5.9100556  17.9876842  58.0160217  21.4933834   0.3003417  14.8543959
  21.0193939   1.0910194  15.1120663  21.4236889  -0.2787328  15.6133738
  35.5337105  19.8502388   6.3754787  36.1804657  20.2603893   6.9496903
  35.0143204  20.5806942   6.0394692  53.2568207  66.4201660  25.9919472
  53.2093048  65.6956406  26.6156826  54.1225777  66.8026886  26.1346741
  68.9674530   2.8800566  19.5515442  68.2991562   2.3091116  19.1725674
  68.5516434   3.7412598  19.5923100  42.3115044  27.2444763  84.2974548
  41.9079514  27.5597744  83.4887772  41.8985062  26.3956566  84.4561081
  82.0660934  25.0329113  15.2801971  82.2211456  25.1599846  16.2161694
  81.4875946  25.7543869  15.0331345  16.1219463  69.8866348  24.8191814
  15.8436813  70.7500839  24.5137997  16.9443436  70.0495148  25.2810936
  76.9312897  41.9808197  39.2623672  77.8240356  41.7579269  39.5260963
  77.0420609  42.5721397  38.5178528  38.0606918  70.4917755  12.9542809
  38.9274216  70.7196350  12.6179838  37.6499062  71.3343277  13.1481657
   4.5535583  13.9959211  28.2978573   4.1824765  13.7325058  27.4557514
   5.4652753  13.7070055  28.2587223  77.7033081  29.6908855  13.0992584
  78.1259155  29.3587666  13.8913002  76.7668991  29.6549721  13.2943840
  72.9373779   2.4568422  64.7526855  72.9451981   2.8662333  63.8874893
  72.0153885   2.2571812  64.9148636  52.1645164  32.3173752  80.2501373
  51.6908302  31.4857616  80.2667313  51.7347298  32.8241119  79.5611267
  45.7081070  17.7905922   6.9171305  45.1890450  17.6237869   7.7038832
  45.1870956  18.4170494   6.4148073  27.7226028   4.7254972   6.2961226
  28.6620026   4.5947142   6.4251852  27.3116035   4.2142529   6.9932170
  65.5670319  10.2989578  44.6468811  66.4716339  10.0180349  44.7847443
  65.3783722  10.8721819  45.3898849  26.8970490   0.2190209  68.4389420
  26.6208954  -0.3432098  67.7151566  27.2562332   0.9977514  68.0137405
  28.1701736  50.0515442  83.3288345  28.9475117  50.3681641  82.8686981
  28.0382996  49.1645775  82.9939651  84.8892059  71.5761185  17.0584583
  85.6149368  70.9777908  16.8808327  84.1077423  71.0253525  17.0115128
  35.0445099  54.6196098   5.3890495  35.5086784  54.2476921   4.6390777
  35.3949242  54.1486969   6.1451473   3.5602679  59.8672676  23.2798882
   3.7281642  59.2251663  23.9696350   2.7108231  59.6140594  22.9185562
  27.7935963  56.7860069  33.5227966  28.5947075  56.9981956  34.0017853
  27.0885124  57.1309586  34.0706062  25.8769474  69.2557602  79.3992157
  25.9496193  69.3567505  80.3482971  26.7223358  69.5515060  79.0614471
   9.8307390  19.6379337  84.6302719   9.9195852  20.4038181  84.0630341
  10.1980782  18.9171009  84.1187134  25.2209854  59.0063400  10.2850285
  25.8662834  59.4963303   9.7753925  25.0422459  58.2268105   9.7590799
  57.0391998  13.9025459   3.2474864  56.7204666  13.1418400   3.7332489
  57.0609665  13.6124763   2.3355558  49.3136520  36.3140564  18.4220619
  49.4189758  35.8220367  17.6077805  50.0756912  36.0721245  18.9483643
  12.8742752  53.5237579   7.9931693  12.6763391  53.2435455   7.0995617
  13.7023954  53.9978294   7.9176383  61.9382133  13.6389027  83.1897659
  61.9102516  13.0033569  83.9049759  61.0194130  13.8399725  83.0119705
  61.0606461  19.6988754   4.0327187  61.6794891  20.3423653   3.6874862
  60.6378212  19.3325329   3.2560298  42.4722824  21.8376961  73.9502487
  42.0605125  22.6825142  74.1317978  43.4071884  21.9931583  74.0844650
  53.1332588  49.2867279  75.0007858  53.3310966  49.1745872  75.9305801
  53.8096046  49.8845711  74.6824112  46.4998322  38.3814468  73.8670578
  46.6517830  37.4529305  74.0431290  46.1091614  38.3987541  72.9933853
  70.2564011  51.7823410  40.5020218  70.1595306  51.5620270  41.4284706
  70.6037750  52.6742821  40.5029907  28.4028320  35.4261093  71.3062820
  27.8059673  34.9731865  71.9019775  29.1659508  35.6351395  71.8449707
  31.5887985  62.0393257  76.8258209  31.2378540  62.8122215  77.2681961
  31.4138947  62.1945496  75.8976212   1.7246155  50.8988037  45.2257690
   2.5929797  51.2677536  45.0643616   1.1189960  51.5404282  44.8545876
  24.4391499  16.1712513  10.3193464  24.8651810  16.9590836   9.9816360
  24.7824173  15.4617815   9.7761602  76.6576309  70.8585739  12.5317230
  76.5209885  69.9113083  12.5157452  75.8100967  71.2184372  12.7932892
  20.1222839  11.5332394  48.5385475  19.9712029  12.3714037  48.9754524
  19.7443752  11.6462164  47.6663933  84.7531433  49.6569366  12.8259439
  85.4597855  49.5738792  13.4662447  85.0650482  50.3195801  12.2096224
  63.2390709  45.5430946   7.7916393  64.0068359  45.8829727   7.3320203
  63.5660667  45.3019104   8.6583204  57.9541397  27.9649639   5.3563142
  57.2379265  28.5852051   5.4925804  58.6445770  28.2624359   5.9488029
  28.1187191  62.2914124  57.6377296  28.9562359  62.3099289  57.1746368
  28.3316269  62.5683594  58.5289116  50.3083839  58.2926140  63.7131424
  50.7052498  57.6276360  63.1505318  50.7099037  58.1515999  64.5705414
  56.2007790  56.6089249  58.9849815  56.9857216  57.1258240  59.1664047
  56.2368660  55.8893929  59.6152229   5.2479959  67.4520721   0.9536324
   5.6638131  67.3392487   0.0988813   4.5218687  66.8283997   0.9509259
   0.8282803  55.3833542   5.1052895   1.7747611  55.4107437   4.9650903
   0.7106767  54.7640533   5.8256130   0.1876821  33.4238815  84.6811752
  -0.7396237  33.6046448  84.8349915   0.6373205  33.8330841  85.4205017
  68.9386292  37.0813522  67.6741714  68.5667038  36.7670708  68.4982681
  68.3138733  36.7988319  67.0062714  40.2380714  49.9290009  58.1425247
  39.3139877  49.7033539  58.2492332  40.4679680  50.3860893  58.9515076
  56.4187698  41.9649391  37.8032150  56.7924995  42.3641472  37.0176010
  55.4720917  42.0354500  37.6805191  54.8235741  36.4466896  25.5093880
  54.3510933  36.1691933  26.2942390  54.1407585  36.7642517  24.9185028
  32.7110558   9.1067286  14.5980558  31.9386005   8.9092712  14.0683813
  33.2163849   9.7205896  14.0650949  58.2331123  32.7764130  69.8714523
  57.7818718  33.3327599  69.2365570  58.3627434  33.3399506  70.6342468
  65.5324631  63.7363396  31.0944462  65.0310745  64.0246201  30.3317299
  66.1706848  63.1165428  30.7412262  15.7881298  70.7729263  16.6907310
  15.5891228  71.0073318  15.7842655  14.9348574  70.7442093  17.1235504
  73.6913834  14.3499041  34.2843170  74.1490631  13.5481281  34.5371323
  73.5032883  14.2347689  33.3528709  18.6469040   7.8983617  35.7387733
  18.4998837   7.7375536  36.6708450  19.2333374   8.6545362  35.7157669
  62.4625435   7.0052958  54.4003868  62.6213455   7.5788407  53.6506805
  61.5345840   6.7793117  54.3367462  74.6937790  43.5602112  87.7879105
  74.6897659  43.7290306  86.8457260  75.6082458  43.3647690  87.9923325
  33.6422539  60.5745850   5.2960858  34.2247391  61.3211861   5.4358335
  32.8204842  60.9644547   4.9978819  71.3337708  50.0764427  18.6679459
  71.5150681  49.2659988  18.1919804  71.0557022  50.6942444  17.9917545
  37.2697449  49.5193977  66.3080826  36.9714241  48.7414818  65.8368301
  37.5784721  50.1112862  65.6220932  10.8526154  23.2576580  68.0310287
  11.4853725  23.8016186  68.5000305  10.1297636  23.1448593  68.6482773
  23.4371395  70.8829727  83.2333984  23.7853069  71.0574570  82.3590012
  23.7886467  70.0230179  83.4639511  76.6377792  18.3688164  33.6100006
  77.0051270  18.2638779  32.7323456  75.7779541  17.9510231  33.5612907
   3.6585577   1.9684026  43.5672188   4.3469753   1.8346387  42.9157448
   4.1155229   1.9400859  44.4078217  69.9649658  31.7787266  67.6283798
  69.3550415  31.2406540  67.1236954  69.4907227  32.5952644  67.7852097
  17.4359989  69.1017075  30.8810940  18.0714970  68.7335968  30.2671967
  17.9648933  69.6043625  31.5006428  60.2609711  41.3386726  87.5243225
  59.5333786  41.8301926  87.1432037  59.9072571  40.9796181  88.3380814
  69.1434402  60.2128563   1.6782202  70.0278854  60.3005753   1.3228366
  68.9014053  59.3047028   1.4968172  66.8633423  10.9471397   9.1772318
  67.0113068  11.6662617   8.5630627  66.6162033  11.3780022   9.9954672
  10.8268099  23.3701916  85.4328842  10.5755453  23.2359390  86.3467102
  11.5228157  22.7312222  85.2795105  47.2493172   5.6964288  16.1629810
  47.2524338   5.7143836  15.2059546  46.9013672   4.8328424  16.3852024
  38.0721054  42.3644562  87.9106979  37.5826378  43.0476570  88.3688354
  38.0113487  41.6006470  88.4843979  69.3959961  27.6047592  53.9814987
  69.1464615  28.4509716  54.3528290  68.9066010  26.9634399  54.4967003
   5.1645422  49.5550385   0.3433056   5.4902673  49.6581688  -0.5508416
   5.1748362  48.6099014   0.4944469  85.8555069  12.2485380  11.4523506
  86.6802368  12.7315359  11.5049057  86.1075211  11.3766460  11.1481752
  16.0054493  65.7197418  41.8090782  15.8948116  66.6686935  41.7500343
  15.2045641  65.3609848  41.4268341  81.0869904  43.9820671   6.6811719
  80.9650650  44.3497658   5.8058658  80.7973785  43.0732040   6.6016359
  61.1065292  21.8072662  41.3971901  61.6867752  22.5629082  41.3047295
  61.0932961  21.6290913  42.3375664  72.9705276  33.0298691  42.3588333
  73.0229416  32.0895576  42.5300102  73.4302979  33.4333382  43.0950813
  13.4569073  31.7488499  49.0207367  13.5892696  32.3360329  49.7649994
  12.7586231  32.1607971  48.5118828  24.7246895  51.8575058  14.3364592
  24.5077076  50.9355812  14.4750242  25.2245522  51.8658524  13.5201874
  48.0984230  37.4759407   8.2197847  48.2068787  37.3941307   9.1672955
  48.9532547  37.7703056   7.9053922  58.4642105  54.2011261   3.5674257
  57.9467621  54.3972244   4.3484654  59.2794342  54.6870537   3.6919858
  65.0373993  23.6153393  68.2103882  65.9598846  23.3935070  68.3370361
  64.5692902  22.7971420  68.3766937  22.5395985  41.6448631  14.3940325
  23.3940659  41.2201347  14.3183670  21.9583397  41.1119232  13.8514957
  61.9303093  22.4076023  79.8350754  62.1955414  23.2514877  80.2007751
  61.0421410  22.5557861  79.5103760  26.6342278  20.4101753   5.3988795
  26.7583714  19.9363422   4.5765028  25.7235088  20.2390652   5.6387663
  64.2298508  57.6420631  41.8675308  63.6146965  58.2929192  42.2054634
  64.8597641  57.5166817  42.5772629  44.9451599  68.3895111  34.5735168
  45.4379044  68.0732803  33.8162651  44.2397003  68.9159164  34.1973953
  75.3447723   7.4878011  53.8317528  76.2261429   7.3865852  53.4723434
  75.4852371   7.7913513  54.7286148  12.5177851  51.4333572  76.9836426
  11.5806122  51.2416649  77.0181885  12.9366074  50.6432610  77.3250656
  24.7276440  40.1426544  14.5228958  25.2309837  40.7392082  13.9688168
  24.9400101  39.2704849  14.1905527  66.8290710  40.5539551  27.7477741
  66.9057007  39.7024155  27.3173790  67.3033752  41.1557999  27.1741447
   8.4308825  36.7577782  61.4889030   7.9410625  36.8203773  60.6689110
   9.1554327  36.1646042  61.2904015  13.3920708  19.5632820  30.7529297
  13.7742138  18.7547035  30.4117546  13.2259541  20.0963593  29.9754562
   1.0145583  47.4224091  15.4834919   1.4868537  47.6832771  14.6928501
   0.2518294  46.9431915  15.1597214  44.9395752  61.3095627  85.2930527
  44.0802422  61.6801720  85.4941101  44.9965706  61.3411865  84.3380737
  64.3804550  43.2312889  19.6780739  63.8022804  43.9517479  19.9288387
  63.8920517  42.4409485  19.9084225  65.1012421  65.7758713  73.5723114
  65.9606018  65.6441116  73.9727783  65.2473145  65.6284714  72.6378784
  29.6299343  54.4140701  47.8779221  30.0164833  55.1150322  47.3530807
  29.9603367  54.5675621  48.7630844  11.2745609  40.1657104  41.4448013
  11.7977562  40.7212105  42.0226593  11.8747635  39.9200554  40.7407799
  12.0645466   3.3180506  84.2814255  11.9699621   3.8981483  85.0369263
  11.7165079   2.4777119  84.5796432  85.7422867  69.9192886  57.5339279
  85.3502960  70.6284027  58.0435753  85.3660126  69.1212311  57.9050789
  63.4291153  21.1473999   3.2483895  64.1868286  21.6693153   2.9843683
  63.8028641  20.4082088   3.7281177  76.0048828  50.3549004   9.1331263
  75.0656357  50.2423325   9.2793179  76.2537384  49.6080055   8.5886497
   2.8225186  41.2732735  52.3729172   3.1037016  42.0980072  51.9767113
   3.5820239  40.6966095  52.2901955  20.3045044  10.3291082   3.6967347
  19.5814972   9.7130527   3.5785477  20.1757603  10.9839811   3.0105875
   3.6667738  58.1637192  65.1004486   3.7944739  59.1096458  65.1721802
   4.3537264  57.8741455  64.5000458  30.9158268  69.0075684  71.0216064
  30.5412922  68.2090836  70.6496124  30.4140358  69.1567230  71.8229752
   6.3460717  37.4706001  32.1011734   5.5164566  37.0831985  32.3802605
   7.0014524  36.8017120  32.2994118   6.7800198   8.2535505  88.8150864
   6.0991654   8.6962137  89.3217621   6.4780879   8.3089819  87.9084473
  20.6673546  18.7314358  21.9983177  20.4546413  19.0688038  21.1281624
  21.4818516  19.1752052  22.2347355  72.4549561  34.0330009  73.0715790
  72.9376068  34.8562813  72.9974594  71.5356750  34.2969360  73.1101456
  55.1907997   4.7171621  51.2613716  55.6345711   3.8910255  51.0695419
  54.3531494   4.4558973  51.6438789  64.3401947  55.5209694  34.2743492
  64.3337479  54.5720863  34.1486206  64.1367722  55.6410561  35.2019424
  78.0131378   5.4145436  56.0894547  78.5724564   6.1750388  55.9312134
  77.2869644   5.7557726  56.6114349  84.9510422  33.6692047  64.1575165
  84.1534195  33.5358543  64.6696167  85.6479187  33.2978745  64.6985474
  11.9070377  52.0719643   5.8269629  12.4222517  51.2941284   5.6130652
  11.0287800  51.8744621   5.5015593  44.5479965  57.0967293  39.6294746
  44.9859695  56.9005775  40.4576874  45.2469978  57.4155579  39.0585289
  12.4120703  32.3085632  10.9849539  12.2764482  31.9081078  10.1261902
  12.6333160  33.2196579  10.7921200  62.8294334  42.5067291  33.2336731
  62.3821716  41.8867950  32.6575890  63.7556534  42.2766457  33.1601334
  26.0479469   7.0059834   5.1746645  26.1503544   6.0626554   5.0486617
  25.5478668   7.2966032   4.4119773  68.1069717  40.7732544  50.5020180
  67.1879120  40.5119667  50.4447403  68.0924301  41.5938530  50.9946060
  47.1598969  31.4029293  81.4673462  47.7893410  31.5888920  80.7706070
  46.4598656  30.9149170  81.0337219  39.3166122   0.6647257  71.4722519
  39.7075195   1.3963234  71.9499435  39.0493851   0.0487217  72.1544266
  47.6739044  27.6297035  16.6469250  47.1151199  28.0550556  17.2973595
  47.0747795  27.0862255  16.1351509   2.3970468  49.8768272  84.5479126
   3.2141399  49.4755058  84.8437729   2.6703131  50.5284004  83.9021530
  78.4754715  61.8948402  40.3905945  77.8845215  61.9600601  39.6404228
  79.2759933  61.5114403  40.0322571   9.1899319  20.7136669  76.8982697
   8.4254684  21.2696171  76.7474518   9.2751684  20.2005157  76.0947495
  79.4062881   1.9601046  38.5478973  79.5190887   2.8976018  38.7047577
  80.1846924   1.5574806  38.9328842  58.7154045  70.5855637  21.5439281
  59.3700104  71.0020981  20.9833736  58.0421219  70.2771225  20.9374752
  79.2085876  50.9735756  14.8741283  78.4025650  50.4650536  14.7848768
  79.8831711  50.4255753  14.4730492   4.2255621  20.1654186  72.0412750
   3.5031841  20.6066265  72.4881973   3.9572265  19.2474937  72.0007629
  55.3652458  39.5550613  18.2480965  54.4318390  39.7667046  18.2618427
  55.7549286  40.2267761  17.6884727  43.4241905  36.3893890  80.9444275
  42.9713097  37.0719604  81.4396286  44.3495522  36.5150414  81.1545410
  79.6587448  51.6007614  84.0016937  79.3070068  50.7120972  83.9488297
  79.0299530  52.0752754  84.5454712  85.3695221  52.2085571  48.6238327
  86.1240540  51.6197815  48.6077766  84.9123230  51.9898834  49.4358597
  19.4987164  38.2455292  26.5353985  19.1021271  37.4524803  26.1748142
  20.0604515  38.5730820  25.8329773  57.6342354  60.7799263  14.5949135
  58.4805908  60.3361320  14.5404587  57.3313103  60.8300514  13.6882973
  52.4538383  50.0987740  80.9948425  52.4819221  49.1988487  81.3197784
  51.5859718  50.1839333  80.6001511  75.5790558  23.0465736  41.5507355
  75.3228531  22.1796322  41.8653831  75.3313751  23.0486450  40.6261368
  28.8852863   7.3639646  30.4977684  29.6408005   7.9494514  30.4464397
  29.2651138   6.4870501  30.5523930  77.2926712  37.9399948  80.7513885
  78.1302032  37.5156593  80.9376831  76.8163834  37.9043999  81.5809174
  29.5753555   4.5945125   2.8736851  29.6137428   4.1061339   3.6960261
  30.4901085   4.7831726   2.6642377  28.1139412  67.6628342  22.0385189
  28.7398529  67.3935089  21.3662624  27.8608112  68.5512924  21.7879314
  59.2551384  55.0945511  41.3476257  58.4912262  54.5235901  41.2659340
  59.2343140  55.3938980  42.2565765  43.4327240  69.5268631  15.8629055
  44.0668983  70.0394058  15.3615494  43.3037682  68.7323685  15.3448544
  44.4069328  20.3196983  82.7619553  44.4231644  20.3939781  81.8077850
  43.4951439  20.4879093  82.9998169  12.0792694  19.7865162  42.1649590
  11.4274197  19.1618233  41.8470230  12.8051233  19.7113743  41.5455055
  66.6602631  32.6360207  46.3282623  65.7888031  32.2700882  46.1769753
  66.9505920  32.2328644  47.1464348  84.4265976  21.4329491  61.2201347
  83.7628098  21.9902744  61.6263390  84.4912872  21.7541409  60.3207550
  50.4217453  69.3713455  69.6781464  50.4018974  70.0083771  68.9639816
  49.5118904  69.0896149  69.7731552  61.7382736   1.1440939  34.0180244
  61.9938278   1.7442644  34.7185402  61.4281273   1.7148013  33.3149376
  37.0206070  45.7528839  36.1547127  36.0924759  45.5917473  36.3245354
  37.4622612  45.4789162  36.9585266  30.6607609  37.8087273  21.9578400
  30.9678173  37.9853477  22.8470821  30.2232819  38.6170540  21.6905346
  79.1244278  20.0805511  28.4067822  78.9692993  19.2371731  28.8320866
  79.6473694  19.8665695  27.6341400  15.2825489  18.2890148  81.2291412
  16.2233658  18.3964291  81.0892944  15.1617413  18.4344387  82.1674881
  27.0318489   5.6657200  53.3681831  27.3973827   6.0321622  52.5629883
  27.5199699   6.0958877  54.0702705  51.0609970  15.9690285  29.5756950
  51.4166527  16.1410751  30.4475536  50.1332092  15.7884855  29.7268391
  72.5200729  22.5476818  42.2223663  71.5716019  22.4512367  42.3080406
  72.6925659  22.4020767  41.2921638  80.2521362  14.4702015  77.7044678
  80.3069229  15.3104811  78.1596146  79.8210678  13.8870487  78.3292465
  26.2142200  35.4651031  73.8858414  25.7851486  34.8275490  73.3151779
  25.9094734  36.3147964  73.5674210  17.2111034  13.8809366   9.1775894
  18.1493149  13.8568239   9.3657646  17.1572781  13.8423681   8.2226830
  78.0484009  13.8952589   1.9859669  78.4819794  13.9418993   1.1338731
  78.7416000  13.6375055   2.5936427   5.0650129  23.3005676  12.4165249
   5.9376702  23.1608925  12.0488405   4.8221464  22.4516582  12.7861166
  11.3081903  70.8497086  60.7084694  11.4729137  71.7860489  60.8196526
  11.9972334  70.4231491  61.2178841   7.0967355  22.9759979  67.3840408
   7.5074077  22.1260090  67.5424652   6.8229237  23.2750416  68.2511215
  67.9419556  48.5719528  38.7318153  67.5202942  49.2983627  39.1909027
  68.8349686  48.5571289  39.0760994  38.4327507  63.4758224  52.5288124
  39.3428040  63.7061157  52.3417320  38.4889984  62.8305473  53.2335739
  71.1691895  45.1706848  24.2248192  71.8250122  45.1833038  23.5277004
  71.0259705  46.0933266  24.4356518  50.0746193  53.7984695  81.9432297
  50.6244087  54.2178574  81.2813644  50.6955833  53.4210434  82.5662766
  67.8400116  10.9374790  40.3338509  67.1491241  11.5874205  40.4622307
  67.4436340  10.1096935  40.6056709  10.3423510   3.6441436  57.7301216
  10.8254490   2.8482418  57.9523582   9.5790176   3.6300812  58.3074951
  63.8990631  15.2071362  22.1215668  64.5964127  15.7183342  21.7109375
  63.2479324  15.8577805  22.3841038  11.0244513   3.0764322   8.2531490
  11.7049313   3.2404203   8.9060555  11.1394672   2.1569951   8.0130692
  58.0665054  66.9182358  17.0665703  57.4634132  66.5109863  16.4447517
  58.2205505  67.7940140  16.7122841  13.6388569  61.3986702   3.4928300
  14.4404478  60.9004631   3.6524470  13.0003910  61.0264778   4.1011600
  16.7353096  43.6217651  30.6279907  16.1667957  44.3294830  30.9315701
  17.5576992  43.7564430  31.0989151  77.8141098  68.1316147  53.6614685
  77.2749405  67.5464706  53.1293716  77.1899567  68.5787506  54.2330704
  67.1120148  41.2512169  20.2085514  67.2137604  41.9180641  19.5294361
  66.7894516  40.4806633  19.7411804  48.0606613   5.2920170  61.0308228
  47.3121986   4.7163572  61.1878242  48.5378189   4.8743324  60.3138199
  69.1389542   0.0584530  45.3772278  68.6785660   0.5700667  46.0424576
  69.7499466   0.6782508  44.9787674  19.1891556  37.1415558  55.8639946
  19.4249802  37.9755135  56.2703590  19.0562553  37.3543434  54.9402580
  70.1469650   5.4447236  65.3312531  69.2251053   5.3575668  65.0887222
  70.6078949   5.5239062  64.4960861  85.6427002  13.2343464  26.8058739
  84.8594894  13.6990919  26.5112095  85.3059311  12.4831705  27.2942886
  21.9120560   7.5075388  32.8749924  21.6268654   6.6524372  33.1970177
  21.3952370   8.1372747  33.3775520  69.8396072  23.3169422  55.1410446
  69.2755432  23.9487896  54.6951408  69.2444077  22.6231670  55.4250298
  84.8675308  14.4536619  21.1326294  84.6983643  14.0176229  21.9677849
  84.3063507  13.9969206  20.5059776  29.8177872  54.5404701  68.2079163
  30.4137135  54.3533173  68.9332275  30.2320919  55.2643242  67.7382126
  38.4983635  38.1917534  67.4724731  39.0742836  37.4272270  67.4791107
  38.4523163  38.4648895  68.3887177  48.7116508  24.0749683  82.3740387
  49.1081276  23.8768711  83.2224503  49.1621857  24.8659058  82.0779495
  55.3353958  10.9270906  29.2964916  55.0619049  10.0111217  29.3458405
  56.1053047  10.9780226  29.8629513  40.8256760  65.7324142  61.0699501
  41.6576805  66.1859818  60.9347305  40.5765915  65.4241180  60.1986656
  12.4780493   4.4630895  86.6830673  12.9064875   5.2494864  86.3450546
  12.3748074   4.6304550  87.6198502  79.9192352  66.1652756  45.3294067
  79.7007446  66.9372940  44.8074074  79.1049194  65.6636047  45.3674927
  14.9272766  15.5349541  61.8473969  15.5130062  14.9693975  61.3441086
  14.6962595  16.2396431  61.2421875  85.8031616  34.4282875  31.3702965
  86.5898438  34.3846474  30.8267384  86.0172501  33.9066620  32.1437988
  76.5319443  17.1336880  71.1663132  77.2055511  17.6838284  71.5661087
  76.0549774  17.7245045  70.5835037  69.6956329  63.0345230  25.1757374
  69.3213882  62.4258347  25.8126602  70.6332779  62.8421326  25.1828709
   1.4432571   8.8701429  16.1531467   1.6911434   9.6915684  16.5774651
   2.1920931   8.6516123  15.5984211  66.5985336  57.3602943  66.6306763
  67.3662949  56.7889023  66.6136246  66.9565430  58.2387390  66.7587204
  67.7371140  30.9390221  69.7909241  67.5504532  31.8778286  69.7854385
  68.4062729  30.8318138  70.4669189  68.9207611   1.6616324  30.2175941
  69.6842194   1.1410142  29.9679527  69.1326141   1.9944875  31.0896931
  34.4272308  22.4126968  21.7718983  34.8853836  23.2336559  21.5920277
  34.4460144  21.9405689  20.9394474  17.1077366   8.3651571  66.7742310
  17.5131245   7.9778666  65.9984131  16.8928127   9.2599335  66.5107651
  21.6616154  26.2612972  22.4606476  21.3992844  26.8519630  23.1667137
  21.0802193  26.4840355  21.7336006  66.8726730  54.4257965  26.0456085
  67.2629929  55.0564423  25.4404964  67.5763779  54.2158127  26.6595592
  53.7885132   5.1494994  32.9518776  54.6345253   5.0248351  33.3819389
  53.3122025   5.7465410  33.5288506  68.7292557  51.2957115   7.1398315
  68.7067261  50.3388367   7.1291709  68.4107590  51.5331039   8.0107145
  32.3810425  18.5863705   2.2485511  31.6819229  18.8042641   1.6321194
  32.1948624  19.1208057   3.0205281  15.4449663  70.7987366  64.8691864
  15.4586983  70.1289902  64.1854630  15.4614296  71.6284103  64.3921127
  49.4612617   9.0342512  89.2405090  49.8267899   9.4411364  88.4549713
  48.5640717   9.3647194  89.2860489  79.8112411  32.7476692  19.9034138
  80.3328171  31.9467964  19.8505497  80.3934021  33.4345169  19.5785084
  36.7451477  71.2648087  46.4428329  37.5403519  71.7551346  46.2343407
  37.0464973  70.5432663  46.9949188  72.3821945  71.0104446  23.5911465
  71.5486069  71.2590179  23.9906139  72.5827332  71.7274399  22.9895344
  79.6369858  19.0165405  69.9839249  79.6536560  18.0794735  69.7893448
  80.0472794  19.0895672  70.8456421  30.4018574  49.7605362  18.9883347
  30.1469631  50.2569542  18.2106266  29.7654133  50.0172844  19.6556053
  75.0551605  47.0747070  61.7934532  74.6137238  46.4545746  61.2131042
  75.9272537  46.7021141  61.9232750  16.5664463  71.1544113  68.9008255
  16.2317314  70.2582779  68.9345932  17.4364605  71.0705795  68.5105896
  72.6246033  45.1430779  66.6530838  73.1906738  45.8129501  67.0365829
  71.7738342  45.2814598  67.0693436  74.2971039   0.9116504  50.7724190
  73.8088455   1.3567107  51.4650650  73.6223602   0.5271701  50.2128410
   4.3677044  55.9089661  87.3067703   3.6128891  56.1895103  86.7892914
   4.0014143  55.6836052  88.1619186  48.6954536  57.2707520  39.5921364
  49.6132278  57.0081673  39.5216408  48.2077942  56.4476624  39.5614090
  26.6603394  70.9297333  45.6640549  26.7050171  70.8835526  46.6190948
  27.1621532  71.7129974  45.4384003  17.4978371  42.8556786  17.6722736
  17.4126511  42.0268211  18.1434116  17.7965412  42.6047287  16.7981834
  31.3802814  55.8690834  50.0901833  30.8533516  56.2828026  49.4065056
  30.9457836  56.1124077  50.9076424   1.8212876  14.1345463  83.2410431
   0.9205790  14.3900089  83.4402771   1.9143015  13.2637386  83.6274033
  82.2671967  22.5296669  81.3056030  81.9254074  22.5943756  80.4138489
  82.2318878  23.4254036  81.6412201  58.4531746  53.2898788  65.1360626
  58.5768929  52.3446274  65.0498886  57.5269508  53.4291801  64.9387283
  14.3133068  31.7562122  72.5370102  14.3481464  32.6725731  72.8114166
  13.4650040  31.4439945  72.8518677  24.2062702   3.8887455  33.1146202
  24.7716446   4.2329655  32.4231758  23.3925591   3.6584654  32.6662025
  67.6751328  60.7585526  45.0658722  67.3752518  59.8725090  45.2689247
  68.5070953  60.6312408  44.6099510  12.0826368  60.3831825   7.6555419
  12.7788038  60.3279190   8.3101645  12.4333544  59.9222870   6.8934388
  63.7016563  29.7338715  59.1651001  64.3501053  30.1962185  59.6961174
  62.8643532  30.1237736  59.4163589  40.6578445  33.5559959  81.0936203
  41.4555130  33.3225098  80.6188126  40.1968918  34.1558113  80.5071259
  60.1349144   4.9469242  88.0637970  59.6802063   5.5407906  87.4664764
  60.9246521   5.4232645  88.3200073  46.9107590  38.2819481   6.0238481
  47.1399994  38.1179237   6.9386034  45.9687195  38.4509010   6.0395956
  70.6109085  16.1736717  85.5967026  71.1837463  16.3738918  86.3369751
  71.2042999  15.8688679  84.9102554  29.5766640  52.7476273  21.6894417
  29.1181698  52.0956116  21.1594505  29.0053082  53.5153999  21.6717491
  42.8575897  23.1389046  14.1148281  42.2451897  22.8889141  14.8067112
  43.0029755  24.0752258  14.2504625  53.3624039  52.8268089  24.4082890
  53.7126465  53.6322708  24.0277729  53.2230186  53.0388107  25.3312511
  22.7815056  58.3668976  46.7575073  21.9178314  58.1635551  47.1166039
  22.9079781  57.7243385  46.0593987  19.9986801  24.3462963  24.4680309
  19.3227730  24.6980991  25.0473537  20.3772793  23.6160049  24.9574890
  80.8116608   4.3815117  40.1565590  81.0995941   5.0938945  40.7273788
  80.1540222   3.9133503  40.6709175  50.8542213  33.1280098  24.3812027
  50.1654854  33.7886581  24.4548397  51.4784088  33.5010910  23.7587605
  34.8001823  71.2543335  29.5871220  34.7214546  70.3871613  29.9846783
  33.9899521  71.3640976  29.0894146   0.7995982  70.5855331   2.4509177
   0.6853873  71.4274521   2.8917792   1.3660144  70.0833054   3.0367301
  76.6212692   0.4941293  70.4062424  76.9542542   0.5200748  71.3032837
  76.7116470  -0.4218892  70.1436157  59.2629128  40.0589676  48.9937706
  60.1623993  39.9801178  48.6760597  58.7281075  40.0643158  48.1999283
  55.0681915  42.0682220  59.3205185  55.6287689  42.7684860  58.9864273
  54.2320328  42.1965103  58.8726234  44.2398682  70.9518661  29.0647869
  44.8362961  70.2169189  28.9221134  43.9050941  70.8199387  29.9517784
  86.1441269  66.1905823   5.9890122  85.8380051  66.9659042   6.4595428
  86.9632187  66.4675064   5.5783591  14.6353807  43.8364410  84.7182007
  14.4286671  43.9627609  85.6442413  14.2352228  44.5868759  84.2789383
   7.2254176   3.6680622  28.7775288   6.8415504   4.4827161  28.4531593
   7.0947018   3.0416157  28.0656929  47.9622841  38.8788643  22.8841305
  47.9740219  39.8199501  22.7096272  48.0108070  38.4740601  22.0180988
  20.3295994  60.1873360   9.8931417  20.6196270  60.2313271  10.8042841
  19.3811817  60.0706635   9.9490490   8.9603281  15.4896040   9.8713465
   9.6845522  15.8391533  10.3905249   9.0663338  14.5396147   9.9214945
   6.2798929  55.2561073   4.8675404   6.4673648  54.3176003   4.8505502
   7.1391873  55.6706352   4.9450774  57.0318680   3.0622020  64.2428436
  56.1085167   2.8437371  64.1166458  57.0435638   4.0159836  64.3228149
  65.9285507  36.5098801  51.6655617  66.8405380  36.4860954  51.3758392
  65.9577255  36.2081223  52.5734825   3.5817888  12.5376492  38.8384514
   3.9723325  12.9679918  38.0778503   4.3185086  12.3797894  39.4288368
  62.0273399  34.8202019  24.1497879  61.1148148  35.0886841  24.0427990
  62.4100685  35.4919853  24.7141075  15.4061165  38.9301186   6.9442215
  14.4903803  38.8026581   7.1920381  15.8381395  38.1138077   7.1956606
  26.3287354  35.3629684  88.3281555  26.5150337  36.1106415  87.7602539
  25.5971565  35.6526451  88.8732376  61.0091591  42.4239998  69.6068878
  61.7064323  42.8417854  70.1123657  60.4826393  43.1524048  69.2776031
  60.9990578  40.6623459  65.8297272  60.2267952  40.5272751  66.3789062
  61.4058838  41.4551277  66.1793289  29.7434998  54.4337387  78.0974731
  30.6786728  54.2675743  78.2160950  29.6977158  55.0124779  77.3364258
  62.8055496  13.8166761  72.7861862  62.6674805  12.9782238  73.2268295
  62.3892288  13.7092257  71.9309921  69.1326294  67.6777267  18.0470867
  68.6932449  68.5038681  17.8454475  69.8665390  67.6408386  17.4337006
  61.7030945  39.6107140  36.7843628  61.0687408  39.1003189  36.2810516
  62.4955025  39.6045074  36.2474403  81.3567963  41.2866211  50.0849152
  82.2109604  40.9783821  50.3876114  81.1907806  42.0761604  50.5999832
  36.2216034  22.4581547  26.7292480  37.1049881  22.6184196  27.0611782
  35.6475334  22.6638012  27.4670715  35.5220261  14.0030785  22.8680954
  34.7092590  13.6749220  22.4834442  35.5339851  14.9337988  22.6448231
  87.0639420  17.9898987  75.5171585  86.4834671  17.5155067  74.9219818
  86.4840775  18.3241997  76.2014389  56.6573830  68.5829163  86.2780914
  56.8703003  67.8351288  85.7197876  55.8109741  68.3594589  86.6652451
  61.3894424   3.0546491  27.5169086  61.7333717   2.4818082  28.2023258
  61.9623489   2.9001358  26.7658176  71.5267792  71.3009109  51.0551338
  70.7058716  71.2557755  51.5453415  71.2579575  71.2923965  50.1364937
  60.7505188  28.3857117  39.3485489  60.1119080  28.9275761  39.8120041
  61.1040115  28.9601383  38.6693535   0.1269636  -0.1173711  86.1222992
   0.1527782   0.8369337  86.1920700   1.0111282  -0.3615212  85.8486710
  58.4883804  55.6477165  15.1860466  59.3500443  55.4621849  15.5593357
  58.3374748  54.9344978  14.5657387  81.1966171  52.8663101  49.4554329
  81.8872681  52.2487907  49.6960716  80.9199677  52.5879440  48.5823898
  67.1230774  49.2986145  61.5860748  67.3289642  48.7296600  60.8443680
  66.5460205  49.9691849  61.2206001   9.5133801  48.5674553  59.2880745
  10.0305452  47.9805603  59.8397293   9.6138411  49.4283752  59.6942253
  76.1387558  36.7589149   3.4962337  75.9839172  36.2806244   2.6816821
  75.3150558  36.6842880   3.9780877   3.7337518  24.6098785  43.6324005
   2.9290409  24.5514870  43.1173630   3.5231769  25.2224960  44.3370895
   0.3939869  25.5672531  46.7094765   1.1583704  25.8516521  46.2084122
  -0.2501417  25.3220768  46.0452347  59.2392731  10.6801329  70.1482162
  58.9777031  10.1706085  69.3812714  59.9053421  11.2836418  69.8190308
   1.1896567  36.9736938  51.6817169   0.7024104  37.0421143  50.8606567
   0.5223622  37.0521507  52.3634758  39.3423042  68.0968246   7.4117794
  38.6814041  67.6439362   6.8880162  39.0553169  69.0099335   7.4220729
  52.2831841  43.3384857  65.0942764  51.5261345  43.8961754  64.9151306
  52.5386963  42.9987488  64.2366562   0.5322242  68.4657440  88.4033661
   1.3936356  68.8598480  88.2659454  -0.0415720  68.9241257  87.7894669
  60.4686050  15.7443810  72.1768799  61.3309860  16.0746784  71.9250183
  60.2722168  15.0684166  71.5282440  30.1891365  11.3099146  13.7044287
  30.2600613  10.9179525  14.5748119  29.5966969  12.0522394  13.8235950
  26.5057678  33.5316582  10.0412502  27.4442616  33.7166481  10.0764608
  26.3206806  33.4085464   9.1102190  74.0868683  28.8503723  84.3937531
  74.8180466  28.9896603  83.7919159  73.4129333  29.4621620  84.0975037
  47.7441673  53.2247810   7.5364838  48.6306534  53.5032997   7.7662683
  47.8041992  52.9702377   6.6157036  22.1861610  19.7562389  54.0884399
  21.9582157  18.8275890  54.1318169  22.8817062  19.8017406  53.4324074
   7.2610741  13.5278492  48.0686646   7.0508728  12.9893208  48.8315735
   6.5626869  13.3384838  47.4420624  62.8755417  69.5344086   4.7342649
  63.7070389  69.9287186   4.9976473  62.4556694  70.2013016   4.1909461
  50.9073105   5.0830960  86.6059723  50.5439720   5.0569615  85.7207947
  50.3336906   5.6830230  87.0827103  46.6450272  55.7801285  64.1086197
  46.7319336  54.9475365  63.6444321  47.1504936  55.6600342  64.9125595
  36.0899849  13.6452694   6.9845552  36.3848877  14.0235901   7.8128886
  35.3199883  14.1615028   6.7461405  44.9484596  67.4710846  59.1817436
  45.3404465  66.7970963  58.6264763  44.3022079  67.8984604  58.6196594
  53.2854004  58.9530067  62.6312408  54.1451340  58.5327492  62.6095238
  53.2470703  59.3757858  63.4891586  49.3808632  44.6711273  80.2043228
  49.8590889  44.4002037  79.4206543  48.9433861  45.4833527  79.9491119
  47.4341469  61.8106422  16.7971210  47.3253441  60.8861732  17.0201721
  48.0690765  61.8110809  16.0808144  78.6575623  33.9901276  14.3269510
  79.0107956  33.4208832  15.0106287  77.9492798  34.4695511  14.7567444
  56.1688385  48.9936028  50.3628578  55.6355209  48.2343750  50.5981789
  55.5338020  49.6907120  50.1985283  34.0720024  68.4140396  27.4889278
  34.7851486  69.0021591  27.2403908  34.0914421  68.4050522  28.4458885
  35.8695755  30.2730846  29.0353928  36.7545738  29.9274883  29.1518974
  35.7285233  30.8326950  29.7990494  53.7852402  31.7082691  29.8059082
  54.6828690  31.8833370  30.0884705  53.6043358  30.8218040  30.1184540
  76.0468750  23.6227970  83.6758423  76.9082184  23.8891029  83.9973984
  75.7052917  23.0438690  84.3573074  82.0005646  25.3382721  81.7752914
  81.1384583  25.7423534  81.8738556  82.5365829  25.7490273  82.4536667
  69.6381836  33.9847527  18.8025169  70.5229340  34.3163109  18.9558773
  69.6872559  33.5580025  17.9471188  51.5243797   5.1417241   3.5255611
  52.3318558   5.2042947   4.0357533  50.8263664   5.2968144   4.1619220
  79.2382736   1.3510441  52.0919647  78.9886932   0.9783517  51.2463646
  80.0133667   1.8794047  51.9014435   0.7823164  32.6356087  32.5680275
   1.6871961  32.9343567  32.4776115   0.8373613  31.6821327  32.5041161
  72.4128342  22.1340580  85.5305634  72.3620834  21.1872368  85.3994675
  73.2580109  22.3827114  85.1562881  66.7363586  61.8955307  10.6620970
  66.3840637  61.9615898   9.7745390  67.1468887  61.0313950  10.6931391
  52.8176804  52.7301826  82.0662079  53.1111641  52.8622169  81.1647263
  52.7520027  51.7798538  82.1599579  17.0834637  38.2609215  31.7096977
  17.4300480  38.8071938  31.0042191  17.4385605  38.6488304  32.5094872
  29.0785484  52.1333961  40.5185432  29.5693645  52.8220749  40.9669266
  29.0153599  51.4269943  41.1613808  86.2408524  28.0370655  44.4844551
  85.8214111  27.1990166  44.2895851  85.7690964  28.3691368  45.2482643
   1.5650469  58.5287170  15.3880444   0.8606524  57.9791374  15.7315874
   1.1295068  59.1208305  14.7749043  14.9443226  46.9786568  63.9027214
  14.5078306  47.6459045  63.3731079  15.3124409  46.3685646  63.2635689
   9.5345650  48.0879707   3.9267750  10.3114796  48.0547485   3.3686242
   8.8082714  48.2245445   3.3184359  45.4645157  56.4569168  49.6296387
  46.0461845  55.9060287  50.1534882  44.6374016  55.9757919  49.6044388
  15.3514423  64.9882202  52.4567795  14.6665134  65.5640335  52.1168556
  15.9765606  65.5804291  52.8748093  80.7470856  26.8354950  21.3007565
  80.0622559  26.4850159  21.8703175  80.3375626  27.5836010  20.8661766
  52.8201904   3.2831132  73.1556396  53.5761719   3.8338494  72.9521408
  52.2197075   3.4203744  72.4229660  33.0472412   5.7823753  30.3058739
  33.7973099   6.3717952  30.3846779  32.9652939   5.6234212  29.3655281
  37.3225174  46.3785095  15.5519962  38.1765671  46.5493279  15.9490490
  37.2687073  45.4241905  15.5008945  47.8886604  44.5808029  31.9656773
  46.9898720  44.9020348  31.8934193  48.3733368  45.0743942  31.3040943
  65.3717117  41.8556480  38.1073341  66.3237381  41.8198967  38.2000694
  65.1888351  41.3478775  37.3167877   7.6797996  62.2462425  67.5940399
   8.2866964  61.7893791  68.1764374   6.8287983  62.1669960  68.0250320
   7.7141709  52.5765572  55.8955383   7.6128736  52.0322800  56.6763916
   6.8992949  53.0761566  55.8444595  68.4352264  15.7284451  71.1027069
  68.5039520  14.9399261  71.6409912  67.7486801  16.2463131  71.5230713
  82.2716370  23.0525093  61.6044388  82.6738663  23.3561516  60.7906532
  82.5100250  23.7162399  62.2516365   1.7732006  64.4744263   3.9556932
   0.8303681  64.3298416   3.8757288   1.8582528  65.4131012   4.1226916
  13.9903126  43.8620071  18.6370869  13.2536764  43.4960823  18.1474972
  13.5847483  44.4385452  19.2846603  35.2427483  59.2223015  87.6622620
  35.2906799  58.2862396  87.4680328  34.3962173  59.4969902  87.3098907
  25.6825752  64.8876877  30.0315056  25.2810173  64.8191833  29.1653118
  25.0508690  64.4765549  30.6215477  48.8529816  67.9844208  54.8831787
  48.8768692  68.6847382  55.5352631  48.0586929  68.1553726  54.3770981
  79.7109451  20.7184315   3.0507627  80.3169861  21.4585171   3.0857029
  78.9046173  21.0502949   3.4456484  16.5278931  23.8000565   8.6114893
  16.9352684  22.9338799   8.6075029  15.9356260  23.7827263   9.3632545
  26.9522781  18.5220604  76.7939758  27.2904072  17.8835430  77.4218292
  27.7296238  18.9839211  76.4798889  68.4213943  65.3815002  42.8154221
  68.8183899  66.2453995  42.9263954  67.8889542  65.2598190  43.6015091
  21.5123615  50.8632011   1.9616795  21.1324158  50.8093224   2.8385890
  21.4634171  49.9688492   1.6240824  50.8375778  12.1599941  64.3001328
  51.1171303  11.6489420  65.0596771  51.6485825  12.5227175  63.9438591
  70.4602661  28.9405422  30.1099072  70.4968796  28.0680637  29.7178955
  70.8830490  29.5099106  29.4670162   8.7667961  41.6830597  38.0607719
   8.1253557  41.0580177  37.7229767   9.6028910  41.2199554  38.0087204
  53.5819397  35.3613434  83.8184509  53.3567924  35.7796211  82.9874344
  54.4495735  34.9853134  83.6699905  62.4535561  62.9866676  71.8073349
  62.1273918  63.8327904  71.5008621  62.7761993  63.1603737  72.6916122
  48.2762909  19.3427181   4.0554428  48.8992691  18.6842785   4.3629918
  47.5920029  18.8380909   3.6157436  54.5084381  34.1199989  10.9972630
  54.8769341  34.0484276  10.1167383  53.5647583  34.1966476  10.8564768
  61.5781250  30.4399796   3.3904350  61.6909065  29.4985161   3.5214224
  62.1506958  30.8428993   4.0431600  43.7497559  45.2595215  16.0062866
  43.7572899  44.6540718  16.7476406  44.1821556  44.7790833  15.3002815
  25.8405075  48.3025436  10.4831810  25.0802116  48.7756767  10.1450520
  25.8610611  47.4898682   9.9778452  49.6981049  67.1711960  58.6319962
  49.0883369  67.8149719  58.2714920  49.5319519  66.3750458  58.1272392
  19.8436756  71.5240555  56.4978142  19.6518841  71.2198563  55.6107330
  20.7732430  71.3319092  56.6211700  56.6626167   1.6761091  35.2802849
  57.0815277   2.5010450  35.0348778  55.9158401   1.6007015  34.6862526
  24.5798779  53.9108887  87.7165070  24.1451359  54.3797798  88.4288101
  23.9551392  53.9432945  86.9920197  48.7164459  55.6038208  66.4373932
  48.5359612  56.3707809  66.9809265  49.6711960  55.5728340  66.3763504
  57.8574753  36.6707115  48.1589584  57.5529633  36.3851585  47.2975845
  57.1227837  36.4891357  48.7450409  17.6357555  67.7947083  23.5551548
  16.9237576  68.4327545  23.6018696  17.7776966  67.6624146  22.6178265
  53.0326729  38.6260071   6.3583035  53.6824646  38.8375702   5.6880469
  53.1712646  37.6967621   6.5414066  36.5671692  70.7663193  20.4153767
  35.8127213  71.1888580  20.8258762  36.7735939  71.3222733  19.6640205
  42.5921936  29.3376942  20.3528938  42.7750702  30.1566219  20.8134842
  42.7590294  29.5384407  19.4319706  78.3001633  51.1884766  29.9612103
  78.4794388  50.2971916  29.6617126  78.7867432  51.7472191  29.3551731
  27.4234848  17.9845371  11.3934021  26.7745342  17.9988499  10.6899176
  27.0166588  18.4793625  12.1046505  71.7074432  25.0647373  38.5803833
  72.1916656  25.3192101  37.7948914  72.2957916  25.2790375  39.3043709
   6.7419157  26.4782276  45.3133698   7.6366239  26.8171387  45.3428497
   6.6742578  26.0548153  44.4575806  74.2491455  23.8623219  66.3327332
  73.9974289  23.7661114  67.2512207  74.5621872  24.7642250  66.2633896
  63.7655792   3.1810184  45.4078827  63.1088181   3.8700378  45.5086403
  64.1639023   3.3527367  44.5546074  65.8746490  62.9267921  76.6423492
  66.5542755  62.2534065  76.6125565  65.1873016  62.5492477  77.1912079
  60.7809410  27.3873291  84.4960251  60.6120796  26.5606346  84.0440369
  59.9158058  27.6911964  84.7706833  84.3898544  66.8736191  89.0205841
  83.8366699  67.4973602  89.4908676  85.0878220  67.4093018  88.6436081
  13.4221783   8.0681095  59.9048653  12.9307690   8.3508987  59.1336479
  13.0709705   8.5982332  60.6203079  82.4362411   5.7494311  80.0230103
  81.5827026   5.4269390  80.3123322  82.2343063   6.3546252  79.3094330
   8.0574036  53.8621979  44.3273697   7.6675673  53.1009521  43.8975296
   7.3119264  54.4207458  44.5476418  69.5120316  48.4110069  54.0942650
  69.5766068  48.2846146  53.1476479  68.8731689  49.1161118  54.1987305
  66.8148193   2.8997121  40.4513283  66.9147034   2.3597150  41.2353287
  66.6789703   2.2705457  39.7428589   5.4734335   4.0104675   6.8055987
   5.6304297   3.1869011   6.3437304   4.5199642   4.0814352   6.8513322
  70.7374878  48.1163635  47.5688057  70.0603790  47.9881058  46.9044952
  70.3239899  48.6741600  48.2276840   8.6076803  33.6292305   1.0400211
   8.5566740  32.7166748   0.7556433   7.9055300  34.0690765   0.5606952
  74.9745941  15.9334784  38.7844658  74.3253784  15.2308941  38.7508659
  75.0074234  16.2722378  37.8898163  74.6706238  19.3726788  19.9515896
  75.2006149  19.2088032  20.7316418  75.1304016  20.0759277  19.4930344
  17.2659416  20.4528694  18.4309273  16.9981537  21.3718472  18.4305573
  17.3305836  20.2218590  17.5042725  13.9756327  26.6738529  15.7763500
  13.7993708  25.7331562  15.7922401  13.9696655  26.9029865  14.8469982
  59.0076866  35.7900848  44.7304382  58.5766754  36.5033112  45.2013550
  58.8868065  35.0246201  45.2922974  58.8290520  56.7688026  50.2606239
  58.8005791  57.6158524  50.7055168  58.4806938  56.1495514  50.9020348
  21.7435341  69.8074646  70.8302689  22.6238785  69.4953232  71.0395355
  21.7153225  70.6975937  71.1811295  83.2581329  69.2205963  13.9196177
  82.8014450  68.3978195  13.7443705  82.9833298  69.8026581  13.2111578
  84.5458374  16.1632652   4.7347908  85.0646210  16.3506641   5.5170770
  83.8184433  15.6281748   5.0522943  43.6964340  10.3450165  59.5768471
  43.0128021   9.6833410  59.6820412  44.5037079   9.8410797  59.4739494
  51.1905060  28.3195896  28.7064381  51.7199593  28.0835743  29.4681530
  51.7313995  28.9440269  28.2229710  71.8234024  63.4544334  71.4324417
  72.6166992  63.7000542  70.9564285  71.4978485  62.6807823  70.9723282
  15.6615162  67.3841171  87.4331818  15.7983723  67.9764404  86.6938171
  14.7159195  67.2364731  87.4499512  76.0057144  69.6520233  50.5164719
  75.1993484  70.0371094  50.8595810  76.2639313  69.0090027  51.1768341
  11.4931345   4.3855877  55.3566513  11.0323229   3.9793229  56.0907021
  11.2755728   3.8361375  54.6036568  68.1346817  28.7503338  39.2385674
  67.3009491  29.2137070  39.1585159  68.3491821  28.4869156  38.3436775
  44.2915382  59.8316383  45.1565170  44.6769066  60.4878654  44.5759239
  43.3736420  60.0913239  45.2356491  71.0894394   4.6223865  33.5087242
  71.1091385   3.7098305  33.2204781  70.1683121   4.8743629  33.4434052
  68.0246277  18.5930405  72.1590881  68.7656097  18.9552364  72.6448822
  67.6949234  17.8877316  72.7159195  55.2007599  59.0438271  18.7620831
  55.8958588  59.5669403  18.3628082  55.5637398  58.1593895  18.8094349
  78.9869003  49.3587570  38.9979858  79.4502945  48.5570564  39.2404099
  78.0934219  49.2237587  39.3137474  72.1509476  60.4935608  85.4339752
  72.7567902  60.7903099  86.1130447  72.4082108  59.5876236  85.2627335
   7.7793736  62.5527191  -0.1345551   8.0904627  61.6799545   0.1057246
   7.8753405  63.0697975   0.6652290   5.4118099  53.3390121  86.6308594
   5.7815609  54.1583824  86.3020020   4.8980074  53.5980759  87.3957901
  60.4723892  10.1661015  76.8186264  59.5564613  10.0160542  76.5845490
  60.5503578   9.8269873  77.7103424  12.0894938  20.1086273  69.5727921
  12.5206451  19.4143867  69.0744171  11.7721786  19.6736603  70.3642120
  77.0804214  43.1225395  10.9124556  77.6092682  42.7936554  10.1855545
  77.0323792  44.0671730  10.7655048  59.6564407  13.0122709  89.0730209
  59.7945633  13.8453875  89.5236588  59.1449051  13.2415686  88.2971420
  40.5600243   0.7266802  65.2215118  40.4300461   0.8984869  66.1541519
  39.6745720   0.6794865  64.8609848   1.1445522  11.0418291  81.2967911
   0.1889046  11.0019732  81.3339539   1.3809237  10.4559603  80.5776825
  22.5225220  70.1154404  47.9512329  22.3020000  69.5931702  48.7224884
  22.9804459  69.5060654  47.3722649  16.4952087  42.0954933  25.8250523
  17.2269173  42.1697044  26.4376888  16.8299770  41.5442009  25.1177769
  82.9649353  24.7422028  59.5042992  83.8247147  25.1417389  59.3724823
  82.4057007  25.1546288  58.8459702  84.9966736  24.1250114  84.4153976
  84.1181717  24.4581280  84.5984344  85.3952713  24.7938805  83.8586502
  23.7461967  53.3879013  59.3677635  24.3566303  53.9980202  58.9538078
  24.1216316  52.5233421  59.2009735   9.6084719  60.5714874  69.2636108
   9.1345758  59.7426414  69.1952896  10.3587408  60.3729362  69.8238831
  73.6259155  53.7518425   4.1888843  73.2155991  53.4776802   5.0090718
  72.9376373  54.2277565   3.7241173  54.0325317  45.6292305  60.0376854
  53.1714325  45.2296638  59.9148598  53.8971062  46.5558205  59.8393936
  65.7824249  56.0002823   4.4962230  65.3595963  56.4295998   5.2399535
  66.5669098  55.5962868   4.8671703  67.8953476  65.4326019  18.4456863
  68.1449203  66.3095016  18.1541405  67.9373016  65.4768143  19.4009438
  45.7774467  18.6252594  77.9640884  45.6719856  18.2121983  77.1070633
  46.3591652  19.3679428  77.8020554  75.5393143  49.5937347  42.4037323
  76.1439209  49.5778656  41.6618195  75.0830307  48.7534828  42.3588829
  44.7771606  46.6158714   1.8195781  43.9761047  46.1819305   2.1132398
  45.2218437  45.9599648   1.2826650   8.6854172  50.4654045  33.0229874
   8.5587254  51.3635521  33.3287888   8.1663914  50.4101219  32.2206268
   3.2651987  55.6652870  16.5567970   4.0187840  56.1060677  16.9492912
   2.6410933  56.3692703  16.3803654  16.1829510  57.3796005  40.8992081
  16.4347553  57.1766090  39.9983063  15.4897518  56.7512856  41.1015091
  41.3414650  55.2132492  53.4654274  41.2688141  54.5762024  52.7547035
  41.2711563  56.0640793  53.0325584  22.5451336  22.6774559  53.9059067
  21.7592487  23.1604023  53.6502113  22.2222652  21.8142548  54.1644936
  17.2456570  69.3538971  11.3063316  18.0196648  69.4000854  11.8675890
  17.5659485  69.5927277  10.4365005   6.9233894  21.2218781  14.8911295
   6.6111889  20.7392826  15.6565475   7.2332201  20.5439720  14.2905626
  62.3176079  35.7702370   9.7983646  62.8714409  36.4012527   9.3386688
  62.9224701  35.0875320  10.0886822  62.1098289  16.7618942  17.2320461
  62.2602348  15.8296709  17.3887959  62.3095207  17.1808090  18.0692234
  76.6223297  52.6904678  66.7983932  76.7486038  53.4272766  67.3962250
  76.0786057  52.0742683  67.2891998  39.0085449  33.5535355  78.6370316
  39.1988525  32.6534538  78.3726883  38.3411674  33.4672241  79.3177490
  39.7387161   4.3696408  84.3503036  40.3875504   3.7137158  84.6052780
  39.2689934   3.9699683  83.6182861  30.1632500  65.8359985  43.5501976
  31.0488567  65.5100250  43.3899612  29.5912304  65.1164017  43.2833557
  37.7866440  65.1301117  65.9657135  37.0279236  65.7136154  65.9755554
  38.1465569  65.2200851  65.0833282  11.3916721  65.8224716  25.0277328
  10.7509785  65.1204834  25.1415501  11.1379147  66.2478561  24.2086563
  55.9096336  12.1710005  12.0659971  56.2825470  11.5977507  12.7357397
  56.6224632  12.7675190  11.8373613  23.8097610  65.0495682  43.3214417
  24.0684261  64.2478256  43.7759056  22.9044189  64.8916855  43.0537453
  48.7170486  66.1335831  30.7719803  47.7801247  66.3194733  30.7099018
  49.0405884  66.7502899  31.4286613  28.6640587  40.4434509  84.6486664
  27.9544430  41.0792656  84.5569153  29.4417458  40.9752426  84.8178635
  62.2694092  36.0184898  64.1960373  62.0935516  36.9552765  64.1080780
  63.0146141  35.9698792  64.7948227  62.3236122  64.2341843   0.0275905
  62.2732620  65.1769943  -0.1299041  62.0102386  64.1242447   0.9253343
   5.7637177  17.7232895  48.0654526   5.8220673  18.1175919  48.9357109
   4.8394132  17.4945488  47.9676247  12.0185509  23.2117863  78.8413086
  12.5069790  23.9042606  78.3961716  11.3683558  22.9266281  78.1993027
  38.8886147  71.2618484   8.5099010  39.1384010  71.7939606   9.2653494
  38.9388962  71.8627777   7.7665339  48.6165276  71.2203979   5.0089450
  47.8272476  71.6252823   5.3685808  48.2901306  70.5728683   4.3841286
  13.2831287  34.1088600  19.3553009  13.9447918  33.4371567  19.5203571
  12.5564632  33.6349754  18.9508018  14.9171457  27.8521233   0.8418829
  15.7049885  27.6036396   1.3254026  14.4484901  28.4405727   1.4337641
  83.0227585  37.8794289  56.8454971  83.0970688  37.6962166  55.9089394
  83.7881546  37.4557190  57.2339058  67.7950211  30.4947872  84.2922440
  67.4173660  29.6345177  84.1090851  67.7855835  30.9452343  83.4477081
  39.7406845  22.4921112   4.6027408  39.2880707  23.0966015   5.1909294
  40.6679878  22.7049618   4.7077804   4.1046386  43.1888924  83.8241119
   3.2440705  42.8686943  84.0945358   4.6233678  42.3959885  83.6882477
  45.8093491  57.3794327  19.6081028  45.4855766  56.4824448  19.6906776
  46.4185486  57.4824295  20.3391953  76.2404022  32.9331207  18.8110065
  76.6696014  32.0923004  18.6527462  76.8162308  33.5772629  18.3990135
  35.6344528  61.8850746  60.3794174  35.9582977  62.4343987  59.6655540
  34.6871643  61.8526802  60.2459068  72.7370071  40.5409393  52.1644783
  71.9995804  39.9577370  51.9847527  73.5038757  39.9682350  52.1519928
   3.4602547  14.9189291  40.4598503   3.3603656  14.1419926  39.9097366
   3.1855388  15.6454334  39.9004288  47.5662651  70.5005646  52.8741188
  46.8349380  70.2061234  53.4169769  47.7416534  69.7639694  52.2885475
  63.3227577  66.2746506  15.3632984  63.6279449  66.6556625  16.1866589
  63.0039864  65.4051514  15.6053686  85.3536987  50.8121033  76.5126114
  85.2508163  50.7621384  75.5622711  85.6530609  51.7067757  76.6744003
  24.3158188  36.6782875  84.1296997  25.1045742  36.1514702  84.2584000
  24.2914104  37.2621307  84.8878250  78.5181732  49.2630348  83.7935104
  78.3096085  48.3792915  83.4906387  77.7300415  49.7727852  83.6057968
  40.2843361  50.4522705  55.3588295  40.3904610  50.3843689  56.3077011
  39.4985123  50.9864693  55.2433319  27.9108238  36.0903664  85.6832047
  28.6637478  35.7042732  85.2356873  27.8500004  36.9771690  85.3280869
  61.3346786  67.9602051  64.2123642  61.2286530  68.9013977  64.0739975
  62.0356026  67.7072601  63.6115723  78.6721039  23.0076103  12.8126450
  79.4812393  22.9330139  13.3185749  78.8412704  22.5061932  12.0150242
  69.9662933  14.2900639  23.5783653  70.4497757  14.8214426  22.9458160
  69.3722610  14.9073610  24.0053329  31.9502525  51.9317245  36.1783371
  31.4671879  52.2352676  35.4097404  31.2718678  51.7231674  36.8206215
  39.9113083  57.2498016  41.1357880  39.5172806  58.0173340  40.7212219
  40.2963715  57.5859146  41.9450989  54.9598389  59.4700623  26.0610886
  54.4986038  59.6976395  26.8683701  55.8347588  59.2107735  26.3500690
   9.3289928  69.9150467  11.6128130   9.2199755  70.8561478  11.4761791
   9.5942936  69.5779343  10.7571230  45.8519554  44.6404533  78.8681793
  45.6584358  45.2155457  78.1278763  46.0238914  43.7871361  78.4700317
  62.9959183  53.7221527  78.8317871  62.3640327  53.7866249  79.5478897
  63.7647667  53.3112297  79.2270660  76.3933258  47.1643181  44.6192360
  76.9523010  47.5683975  45.2829361  76.9212952  46.4489250  44.2647018
  49.2394867  21.3224792   0.4193331  49.3953705  21.5871506   1.3259097
  49.0926018  22.1446438  -0.0483238   6.4264541   6.1234317  53.6586113
   5.6003952   6.6008887  53.5818481   6.8776789   6.5418158  54.3918114
  73.6145782  69.9143295  52.0971260  73.1156616  69.0988998  52.1459770
  72.9821701  70.5640259  51.7902069  68.9117508  48.1752853  51.2670097
  68.4359741  48.9987488  51.1584702  68.3905640  47.5323639  50.7861214
  47.3338737   9.5119553  75.3850250  47.1752663   9.3151550  76.3082504
  47.0075531  10.4045486  75.2709122  54.6725655  31.0974159  59.0503006
  54.7910042  31.9669552  58.6680603  53.7237015  30.9957695  59.1248398
  40.9242897   7.4625583  18.3504620  41.4588013   8.2030020  18.6372948
  41.5581017   6.8145165  18.0429592  14.9023495  46.9237862  85.8563232
  14.5703621  46.9622536  84.9593658  14.1472187  47.1460419  86.4009399
   0.7474599  58.7325668  29.7290649   0.6469142  59.4820175  30.3159561
   1.5391886  58.9259796  29.2270794  38.4316597   6.8091373  19.4003048
  39.2658958   7.1694632  19.0995541  38.4881821   5.8748369  19.2000065
  20.6391907   1.7222972  58.7761726  20.0625896   2.4142225  58.4521332
  20.4547272   0.9723862  58.2106323  65.2742004  18.1515541  48.5859337
  65.0442581  18.1835995  47.6573143  65.0967865  17.2474785  48.8455505
  72.0269089  61.1126175   4.6610279  71.8700943  62.0538063   4.7372155
  72.6046982  60.9058380   5.3956261  48.5543747  66.0576019  25.0477715
  48.9907112  66.5146332  24.3287640  47.7453156  66.5494537  25.1882801
  38.5842323  22.8594913  27.7440510  39.1709404  22.1670284  28.0481930
  39.1528931  23.6202641  27.6253834  21.4191856  31.7074833  26.9957981
  22.0000629  31.1965771  26.4320717  21.7362423  32.6069374  26.9140129
  42.0541267   2.8494384  63.6422615  41.4461441   2.3860519  63.0661850
  42.1302910   2.2865000  64.4126740  63.9503670  20.3866634  66.4046402
  63.5539284  20.5372677  67.2627716  64.8762665  20.5954399  66.5285873
   4.4783521  53.1337547  13.2123480   5.1451550  53.4565315  12.6061954
   4.6173019  52.1870766  13.2393179   2.8239799  34.6186600  34.9919052
   2.8302956  35.1256752  34.1800385   1.9562211  34.2153435  35.0156708
  36.9995651   1.8492001   7.9494953  37.7064400   2.3367374   8.3724222
  37.2663231   1.7878571   7.0322671   9.3741379  56.3275719  42.7859650
   8.7083912  56.6279106  42.1672478   8.9975958  55.5404892  43.1795998
  62.4043617  60.7971115   0.7666041  63.0382881  60.0952110   0.6192788
  62.7394981  61.2660141   1.5308353  42.0001564  39.9192162  69.6894073
  41.5467529  40.6775780  70.0575714  41.9252205  40.0321159  68.7418442
  26.7078438  14.6570244  76.1420670  27.3361397  15.0691719  76.7350311
  25.9948330  14.3682194  76.7116623  73.7566757  42.9974594  28.2777042
  73.9609222  42.8910103  29.2067795  74.2013016  43.8068771  28.0259380
  63.1964226   2.4431596  11.0379848  63.1723175   1.6695634  10.4747801
  64.1187897   2.6984787  11.0548754  49.1521568  36.9716606   4.4810510
  48.4612770  37.2930107   5.0604029  49.3597870  36.0995941   4.8166432
  58.3836937  67.8604050  25.4199104  58.0729485  67.9960098  24.5247688
  57.9987183  67.0244675  25.6830368  14.5694647  63.0836487  35.8930664
  14.5806704  62.6261063  36.7337608  14.8496466  63.9748383  36.1016541
   4.4646873  16.5151691  73.7482147   4.0590076  17.0585976  74.4237442
   4.4232831  17.0488338  72.9546661  32.9151649  59.5014992  59.5324249
  32.1425400  59.3393402  58.9911423  32.9886551  58.7228928  60.0843353
  20.9569874  23.7858582   0.7812890  21.1363029  22.8756447   0.5455148
  20.0131721  23.8109970   0.9388039   2.1176007  43.5784912  46.5289993
   1.4779062  44.2902794  46.5095596   1.6504507  42.8476219  46.9337654
  49.1723022  38.5728035  46.4457054  49.2158585  39.5274467  46.3910789
  50.0456543  38.2780342  46.1876450  64.6912460  28.1298962  24.8708382
  64.4560471  27.2091198  24.9852200  65.5325394  28.2195988  25.3185101
   6.6007743  24.9922924  42.9853859   7.2061152  24.3498325  42.6152000
   5.7415357  24.5749645  42.9239159  17.8724537   4.4189072  17.0020275
  18.0219002   5.0185909  17.7329693  17.0876293   3.9301538  17.2498245
  82.2038269  20.2056274  14.7872725  82.6599884  20.6387901  14.0658026
  82.5110626  19.2996349  14.7553463  45.4008331  60.9391785  50.5934372
  45.8909264  60.6302757  49.8314552  45.8242950  61.7636757  50.8324318
   9.5460949  51.9138756   4.5204883   9.1368532  52.3695717   3.7848957
   9.4032269  50.9854546   4.3364911  32.6316376  67.4033203  40.4016876
  31.7067795  67.1705933  40.3197899  33.0224724  67.1269608  39.5727692
  62.8322678  30.5083733   0.4955368  62.0982933  31.1187172   0.4249006
  63.3382988  30.8277454   1.2426414  36.0982399  60.8499146  79.6896820
  36.0008736  60.3150482  80.4775085  36.3775787  61.7059402  80.0143661
  62.7592392  48.3516121  45.7211227  62.3918152  49.2059937  45.9475288
  62.4501457  47.7669678  46.4131393  57.7840805  62.3344841  76.6738586
  58.2866287  62.7839622  75.9944153  58.0323143  62.7752495  77.4864731
  76.1800995  56.3050728  84.8401260  77.0063171  55.9769211  84.4852905
  75.7158890  55.5201988  85.1311951  29.7313995  53.9890251  59.2022858
  29.4696503  53.4514847  59.9497948  30.4869576  53.5326843  58.8319931
  25.9867992   7.2289610   0.1908967  25.9390278   7.9447756   0.8245839
  26.4779797   6.5422311   0.6418672  18.2291393  35.1891289   5.8124766
  18.0104694  34.3667183   5.3742366  19.0869522  35.4272308   5.4607687
  68.6458282   3.8617601   4.3299913  67.7951660   3.4230053   4.3400302
  69.2793655   3.1593328   4.4764833   4.9027476  33.1212997  56.3642426
   4.6305442  32.4135704  56.9484177   5.5566692  33.6079292  56.8660507
   5.0091863  49.4290924  85.2290955   5.6274509  49.7803040  84.5882874
   5.5465436  49.2286148  85.9954453  63.1099091  61.4667015  22.0604324
  62.6641235  60.6196518  22.0575657  63.3628654  61.6073227  21.1480331
  10.8739290  69.4155045  40.1598015  11.7966299  69.1694717  40.0940514
  10.4616699  69.0042572  39.4001007  30.1640186  45.0568008  86.0755615
  29.2475967  45.2826347  85.9161911  30.1705647  44.6929893  86.9609070
  25.9589176  52.8772278  39.0109329  26.8059750  52.6132240  38.6517334
  25.3554173  52.8168449  38.2704124   8.5520353  36.4652901  50.0735321
   8.3604698  35.8902473  50.8143845   8.2054758  37.3179741  50.3363113
  51.8038902  34.9025269  38.8286362  50.9484215  35.1792259  39.1570320
  51.9939117  34.0949059  39.3059959  63.9252930  54.9872437  43.2486191
  64.4031830  55.2399864  44.0385361  63.8740540  55.7914658  42.7320633
  12.3526993  61.6918488  33.4555855  12.2486715  62.2563171  34.2216034
  11.8207140  60.9207764  33.6522446  27.1533699  34.5692291  81.7022934
  26.5802612  33.9011955  81.3261108  28.0108948  34.1471786  81.7547913
  78.3383331   1.4428816  78.2458572  79.2833786   1.5949088  78.2482605
  78.1673126   1.0112387  77.4087982  71.4335709  55.4038391  48.2909126
  72.1904221  55.0300941  48.7422676  71.7100143  56.2885704  48.0520325
  67.9980698  40.1039314  88.1667938  68.3560410  40.9129257  88.5323334
  67.3466263  40.3967438  87.5295258   9.3484154  64.1308594  40.7454643
   9.4136839  63.5317039  41.4890938   8.4867926  63.9521294  40.3687782
  46.3839569  42.4106064  35.9729614  45.7037430  41.7618980  35.7920799
  47.0610504  41.9231949  36.4422264  11.8491898  54.2294846   3.6526692
  11.5827703  53.5212555   4.2388983  12.4113426  53.8051758   3.0044584
  78.0480042  66.0188446  57.5997353  77.2156525  66.2400055  57.1819878
  78.1496658  65.0791550  57.4485054  10.0018549  37.7226944  41.9119720
  10.0941420  38.6339684  41.6339455  10.8209419  37.5269775  42.3669701
   5.1395516  56.7557068   2.7134674   5.4869485  56.1757965   3.3911493
   5.2979507  56.2878151   1.8935788  76.4081726  54.6729355  79.3689117
  75.4820023  54.4319572  79.3496857  76.4568405  55.4783630  78.8539886
  69.1189346   5.4774427  17.1947441  69.4551392   4.6115203  16.9637108
  69.8968506   5.9793344  17.4380074  47.4479179  58.9294586  17.7008476
  46.6895332  58.3803368  17.8997250  48.2030220  58.3827324  17.9179535
  26.0945282   0.0390326  85.0572510  25.7770004   0.6483705  84.3908310
  26.6390667  -0.5822232  84.5737686   4.9744973  16.9044971   3.5972211
   4.0952535  16.9359074   3.2201588   5.5460682  17.2240257   2.8990529
  83.3486786  47.3675270  65.1572571  82.4552536  47.0548973  65.0148392
  83.6865692  47.5359421  64.2776566  33.2344894   4.3684916  38.5394745
  32.3116913   4.3827295  38.2855568  33.6258202   5.0994658  38.0611725
  54.9041328  59.0311432  15.2956419  54.1211815  58.4807701  15.2781391
  55.5710106  58.5133514  14.8446493  69.1522217  70.3626785  56.4871864
  68.7905426  70.5449600  55.6198959  70.1006622  70.3750992  56.3586121
   5.5048442  32.1306381  42.5739098   4.8691549  31.4164028  42.6185837
   5.2506247  32.6293221  41.7974281  43.3679161  14.4644823  88.6283798
  44.3000603  14.6669245  88.5486374  42.9654045  14.8863258  87.8692627
  60.3436165  65.5121155  74.1201172  61.2287560  65.7005692  74.4319687
  60.1797981  66.1750183  73.4493332   2.4713047  29.3102016  78.1768112
   2.5390561  28.8024006  77.3682404   3.3221045  29.7405777  78.2613525
  72.0323944  61.6558990  12.2028885  71.4730682  62.4212036  12.0698576
  72.6221085  61.6562653  11.4489183  32.4932594   6.0809512  58.5608902
  32.0537300   6.1648421  59.4070663  32.9796219   6.8993616  58.4614449
  82.3090363   1.0182844  44.9392204  82.0617447   1.6817163  44.2950630
  82.9792252   1.4426676  45.4749222  21.3980103  55.8071785  72.1665344
  20.5107231  55.7036362  72.5103836  21.8939114  55.0913315  72.5638733
  18.1293583  39.2077026  28.7577114  17.4083023  38.5885658  28.8716412
  18.5741920  38.9136581  27.9627953  35.2522278   0.6023989  50.4172287
  34.8141594   0.8311214  49.5974617  34.6254349   0.8438181  51.0991974
  52.0597649  64.6877823  78.8866043  51.9751892  64.1765976  79.6914444
  52.9766502  64.5839005  78.6321182  28.5031757  45.8521004  12.4717579
  28.2714500  46.5830879  13.0446377  28.2269211  45.0728531  12.9541378
  55.9920540  45.6304054  13.9763718  55.5337410  44.9913216  13.4307032
  56.7542992  45.8860512  13.4568911  69.0951843  18.4805279  42.1771240
  69.3694229  18.8168411  41.3239441  69.7290039  18.8467007  42.7939072
  72.8386002  39.8641319  19.8809566  72.2061310  40.2609406  20.4799232
  72.5564423  38.9526978  19.8040752   3.2213373  55.3106918  79.2622528
   2.2880845  55.2316589  79.4598007   3.2639408  55.3183098  78.3060303
  60.3814011   7.2532611  60.9468422  60.3986092   7.2245088  59.9902267
  61.2950439   7.1346793  61.2065010  54.8547745  50.1411819  33.6760216
  54.9228859  50.8626099  33.0506172  54.6705513  50.5667152  34.5134087
  28.5867310   7.5792632   7.1069236  27.8982315   6.9143395   7.1156821
  29.0961266   7.3862314   6.3198490  37.3954735  19.2372055  10.0527115
  37.3675385  18.4083118   9.5748119  38.1599197  19.1589718  10.6234417
   9.8876467  60.6034355  30.8591366   9.6049719  60.1383705  30.0717106
  10.6054811  61.1627350  30.5622673  13.6676188  34.2839317  15.2444267
  13.9140301  34.3479919  14.3217087  13.2125101  33.4446526  15.3130875
   7.7259927  15.6869898   4.1597509   7.0714335  16.3591652   4.3493905
   8.0853176  15.4542856   5.0158854  33.2786865  64.8372803  14.6812010
  33.2626419  65.5540009  15.3154602  34.0127106  65.0453796  14.1031561
  69.0923691  58.6224060  19.2244034  68.3798599  59.1627502  18.8829384
  69.8887253  59.0447502  18.9024334  61.3235512  61.8822975  84.9336929
  61.8484383  61.0824089  84.9638443  61.4768066  62.3013954  85.7805176
  57.9341812  26.4996223   0.5018669  58.6180305  26.6996899   1.1410521
  57.2309418  26.1064014   1.0186478  76.2114792  47.6346359  29.3315964
  76.2336731  47.5187035  30.2814903  75.7243729  48.4481964  29.2009182
  65.3179779  23.4177704  14.1786890  65.9147415  23.0474606  14.8290520
  65.1924210  22.7148876  13.5411749  68.2777100  16.1967430  24.0572033
  67.9126053  16.1427364  24.9403858  68.8307571  16.9778271  24.0740070
  54.0378265  46.5812683  11.1129255  54.8349838  46.4996452  10.5893679
  53.8473282  47.5193214  11.1145163  74.3181076  66.0375671  32.7455063
  75.1274796  66.4134827  33.0916901  73.7082977  66.7744675  32.7088165
  74.1372681  10.9748220  27.4343147  74.1631470  11.8010702  27.9168873
  74.3329773  11.2194786  26.5298424  20.0029507  19.8773746  85.4978714
  19.4579792  20.5983295  85.1824951  19.8799725  19.1831894  84.8504028
  63.5717850  62.4857368  57.8358841  63.5803185  63.2945366  58.3477478
  62.8524628  62.6026306  57.2152824  10.6070395  59.3596306  78.0048752
   9.7165871  59.2878990  77.6611023  10.5698175  60.0967560  78.6143799
  76.6904602  25.9964733  65.6944046  76.2424011  26.6674557  66.2094269
  76.4118958  26.1603489  64.7934113  74.6638184  36.0916977  87.7427597
  74.1928101  36.7728424  87.2627335  74.2693634  35.2721443  87.4444809
  45.8629875  56.8094368  73.1878815  44.9262466  56.9645691  73.0666962
  46.1750870  56.5410843  72.3236923  84.4217148   5.3262086  72.2271881
  84.0241547   4.4645977  72.1014786  84.2044373   5.5609207  73.1293716
  19.5672607  62.5214844  45.6169128  20.2502823  61.8633881  45.4879723
  20.0231190  63.3591232  45.5345154  19.7198772  44.7083397   6.0060415
  19.3208370  45.5731354   6.1015639  19.4344311  44.2258263   6.7818847
  55.1936989  52.9930878  20.4142952  54.5906219  53.1381454  21.1433277
  54.6398163  53.0291519  19.6344585  75.9533005  70.7365494  23.6989899
  75.3362122  70.2976990  24.2845192  75.5922165  70.5983810  22.8233433
  21.5762882  25.1592293  57.1642380  20.7172737  25.5798569  57.1268616
  22.1187344  25.6684666  56.5620270  26.8242836   2.4381070  61.1340408
  27.0651035   1.5805682  61.4845619  26.0672073   2.2642264  60.5747261
  20.3293247   6.3125324  44.8174706  20.3130913   5.3950019  45.0896950
  20.1017914   6.8011193  45.6085091  38.6221046  62.3337669  28.8589344
  38.4151535  61.4725990  28.4958992  37.8951225  62.5248642  29.4515629
  32.7209625  20.6931210  76.7059021  32.4565544  20.8018723  77.6194077
  33.4048729  20.0239487  76.7325592  67.3243942  40.8191681  72.7120743
  67.8053513  41.6362457  72.8436050  67.8385239  40.3406372  72.0617599
  81.5058823  67.0365067  12.9991217  80.6742325  67.2221680  13.4351578
  81.5154495  66.0848389  12.8967962  55.8493500   7.3079462  27.4736576
  55.7860756   7.5841727  28.3879490  56.7640152   7.0475979  27.3648605
  71.0544968  58.5513573  27.5584373  71.6445084  58.6956940  26.8186512
  70.6861877  57.6813049  27.4048481  79.9739914   1.0260565  22.5040226
  80.1427002   1.9443351  22.7150574  79.5739517   0.6677905  23.2963905
  81.9989014   7.8023529  82.2104416  82.3496399   7.5420232  83.0621719
  82.5465851   7.3415422  81.5748901  61.6399574  70.6332932  35.8328209
  61.7889824  71.2408295  35.1083107  61.4656105  71.1972733  36.5863228
  44.5905800  48.4472885  51.7936974  45.0324135  49.1788025  52.2248573
  43.7068367  48.4509239  52.1614189  14.5964842  52.2028122  88.5153809
  14.5098772  52.5329475  87.6211014  15.4628649  52.4970970  88.7964783
  10.5828581  65.9627762  67.7969284  10.9277544  66.8420944  67.6417999
   9.7539301  65.9428024  67.3186951  84.9975510  30.8692188   7.9413786
  85.6161270  31.0302353   8.6538887  85.0341492  31.6634369   7.4083600
  32.9363403  51.5477562  45.9019966  33.4710579  52.0538025  45.2902565
  33.2361031  51.8246651  46.7678452  34.3474617  43.8761330  18.5092468
  34.6475945  44.7362480  18.2153912  33.4817734  44.0395470  18.8835602
  73.2043228  47.6032295  48.4626083  72.3828354  47.3965607  48.0168800
  73.2633057  48.5578957  48.4256096  68.2259216  21.1887665  46.9628792
  67.2804260  21.3346405  46.9312553  68.6026077  22.0677376  47.0046921
  23.0508442  38.8590012  82.7904587  23.4288177  39.4606628  83.4318390
  23.3083401  37.9895096  83.0969086  11.2201777   5.8386512  61.8243790
  11.3666849   6.7312007  61.5111313  10.8541651   5.9498148  62.7018242
  69.4816589  21.0296288  12.7098284  68.9615402  20.4595127  13.2761059
  70.0691757  20.4339256  12.2448616  75.4007721   9.9219627  20.3143463
  76.2650146   9.8111105  19.9180870  75.5734634  10.3628511  21.1462269
  12.5374851  62.2211723  76.1351547  12.7618418  61.5005646  76.7238998
  11.9176064  61.8388519  75.5140152  41.8950615  24.3603420  18.1273975
  41.9127846  25.1459370  18.6739845  41.2723541  24.5674019  17.4305496
  -0.0004576  50.1216850  15.1001081   0.7824025  49.7749443  14.6721697
   0.2242236  50.1420784  16.0303421  40.7852287  39.1591339  18.8127632
  40.1618500  39.8835602  18.8660297  41.5255127  39.4401398  19.3505802
  61.3101196  34.3222389  50.8834381  61.1769753  34.8588028  50.1020279
  60.4359512  34.0019035  51.1058159  28.9850826  67.7842941  44.9403954
  29.2894173  67.1652527  44.2767677  28.0334244  67.7962875  44.8382492
  21.8722763  49.3392296  39.4761963  21.6325932  48.4459801  39.2294464
  22.6342373  49.2340584  40.0459213  22.4882469  66.1071930  85.1742401
  22.0226707  65.2708511  85.1756287  23.3798485  65.8845367  84.9064713
  17.3816204  67.3533707  44.7373581  17.5839844  67.8369446  45.5382538
  16.4252224  67.3261108  44.7092171  67.3388901  58.4837227   6.6564369
  68.2576523  58.3435173   6.8854413  67.3686066  59.0241394   5.8669443
  70.9473190  27.4583912  22.4389400  71.8393326  27.2016468  22.2052212
  70.4199448  27.2102928  21.6796265  52.3094025  36.3663330  78.1833115
  52.7246742  37.1258965  78.5917664  52.7365990  35.6123466  78.5898056
  77.1504059  67.7058868  70.4881821  77.1443787  68.1544266  71.3337631
  76.3733902  68.0354767  70.0366898  24.5757046  26.0811481  50.5505562
  24.6622791  26.6847649  49.8127327  25.2895432  25.4544926  50.4323730
  27.9714489   6.5355468  84.1323929  27.2282696   6.0051656  83.8449707
  27.6529865   6.9920206  84.9111404  51.1808548  59.8683929  89.0554276
  51.1314545  59.7938042  88.1024170  51.8464279  59.2298889  89.3114700
  15.7895851  65.1925049  28.6360493  15.8860960  64.3518753  29.0835609
  16.6836758  65.4455490  28.4062595  64.1138153  16.0355053  85.7957230
  63.7413292  16.8365269  85.4271469  64.6767120  15.6918364  85.1019897
  68.8742523  69.4912033  29.3053074  69.2650452  70.0834732  28.6628647
  68.2406845  70.0327454  29.7760105   6.4849906  36.9188881  76.6286469
   7.3920279  37.0109367  76.9202728   5.9781060  37.4336700  77.2565842
  12.8314009  15.6759558  43.2039452  12.1000814  15.6729774  42.5863724
  13.5962191  15.8870277  42.6684685  33.1510239  19.7042179  86.0379639
  33.5978737  20.5277672  86.2337189  32.6916962  19.8707237  85.2148438
  23.2205162  25.5393562  12.4819250  23.5008392  26.1876049  13.1280098
  23.7707043  25.7097473  11.7174034  25.8433628  61.1402931  57.8154907
  26.6189766  61.6877213  57.6931076  25.9649620  60.7418747  58.6772957
  22.4843712  42.9894943  77.0945892  22.0212269  43.8168449  77.2258072
  21.7922611  42.3538322  76.9125214  26.0791054  35.0186119   7.3634067
  26.1344395  34.5237274   6.5459342  25.2454777  35.4853783   7.3048577
  75.1260834  19.2599106  26.8965340  75.8848343  19.1551418  26.3224659
  74.3750381  19.0496750  26.3415966   4.6213522  66.4513779   4.8643436
   4.2593431  67.3315048   4.7616329   4.4757628  66.2385864   5.7861657
  52.9794540  69.1942444  76.7696991  52.7897491  68.6804123  75.9847031
  52.4840431  68.7612381  77.4649048   9.5268974   4.3330822  70.0178680
   9.0513287   3.9528441  70.7564392  10.2348719   3.7127864  69.8439789
  84.9857559  66.6813889  82.2618713  84.7973862  65.7544937  82.4088669
  84.2659531  67.1432037  82.6918030  20.7682495  44.6892433  68.4298859
  21.0749683  45.3862801  67.8499756  21.5620747  44.3647842  68.8550873
  75.3210983  30.3834667  71.0822296  76.1375427  29.8855362  71.0406952
  75.2625656  30.8188457  70.2317886   0.5382066  55.5301895  80.2209473
  -0.0911073  54.9108009  80.5904770  -0.0016856  56.1830559  79.7753906
   6.2463431  56.3050957  34.9710159   6.0381646  56.7188911  34.1333580
   7.2029281  56.2803154  34.9947319  22.2054749  48.2175331  24.4476604
  22.4560127  49.0156975  23.9824753  22.9515972  47.6290588  24.3326397
  22.0011482  45.3474045  40.7420654  21.8222885  44.8126678  39.9685669
  22.8745098  45.7074280  40.5876160  64.2149124  41.1332970  23.1410713
  63.4663429  41.6827927  23.3733006  64.9325638  41.7516861  23.0039330
  23.0950680  65.1288757  61.3452950  23.3606300  64.2171631  61.2249336
  22.1391735  65.1078949  61.2999268  37.8152504   2.2259929   3.3553853
  38.6945953   1.9313650   3.5924091  37.9233208   3.1519418   3.1381948
  27.5699501  68.0056305  53.6390266  26.9409351  68.3784561  54.2567444
  27.2624912  68.2951889  52.7800407  62.6769943  64.9360428  45.7105179
  62.8828926  65.7386475  45.2312965  61.7261963  64.8516769  45.6391220
  63.6140099  30.4866352   5.2700915  64.5298309  30.7400322   5.1547666
  63.6331596  29.8291588   5.9654970  64.3929596  61.4394073  78.6172180
  64.4564590  61.8525276  79.4783401  63.9264297  60.6193657  78.7787933
  75.4117661  19.0779533  76.5095215  75.8391113  19.6483669  77.1484604
  75.6592255  18.1924438  76.7757416  15.1871881  33.4570503   2.5607123
  14.2536497  33.6510353   2.6450179  15.2222471  32.6954308   1.9819770
   8.3975639   2.7093587  23.3582001   9.0067854   1.9728491  23.4095364
   8.4990416   3.0424311  22.4665737  34.2407799  67.8657684   0.3662447
  34.4659348  67.9094391  -0.5630724  33.2915382  67.7430878   0.3771959
  27.5219803   7.2295880  76.1172714  28.0794239   6.8980632  76.8212433
  26.9298210   6.5041752  75.9188843  45.3327065  60.2390938  32.7963715
  44.8899651  59.5090599  32.3636360  45.3475266  60.9341583  32.1384201
  28.1780777  48.5342255   3.5580814  27.9993877  47.7432556   4.0666766
  29.0077553  48.8606148   3.9064147  57.8898125   4.8174901  83.1055603
  57.7989464   3.9649808  83.5312347  58.7913818   5.0817814  83.2887344
  38.3525276  27.7566586  79.3370819  39.1025810  27.2752361  78.9879684
  37.9467010  27.1508827  79.9572220  74.5385666  44.7277069  48.3948021
  74.3122330  45.6553535  48.4616928  73.9868164  44.2987785  49.0488853
  84.0705719   4.5718241  82.1116486  84.7537766   3.9925907  81.7740860
  83.5865250   4.8498502  81.3340607  55.3423157  62.0930367  65.2052612
  55.1001625  62.5500565  64.3998260  56.0992050  61.5607338  64.9603119
  15.4367752  14.2131090  21.4092236  15.3406878  13.3187819  21.7366009
  14.6490173  14.6648731  21.7118416  10.8667793   9.3665342   7.7032108
  10.2566442   8.8079767   8.1848555  10.8940601   8.9890499   6.8240104
   3.9877543  30.2983742  22.0612888   3.6133146  29.4524765  22.3072224
   4.5272627  30.5486431  22.8113079   5.3695846  51.6695213  18.2969799
   4.5011230  51.6300316  17.8964233   5.6361799  50.7540970  18.3815746
  32.3645668  29.7479401  80.1932831  32.9672546  30.0065956  79.4960785
  31.4938431  29.8744946  79.8163834  57.2942619  18.3379059  13.1786222
  57.7665405  19.1075134  12.8609953  57.7257156  17.5985126  12.7503967
  78.1014633  29.8030701  77.2859116  78.5078888  29.9440079  78.1410065
  77.2293091  30.1886978  77.3687668  49.0537987  10.9710436  81.6899872
  49.1789665  11.8264618  81.2791061  49.9336357  10.7003059  81.9523315
  52.3917274   2.4447470  78.2923508  52.1808167   3.1390984  77.6681519
  52.6313019   1.6961886  77.7460022  19.8801060  35.7915039  88.8297882
  19.1325417  35.1961823  88.7752457  20.2845745  35.7480850  87.9633255
  32.2611732  64.6185379   4.8495150  33.1131973  64.7042007   4.4217896
  31.6464863  64.4691315   4.1311374  71.3933640  13.6031885   4.8553152
  71.8789139  14.3423243   4.4890466  70.6789017  14.0066328   5.3482680
  79.3367233  45.8418121  26.8505802  79.4774475  44.9164085  26.6504421
  79.2763977  45.8738937  27.8053398  54.2289848  40.6344414  49.2062454
  53.8607979  41.3446846  48.6806717  55.1057816  40.5000076  48.8465462
   0.1408780  48.1539764  31.1832447   0.9086624  48.6844139  30.9702282
   0.0492228  48.2356567  32.1325378  11.8696756  36.7352982   1.5769082
  12.4867153  37.4562035   1.4512480  11.0329237  37.1645660   1.7552586
  26.0120678  58.9066849  72.8331451  26.4889946  59.2675171  73.5805206
  26.3774529  58.0296707  72.7166443  70.9300232   6.2845173  76.9196243
  71.8087616   6.5798120  77.1580582  71.0512085   5.8129268  76.0955200
   3.7495470  32.0114403  34.6782265   3.4455173  32.9188919  34.6600761
   4.6740065  32.0733337  34.9185905  61.3868752   1.1189160  66.6793823
  61.2733536   1.0438509  67.6268539  60.5036125   1.2718954  66.3437042
  66.5624390  18.5253735  62.4323616  66.8207932  19.2801418  61.9033890
  65.8910828  18.0857487  61.9105949  70.3738556  44.6811028  70.0961075
  69.4219131  44.7338638  70.0109940  70.7017899  45.4155884  69.5772400
  40.6190338  48.1798668  63.2258186  40.6469727  47.5387421  63.9360390
  40.5424690  49.0249062  63.6688576   0.2568519  57.3407097  43.3694077
   0.0067459  56.6466942  42.7594681   0.5498553  58.0586586  42.8082237
  15.4751406  44.9261398  67.1177750  15.4888554  44.3962898  66.3207169
  16.1722755  45.5694504  66.9897614  37.4552422  48.4640961  63.3110542
  38.2318611  48.9251099  62.9939384  36.7896957  48.6284561  62.6430244
  10.7238493  18.9359055  71.9349823  11.1036434  19.4352264  72.6579437
   9.7821980  19.0933456  72.0038147  24.0522861  59.9402313  53.1842346
  23.5664082  59.5625687  52.4510765  24.7150688  59.2829704  53.3962669
  68.2208633   4.1854358  72.1939926  68.8380280   4.5852175  71.5811996
  68.7662735   3.8831542  72.9202042  65.0767212  36.7271614  79.0000229
  65.9516678  36.3801384  78.8259964  64.5195770  36.3138275  78.3404999
  57.1943207  35.7837524  12.7043428  56.4036980  35.3637886  12.3655558
  56.9947128  36.7197418  12.6866226  62.4534073   0.3667097  81.8163376
  61.7911720  -0.2659259  82.0946274  62.7600212   0.0366256  80.9717865
   8.3456554  33.4742317  53.9834671   8.9992456  34.0244865  53.5518723
   7.6597290  34.0845718  54.2540627  82.1483994  32.7167549   4.1765618
  82.0142593  32.0709686   4.8702445  82.1918411  32.1991234   3.3725715
  78.2807007  22.4161263  16.9196529  78.0789108  23.2244015  16.4482670
  78.6127167  21.8225594  16.2460995  31.9820271  54.8663826  43.9212227
  32.2042656  54.8747902  42.9902153  31.6193027  53.9936714  44.0730057
  48.7594795  62.3037682  57.0718689  49.3858948  62.1679077  56.3609657
  47.9256401  61.9932938  56.7189560  74.6752701  32.7286301   3.0673375
  74.0499496  32.4148636   3.7206023  75.5277863  32.4416924   3.3946242
  61.6331329  24.4715500   9.7776070  60.9599724  24.4426708  10.4574995
  62.1277161  23.6605701   9.8956423  70.9119644  48.3940773  74.3845215
  71.6031342  48.0895500  74.9725494  71.3290863  49.0753632  73.8571777
  49.3629456  49.9385986  83.4285126  48.8302689  50.6095505  83.0015335
  49.3360748  49.1935349  82.8281937  40.6284904  67.6681290  77.8789749
  40.9619827  68.5269699  77.6193542  39.9500046  67.8603134  78.5262451
   8.4741030  46.1036263  72.9776077   7.8006053  45.7477112  72.3979874
   7.9921045  46.6525536  73.5961456  80.3087769  28.9429607  73.9726639
  79.8601990  28.0999699  74.0388031  80.8884354  28.9662037  74.7340317
  11.6416979  19.9888401  17.6384640  11.6666508  20.5660324  18.4016533
  12.5483208  19.7040119  17.5238361   1.8409883  42.8152313  59.0694237
   1.0576177  42.4173279  59.4492035   2.5639024  42.2789268  59.3950081
  48.7448921  10.3987360  36.3668213  48.7406044   9.4418058  36.3891373
  49.6370468  10.6282539  36.1068001  51.8183594  55.4357224  72.6771622
  52.4742851  54.9112167  73.1363907  51.1018105  54.8251381  72.5040207
  45.5264511  11.9696598  74.3021698  44.9086266  11.7160196  74.9878693
  45.7867889  12.8615656  74.5323029  27.8383255  51.1197510   4.7363586
  28.4683075  50.6715050   5.3006539  27.7425461  50.5427361   3.9786568
  37.1895981  26.0360470  25.7776165  37.0883980  26.2173748  26.7120190
  36.4578476  25.4566002  25.5654545   4.5864105  42.0350990  13.1389589
   5.1704926  42.7880096  13.0483761   5.0451446  41.4468956  13.7388039
  50.2902985  55.4372559  33.1625137  50.2578888  54.9504318  33.9860344
  49.3964882  55.7561531  33.0374641   8.1656570   1.8217082   4.2899861
   8.9549236   1.9763227   4.8090091   8.4815922   1.3891565   3.4966915
  62.2545395  31.8523655  55.1882057  61.4655838  31.3104477  55.1779022
  62.0693359  32.5327415  55.8355255  27.1831455  64.0444870  23.4947052
  26.3428993  64.1633453  23.0518856  27.8318329  64.0829849  22.7918854
  58.2625694  55.6826134  80.0266266  58.9548187  55.8751106  80.6590576
  57.6892700  56.4484749  80.0585403  63.7402191   7.8080564  81.9653015
  63.0539551   8.4680815  82.0634842  63.7849770   7.3800578  82.8203125
  69.1824951  10.2845116  37.3566971  69.0711365  10.0352964  38.2741508
  69.2496033   9.4521360  36.8888512  55.7481422  21.1944599  37.0496521
  55.6799850  21.2100430  38.0042953  55.4773674  22.0707893  36.7758636
   8.1949348  45.5092697  78.9387360   8.0613832  45.7918434  79.8434677
   7.3168874  45.5031090  78.5576477  63.2158546  29.2149086  53.8704643
  63.2196732  30.0541573  54.3307648  62.7831268  29.4007587  53.0371323
   0.1703117  14.7499962  61.2839317   0.4794603  15.6496897  61.3898163
  -0.4145461  14.6085329  62.0283546  61.1582375   2.2955720  43.3203392
  61.3878670   1.6485983  43.9873695  60.4174423   2.7726123  43.6943550
  17.1904697  31.8271027   0.7046037  16.9308167  31.4405975  -0.1317131
  16.8584633  31.2173996   1.3635901  26.9917736  19.5245552  80.2794418
  26.1840115  19.0110607  80.2882004  27.6824017  18.8877563  80.4631577
  11.6202135  67.3818436   3.4509063  11.6607323  67.8204651   4.3007331
  10.9214039  66.7350006   3.5483050  18.5206394  45.0937729  50.7129440
  17.7928028  44.7591286  51.2368660  18.1228905  45.7523270  50.1434441
  84.9839096  18.1689682  77.3594513  84.7852402  18.3342400  78.2811050
  84.4888458  17.3780804  77.1458130  27.3556309  57.9204369  57.8009834
  27.8223839  58.2202835  58.5810242  27.8331470  57.1393089  57.5216103
  44.3878098   0.7715840  36.6959534  45.2917175   0.4572069  36.7146683
  44.4119034   1.5358250  36.1201172  63.7130966  32.0765381  46.4387817
  63.8335381  31.4710598  45.7072601  62.9163437  31.7719498  46.8731117
  21.7354050   9.9024086  17.3379078  22.3557911   9.9388285  18.0659389
  21.1637592  10.6583109  17.4723129   0.3191065   4.3841238  66.9577866
   0.0073179   4.8816400  67.7137604  -0.2369842   3.6052830  66.9377365
  62.8523712  69.6511002  69.8475876  62.7653008  68.7892303  70.2548141
  63.7366829  69.6546631  69.4812317  23.4346504   6.8241897  40.6333694
  22.9124031   6.7185178  41.4285583  22.9072075   7.3948898  40.0744972
  11.5752163  55.2157173  20.7707310  11.3798389  56.0665398  21.1633663
  10.7183399  54.8092117  20.6413212  45.7229576  50.7530785  14.5483446
  45.8386345  49.8684196  14.8950863  46.6137085  51.0867691  14.4413652
  63.1833382  62.0400620   2.9463997  63.9305267  62.6203995   3.0918179
  63.1495819  61.4920120   3.7304487  74.4506683  29.9472923  74.1783905
  74.8429184  30.8057518  74.3378143  74.7638092  29.6986580  73.3087082
  77.8764267  20.1313038  68.1225433  78.5577240  19.7318974  68.6634140
  78.2330399  20.1110077  67.2344818  68.0569382   2.8366799  50.6848068
  68.0128708   3.3902471  51.4644585  68.1981354   3.4497802  49.9634171
   1.3676288  66.4657364  11.8917208   0.8572062  66.6498260  11.1031694
   1.9872122  67.1929321  11.9511700  43.1684036  58.8200150  50.1845284
  43.9408188  59.3216133  49.9237518  43.4431610  57.9054832  50.1184196
  56.2398987  37.4673920  85.1969833  56.6927567  38.2081375  85.6000366
  55.3268051  37.5701866  85.4651871  67.3607178  44.7688332  70.3514557
  66.9431458  45.5851173  70.0765991  66.7422180  44.0850182  70.0943909
  73.1193390  63.6328392  46.4512749  72.8759003  63.3020096  47.3158684
  72.3478317  64.1147156  46.1532707  52.4762459  57.9567299  60.1556282
  52.4467926  58.6313629  59.4772186  52.8066063  58.4108315  60.9307976
  60.1866646  27.9372559   7.0849137  60.3178329  28.5776939   7.7841034
  60.6649590  27.1615715   7.3777986  64.0121841  33.1318321  50.5569153
  63.0586739  33.1981621  50.5054016  64.3302307  33.9483910  50.1718025
  33.6838989  71.2037735   5.3525410  34.1927643  71.2623901   4.5439291
  33.3900223  72.0999451   5.5160847  80.0405655  29.0800610   2.6564629
  79.7201920  29.8958931   2.2717433  79.4007187  28.8683033   3.3361588
  51.6801224  38.9824600  66.4535522  51.0417023  39.6933823  66.5104675
  51.7370529  38.6396942  67.3454590  71.7668991  24.2948723  51.6269302
  71.4875031  23.4570389  51.2578697  72.5673599  24.0889168  52.1097107
  69.9795227  57.7124214   6.8060985  70.1097260  57.4056892   5.9087720
  70.8597488  57.9240494   7.1169744  47.0938644  31.9410229   4.9847670
  47.9577980  32.1774673   5.3223262  47.2687645  31.2608147   4.3344140
   9.3277502  26.9711876  44.6894455   9.8167400  27.3818035  43.9763412
   9.7897215  26.1492424  44.8544388  48.2082787  17.7557411  23.7341824
  47.3566513  18.0836220  24.0230732  47.9983101  17.0480080  23.1248722
  51.2231140  38.9083748  37.8208847  51.6926155  38.9581528  38.6535416
  51.0537949  39.8208504  37.5864716  22.1302013  66.6063156  17.1990871
  23.0377407  66.9042435  17.2610817  21.8014107  67.0059128  16.3938236
  37.4903641   6.9676170  74.6939468  36.8061752   6.3173914  74.5348129
  38.3078461   6.4721246  74.6445007   4.9080176  65.9605103  81.5616837
   5.5598397  66.6466827  81.7049561   5.3359227  65.1577377  81.8594818
  68.0393372  52.1251945  34.8844070  67.7139282  51.7586174  35.7065811
  67.8920135  51.4338379  34.2389984  13.0741529  12.6880331  65.4127197
  13.5745955  13.4223442  65.7685013  12.9602900  12.9020662  64.4867325
  48.0427246  68.6197281  17.6352749  47.8227005  67.7113800  17.8419762
  47.9198303  69.0895920  18.4601154  59.2578850  44.3042870  59.9619675
  58.6689110  44.4501915  60.7022743  58.8684311  43.5700455  59.4871559
  30.2624798  40.7621613  78.3105774  30.0410538  41.6646881  78.0811234
  29.4301987  40.2917862  78.2627411  75.3156662  27.2410831  31.4529552
  74.5072861  27.7334080  31.5956745  76.0141907  27.8663731  31.6461124
  53.0611877  25.1922550   2.4778941  52.1999931  24.9161530   2.1643004
  52.8805618  25.9419956   3.0448992  59.3774605  45.1276855  26.9134808
  58.6855125  45.7070465  27.2325115  59.3058891  44.3453560  27.4603500
  10.4025583  25.8681698  14.5677271   9.6818285  26.2779083  14.0892982
  10.6614389  26.5221291  15.2169962  65.5011673  14.7997494  71.2916031
  64.9246674  14.2161703  70.7983246  65.9987869  15.2677650  70.6211090
  51.0140762  58.8724899  86.4173508  50.0579071  58.9116096  86.4384003
  51.2107239  57.9950485  86.0892334   4.6905317  28.9090328  18.7750568
   5.2430511  28.5300579  19.4586735   4.7011285  29.8495770  18.9525356
  55.1322670   3.4705937  19.4147797  55.8943481   3.8373196  19.8630848
  55.2018471   2.5266244  19.5573025  59.7311859  66.0666122  65.0291290
  59.1401672  66.2064896  64.2892914  60.3518219  66.7937241  64.9806824
  16.0347729  46.7971992  35.2404442  15.2971811  46.6318130  35.8276711
  15.8354225  47.6423378  34.8376617  26.4651623  54.1930046  65.6963043
  26.0539589  54.9805870  66.0524750  26.6521015  54.4123077  64.7835159
  40.7048454  36.5516129  25.8831978  41.4163895  37.1265869  26.1648693
  40.9431877  36.2942200  24.9925957  18.2315674  10.9711370  51.2447128
  18.6656818  11.6634064  50.7461739  18.9340286  10.3606787  51.4685822
  11.8117294  48.2634811  12.3813114  12.0666628  47.4192047  12.0092354
  12.0392561  48.1950874  13.3085575  66.3248825  52.0923882  16.6760883
  66.6825562  52.6275291  17.3845558  66.6930847  52.4733086  15.8788691
   4.2410059  25.6289310  73.5381699   4.6610842  24.8113117  73.2712173
   4.8393111  26.0061493  74.1831284  64.4954453  44.1253281  24.0845947
  65.3114395  43.6888962  23.8398170  64.5132599  44.1473198  25.0413761
  36.2372360  52.2625809  27.4523621  35.2884979  52.1388092  27.4807491
  36.5957909  51.3760605  27.4941711  40.7718735  52.0933723  52.6734848
  40.3889923  51.3546181  53.1466370  40.0191040  52.5683289  52.3213654
  74.1178894  52.0905190  40.3820992  74.2997055  52.8871727  39.8835831
  74.0849380  51.3975601  39.7225876  71.7605133  34.7554665  58.0258904
  71.6946793  35.6318932  57.6467133  72.2215576  34.8869476  58.8543739
  23.2773914   2.0706885  87.0843353  22.5852680   2.6009367  87.4793472
  23.9680176   2.0463841  87.7466583  37.1755486  29.2951775  81.7383881
  36.4420967  28.8791809  81.2853622  37.8231277  29.4527321  81.0513306
  71.0683212   8.9901276  88.2453308  70.5566025   8.2905903  88.6515732
  70.6382599   9.1439514  87.4041367  41.3126335  71.5082550  69.7805481
  40.5508575  71.4302216  70.3548660  41.3184700  70.6933823  69.2783737
   1.7717662   8.9922915  42.9741211   1.8630441   8.2475348  42.3797836
   2.5163186   8.9152660  43.5707283  22.9987221  68.1612930  39.1362495
  23.0122185  67.7802734  40.0142441  23.8351498  68.6206970  39.0616417
  80.6534576   2.3633628  86.3610306  80.7403564   2.4453573  85.4113159
  80.9093857   1.4601318  86.5478668   4.1987162   6.6522388  17.3353863
   3.3052139   6.3893609  17.5562515   4.1010318   7.2048903  16.5599728
   6.9081960  36.5523987  83.2180557   7.5918946  36.6633263  82.5573883
   7.3758731  36.2579994  83.9996185  20.1415615  25.5396671  11.6881504
  20.0682125  26.4908733  11.6103058  20.9423141  25.4018021  12.1941319
  14.1074295  63.7982063   6.7967229  14.4094296  64.1883698   7.6169682
  14.3335447  64.4436111   6.1269751  36.1503029   0.7377471  71.9537430
  37.0050659   1.0328939  71.6398849  35.9663429  -0.0501507  71.4422684
  57.2926064  40.2534790  15.6260281  57.2507973  41.0328445  15.0718813
  56.9256973  39.5546227  15.0845394  72.9504929  38.9303207  70.1553726
  72.5390701  38.9009399  69.2916031  72.2311020  39.1223450  70.7569046
  43.5362396   1.7402831  15.4615002  43.0836067   1.5922321  16.2918243
  43.0403557   1.2270821  14.8235674  54.2198982  69.3288345  53.2267876
  54.7254219  70.0913696  52.9453392  53.8023911  69.6059799  54.0423317
  66.1658401   2.1163492  15.1951733  66.5447540   2.6996601  14.5375996
  65.4869232   2.6416981  15.6186209  13.6688023  35.1063385   6.3206882
  13.1531572  35.8085022   6.7173095  14.0070353  35.4862442   5.5098224
  40.7332764  12.5881424  88.1910629  40.6934280  11.6770840  88.4819489
  40.4859543  13.0970984  88.9630966  62.9466629  52.6735077  39.1306648
  62.6751785  53.1809692  39.8955231  63.5005188  51.9794121  39.4880219
  16.4908314   0.3927391  37.4241486  15.5998116   0.2641319  37.7493782
  16.8062725   1.1673166  37.8897209  35.5526810  47.0011482  33.2929688
  34.8881264  46.7809372  32.6402016  35.5154037  46.2827873  33.9244766
  73.0971909  39.8956032  76.8731003  73.6917191  40.5585938  76.5220718
  72.5153656  40.3811531  77.4578629  56.6768990  55.8610229  46.9979324
  57.1998787  56.6204567  47.2548103  55.7903442  56.2057724  46.8911705
  83.7741623  61.7492943  85.4403763  83.7953720  62.4982872  84.8447342
  82.9137344  61.7987862  85.8568573  69.1955185  43.3904762  72.6585388
  69.1682510  43.7094536  71.7564621  69.2745895  44.1824226  73.1903305
  53.8972626   9.4307528  58.9957352  53.6067352   9.7225857  59.8598289
  53.7929840   8.4794788  59.0166321  68.0559387  36.5190735  38.2206993
  68.6813965  36.6426277  37.5067139  67.3932648  35.9303741  37.8594208
  82.5207825  63.5316238  75.5289383  83.0234451  63.8602600  76.2742996
  83.1633148  63.4495811  74.8242035   0.6387314  37.0724258  87.9392395
   0.0950919  36.9521713  87.1606369   1.4817286  36.6841660  87.7050552
  12.2627878  36.0860748  29.1610165  11.8520956  36.6104012  28.4735241
  12.9905949  36.6251068  29.4708138  40.2349091  64.1169281  19.4753895
  40.5515518  64.3586502  18.6050224  39.2854500  64.2269897  19.4239464
  19.5523968  24.3609200   3.9679449  18.9683018  23.6029015   3.9896626
  20.4273663  23.9862499   3.8665335  37.9797974  45.9470978  29.3986721
  37.8095474  46.7232552  29.9323692  37.7999420  46.2289886  28.5017757
  70.5674667  19.7135849  66.1978531  70.2368240  20.5439625  65.8552475
  69.8103409  19.3118324  66.6239777  32.8057671  16.9294815  33.6110191
  33.2435112  16.1696529  33.2272530  33.4434166  17.6388912  33.5311699
  14.5911636  34.0549164  78.7815399  14.4415760  33.7510757  77.8862534
  14.8923435  34.9579010  78.6808395  81.3542480  27.7158012  79.2003250
  81.1403580  26.7861919  79.1209106  81.8930283  27.9041042  78.4318924
  50.0690193  43.7043571  27.3886070  49.3904533  43.1426964  27.0140152
  49.6211281  44.1931953  28.0790157  55.5744972   9.5685024  25.8594112
  56.2840347  10.0573072  26.2763748  55.6439552   8.6866636  26.2251549
  72.2859192  12.8362646  23.3216400  71.4301453  13.1169710  23.6458149
  72.0949631  12.0833282  22.7623062  31.2609749  59.1482239  64.4104614
  31.4886303  58.2612457  64.1317596  31.6924858  59.7176208  63.7734222
  12.4499664  64.2078476  59.1307907  13.3823872  64.1578598  58.9202614
  12.3743429  63.7836914  59.9855461  80.8929901  32.1357765  80.9035797
  81.5245819  31.9295139  80.2145462  81.3691559  32.7137642  81.4997559
  14.3441505   2.2272863   7.9378662  13.7450771   2.3845670   7.2080679
  13.7733059   2.1344118   8.7005863  17.8636169   1.3366195  60.7390251
  18.7324734   1.2051164  61.1185341  17.9246178   2.1780698  60.2868423
  68.4463043  45.0634804  26.9342957  69.1469727  45.1525230  27.5803318
  68.1671677  45.9620056  26.7583275   7.3255520  23.2545261  28.9815521
   8.1339531  23.2282562  29.4934406   6.8642387  24.0296021  29.3019867
  42.0504837  69.5068359  34.0771217  42.0542831  70.2493744  34.6811562
  41.4446945  69.7659988  33.3827972  64.2180786  57.0017128  15.2454185
  63.7209320  56.7109299  14.4808779  63.8536072  56.4986153  15.9736280
  52.9225540  38.3449097  49.7422638  52.0135078  38.3655396  49.4432030
  53.3027534  39.1577950  49.4092522  74.3669662  50.2882729  29.0394993
  75.0212326  50.6157303  28.4222946  73.7667770  49.7724533  28.5010490
  28.4271870  10.3731604  25.3707123  27.7813187  10.9950342  25.0355110
  27.9081993   9.7135487  25.8309231  31.8505726  42.3977013  25.4359531
  31.8918724  43.3276443  25.6589527  31.2257156  42.0291710  26.0604305
  61.1856995  49.9551163  47.6338158  61.6400566  50.3973999  48.3508759
  60.7960434  49.1803169  48.0388947  20.9500771  10.1500435  31.6809387
  21.6700478   9.7120056  31.2270699  20.7927494   9.6113701  32.4563828
  58.4219475  12.0454025  44.2356758  58.5099640  11.5369730  45.0418892
  58.1809921  12.9233494  44.5312805  63.2067680   9.3186312  40.7795525
  62.6906586  10.1227264  40.7221489  62.8216515   8.7393885  40.1219826
   4.4658384  10.8573380  26.8808632   3.7523289  11.3199530  26.4414043
   5.1723051  11.5010757  26.9331837  74.0721283  25.2733421  10.0386562
  73.2135086  25.5638294  10.3462648  74.1021118  24.3417988  10.2567377
  79.6390076  20.4826603  50.9456978  79.5823975  20.6255302  51.8904800
  80.2347870  19.7394657  50.8511238  19.5718346  27.1221085   8.7744961
  19.7815495  27.3421764   7.8668499  19.6602955  26.1699390   8.8166599
  80.4926605  33.5196686   7.6656079  79.6618423  33.8232269   8.0314417
  80.9905319  33.2135124   8.4236460  63.5390930  71.5156631  39.2352066
  62.6371307  71.2364273  39.3924561  64.0078659  70.7067947  39.0297432
  49.8097382   2.1970513   7.7950253  49.1957436   2.4858027   8.4702015
  49.5598526   2.6936855   7.0158315  56.1342163  56.6480293  18.4619274
  57.0523567  56.5713615  18.2023621  55.6447754  56.2992439  17.7169266
  34.2323685   6.1204486  36.7237549  34.5994453   5.3708439  36.2551613
  34.9941444   6.5728197  37.0860939  17.3114758  58.9515724  13.4275227
  18.0777454  58.4180870  13.6383686  17.0381126  59.3205910  14.2673616
  81.0978851  59.7425995  74.7217026  81.4477539  59.8207169  75.6092377
  80.5176926  58.9821930  74.7590256  17.3046246  65.1193619  35.0343475
  17.5700912  64.2111816  35.1791458  16.5213509  65.0557098  34.4878464
   2.4175546  30.4859600  72.4122238   3.1353002  31.0435390  72.1119308
   2.7026432  29.5960655  72.2047501  78.8540573  15.0812550  20.4342003
  79.6380997  15.4394560  20.8503723  78.3622131  15.8507843  20.1475811
  52.4018936  48.3166313  43.1017532  51.5163422  48.6263313  42.9117126
  52.5320320  47.5811462  42.5031242  21.5506630  47.2252274  46.7275963
  20.6596470  46.8954659  46.8441200  21.4852390  47.8386040  45.9956665
   2.7537284  67.2385712  46.0213699   3.6247706  67.4419327  46.3621979
   2.2266035  67.0627670  46.8007736  73.7411957  67.5213928  49.0564003
  72.9602966  67.8675919  48.6244583  74.2322922  68.2987671  49.3223801
  55.8245239  66.0605698  15.6094761  55.0439949  66.2856674  16.1157761
  55.9918060  65.1425400  15.8226976  42.2098885  61.9464226  81.5741577
  42.5401688  61.6144600  80.7393265  41.6163597  61.2631111  81.8856735
  70.2727203   8.1103210  39.1626015  70.3541489   7.3689241  38.5626602
  69.5603104   7.8639441  39.7525139  17.6564789  43.9629669  75.2929306
  17.9287891  43.9340515  74.3757401  16.7760754  44.3379097  75.2696838
   0.8058830  14.7295122  68.1932449   1.4454850  14.0180883  68.2251434
   0.1093464  14.4522333  68.7883835  86.4807434  24.5834217  15.9630775
  86.2432251  23.7396832  16.3476849  87.4375687  24.5964794  15.9865236
  29.5006371   5.6042805  81.8607712  30.1525440   5.8479881  81.2036133
  29.4246922   6.3768287  82.4207993  37.3972282  21.9328918  10.5319519
  36.9451370  21.4230728  11.2042084  38.1430283  21.3885117  10.2796307
   5.9178615  70.2352295  39.6123123   5.2986708  70.8639069  39.9832611
   6.7395363  70.7212067  39.5422096  27.7096024  14.7475281   6.1916084
  28.5525570  14.3358316   6.0014305  27.0600109  14.0936146   5.9334230
  65.9051819  35.7732086  43.1588326  66.4997330  36.5230713  43.1799316
  65.9972687  35.4193420  42.2742271  82.6892700  61.3149719  22.0781803
  83.1455307  62.1557083  22.0432186  82.4336700  61.1433067  21.1718521
  75.2276917  44.3441086  75.1829147  75.1231155  45.2361603  74.8519516
  75.8203888  43.9250793  74.5589218  20.7061844  68.3667831  15.0583553
  20.1804905  68.6054459  15.8218441  21.5339851  68.8309479  15.1829538
  75.2342911  63.0052032  29.5557423  76.1345367  62.6872025  29.6240520
  75.1779175  63.3775063  28.6757164  14.9297695  59.3718376  56.0997162
  14.1911860  59.6222191  55.5447083  15.1358747  58.4755974  55.8341904
  35.4895210  67.7054138  17.6630192  35.9712944  68.4483490  17.2994671
  35.2987213  67.9620438  18.5652218   1.0908374  47.8549995  38.3552246
   1.9094417  47.6682587  37.8956108   0.7741346  46.9972649  38.6384621
  61.8195572  65.0699081  56.4646339  61.7284737  64.9343109  55.5214767
  62.2615585  65.9152756  56.5434952  68.9413757  36.2306824   9.9079523
  68.9280090  35.8064156  10.7658854  68.0393829  36.5196457   9.7695761
  30.3973064  66.7399673  68.4148560  31.3348961  66.7477951  68.6074600
  30.3404808  66.4211121  67.5141144  23.8509827  14.6441002  16.3711853
  23.1182976  14.9777346  16.8889637  24.1695194  13.8889837  16.8657227
  70.8011017  65.0890579  47.5697708  70.2823639  65.4488602  46.8502693
  71.1251450  65.8577423  48.0391884   1.9412390  35.2125282  64.8105011
   2.8197346  34.9748383  65.1071167   1.7209940  34.5481873  64.1575317
  25.1587543  41.5180626  10.7529058  24.8551064  41.4876099   9.8456564
  24.9986115  42.4205055  11.0289116  35.6537666  51.7461243  15.6421118
  36.2426414  51.5973167  14.9023037  34.8351936  51.3212433  15.3858948
  53.0803909  16.5185375  87.7690506  53.9303970  16.5668964  87.3315735
  53.2435036  15.9923840  88.5518570  52.8495941  53.4653091  27.1832371
  52.0566254  53.3959503  27.7148571  52.8851242  54.3863754  26.9251537
  48.9393921  68.8868790  47.1182556  48.4334488  69.2668457  47.8365059
  48.8089409  69.4911880  46.3874817  36.6558571   0.8058203  66.6130905
  37.0204697   1.6463914  66.8900909  37.0271873   0.1703382  67.2250595
  38.9526863  65.1280746  63.0426064  39.2999077  65.7969360  63.6327705
  39.4182472  65.2707520  62.2185173  49.6474380  40.6282883  65.0582962
  50.2176895  41.1765556  65.5972290  48.7695732  40.9816170  65.2023239
  19.2350197  32.1291122  13.0666142  18.3711948  32.1275635  12.6542587
  19.5031395  33.0479469  13.0574627  60.8111458  16.7094402  55.3590164
  61.4584045  16.6653633  56.0628242  59.9668694  16.6482620  55.8058815
  73.2251282  41.0767937  17.3979816  72.7713776  41.9127884  17.5050163
  73.0854721  40.6205177  18.2277641  56.3654518   2.9943624  73.0175476
  55.8090134   3.2107573  72.2693634  56.2444954   2.0529807  73.1416473
  59.9073067  17.6458435  11.2493057  59.9547844  18.5968800  11.3468266
  59.7227211  17.5092831  10.3200521   1.0650730  23.1533928  74.8815308
   0.1139706  23.0481052  74.8580704   1.2354954  23.9149036  74.3271942
  79.8121262   4.9206195  80.7952652  79.5865631   5.0752792  79.8779678
  78.9759445   4.7242122  81.2176971  69.2727432  16.8592300  81.6942825
  69.4768295  15.9303398  81.5859146  68.5536346  17.0193386  81.0831528
  25.7825394  21.6391964  78.5867538  25.8731022  22.1984158  79.3583145
  26.1877193  20.8105869  78.8426285  50.5370293  59.5470924  11.0813427
  51.1015511  59.9468346  10.4197140  51.1183395  59.3808784  11.8234215
  12.7645578  33.5368271  75.3317642  13.6032972  33.9980698  75.3327408
  12.4675102  33.5780029  76.2407684  22.1456356   8.6034765  15.0774918
  23.0791092   8.3919125  15.0675383  22.0469017   9.2172384  15.8053522
  16.7989922  13.2668676  27.8716869  17.1991348  12.9544716  28.6831818
  16.0720158  12.6640654  27.7155819  10.7817535  70.6607895  67.4307251
  11.1989412  69.8350754  67.6764526   9.8587313  70.5381088  67.6525650
  51.2980614   3.3518286  70.6494598  51.6446571   2.6920791  70.0487671
  50.8837051   4.0001163  70.0800247  35.4431953  11.3044291   2.2096357
  35.1015511  11.6986532   3.0121927  34.6637535  11.0953341   1.6948758
  70.2632675  29.0338440  81.3131638  70.9027405  29.1324215  80.6077652
  69.5139465  29.5590649  81.0322800   4.8300118  35.6233177  44.5067863
   4.8579111  36.3931198  43.9385834   5.4074001  35.8440285  45.2376366
  48.3061867  26.7057495  13.4751549  47.7837906  27.1912022  12.8366613
  47.6656570  26.3665028  14.1003475  83.7037354  32.9873466   0.2785070
  82.8539352  33.4268265   0.3088911  84.2692871  33.5924454  -0.2013233
   4.7434192  46.2793159  38.4481316   4.1144829  46.7993279  37.9478760
   5.1266093  46.8990517  39.0688744  53.9346008  23.1244087  33.1254349
  53.6303978  23.5271187  33.9387703  53.1420937  23.0198956  32.5988960
   8.7661438  57.3323517   4.1225610   9.1545887  57.1944923   4.9864688
   8.5160999  58.2563019   4.1170554  18.7361450  38.4703712   0.8836483
  18.0386505  38.2224083   1.4904821  19.2961998  37.6957664   0.8330595
  66.9039917   7.6710072  51.7311440  66.4740753   6.9720755  52.2239952
  67.7703094   7.7480283  52.1308899   9.6575079  52.8884697  67.2971268
   8.9750605  52.9225998  67.9674530   9.3874865  52.1770592  66.7164307
   0.4655896  23.1387901  55.0328178   0.8480968  23.4485893  55.8537598
  -0.3355965  22.6867809  55.2974281  31.3958645  55.0730629  25.4617577
  30.5852470  54.8749809  25.9306870  31.3993053  54.4654541  24.7221432
  86.7356339  27.8622303  18.6683922  87.0397415  26.9611397  18.5598335
  85.9609604  27.9225559  18.1094055  81.8238831  60.6810570  69.0259552
  82.6714859  60.5041580  68.6179199  81.1949310  60.6223602  68.3067856
  79.2508926  37.2368279  13.0764236  79.4261093  36.6441994  13.8073959
  78.8472137  38.0042839  13.4817543  35.2817726   8.5984440  22.5358372
  35.6324844   7.7114906  22.4549294  34.4352798   8.5628443  22.0903969
  58.8370743  35.5518265  85.1255341  58.9779091  35.0993195  84.2938843
  58.4026489  36.3694763  84.8827438  42.5002785  26.6572571  19.2793846
  43.3427391  26.2168694  19.3914204  42.6135979  27.5043125  19.7105331
  67.8626404  59.9691162  60.7571716  67.3907471  60.7996750  60.6961212
  67.7913437  59.7203140  61.6787148   9.0471525  48.2975388  53.1762886
   8.2259035  48.2399063  53.6646118   8.9367819  49.0624008  52.6114578
  56.6959152  48.9001274  60.1896591  56.0472832  49.5251694  59.8658867
  56.2776985  48.4920654  60.9478264  43.1932106  42.6322823  42.7693710
  43.0871239  41.6966820  42.5972404  44.0620461  42.7061615  43.1642113
  73.0059891  60.5452003  66.0108871  73.4653168  60.6126099  66.8479691
  72.6139526  61.4089546  65.8825607  65.5599365  56.7988091  19.6131649
  64.7430649  56.3771591  19.3463936  65.6636581  57.5282135  19.0020638
  47.4237862  66.0316162  18.0241184  46.8737717  65.8883286  18.7943020
  47.1250267  65.3782959  17.3915462  39.3627510   0.2879796  85.5901642
  39.3784790   1.1186864  86.0654678  40.0811386   0.3581037  84.9614944
   1.5819250  39.5940094  23.2143021   1.9415499  38.9371567  23.8104973
   1.0033481  40.1239471  23.7626133  47.9131737  26.4887810   1.7411441
  48.6388321  26.5825539   2.3582816  47.6312485  25.5793266   1.8393427
  60.6487923  37.2867508  81.5814056  61.5252342  36.9828529  81.3453369
  60.3002701  37.6636086  80.7734833  21.1847668  23.1424541  19.1674347
  21.9144936  22.9214993  19.7461491  20.4086666  23.0730019  19.7233810
  12.8524714  34.3890228   3.3037255  13.0506811  34.9556236   4.0493193
  12.6575241  34.9941864   2.5881810  76.2967834  32.0838356  44.0970650
  76.1692963  32.9315262  43.6711540  75.4940948  31.5977707  43.9081955
  49.9703865  53.4924660  45.1359787  49.5527725  54.1940842  45.6355400
  50.1708908  53.8887787  44.2880592  44.3259926  31.5868950  31.4887829
  43.8632431  32.3316422  31.1047993  45.1389694  31.9599190  31.8295994
  83.3200684  14.0108919  72.9440613  84.1924286  14.0823545  72.5566101
  82.7697601  13.6777134  72.2352676   6.7858019  41.8622284  19.1507359
   6.6228962  41.6122971  18.2412148   6.5160284  41.0986061  19.6609631
  54.1488380  14.4374828   3.0885587  54.2164764  15.2417383   2.5739429
  55.0308342  14.2991333   3.4337690  43.2960815  32.5254097  17.7641239
  43.0285225  33.2866516  17.2491970  44.2499123  32.5908813  17.8105278
  27.5766659  54.8429146  46.0306244  28.1614304  54.7433777  46.7818756
  26.8808060  55.4208488  46.3436775  16.4950008  19.2578831   5.2853827
  15.9403725  20.0083351   5.4985480  16.0739975  18.8572865   4.5247846
  85.5874939  62.0334930   8.2130260  86.0546722  62.1951180   7.3933611
  85.1663742  62.8684464   8.4173460  24.0076523  36.6646347   9.1579866
  23.8720245  35.7786751   8.8219576  24.3003979  37.1669884   8.3976097
  82.7602081  70.8996658  67.8262100  82.2192764  70.2756653  68.3101959
  82.1715164  71.2652435  67.1658859  77.7410812  36.5206985  38.2938499
  78.0681915  35.6360512  38.1306610  77.2318954  36.4427528  39.1006203
  63.9741554  66.8896332  17.9246788  63.1376877  66.8495483  18.3882999
  64.5833664  67.2630310  18.5616016   4.6103725  48.9970551  72.8941879
   4.6170731  49.7233696  72.2707672   5.4626155  49.0452995  73.3273010
   8.6287451  12.9797230  24.5721874   8.7952204  12.0381422  24.6162682
   8.5078669  13.1581755  23.6395702  61.1598511   3.3821304  57.1091232
  60.6543007   3.5566905  56.3152847  61.9254875   3.9518936  57.0356216
  30.9385567  66.0302048   1.7802368  31.2321129  65.1462860   2.0009995
  30.5593834  65.9451675   0.9054636  68.7296066  31.3060055  61.3207397
  68.0796509  31.0665817  61.9813957  68.2155609  31.6695442  60.5997467
  55.0291901  59.6952057  42.9506493  55.4697495  58.9503021  42.5416794
  54.0987625  59.4736595  42.9124603  48.3280907  13.3110437  72.5436783
  47.7357559  13.0385504  71.8428802  47.8304062  13.9620895  73.0383301
  57.2416382  66.1636276  23.2735443  58.0811920  65.8382645  23.5983791
  56.6234818  65.4561462  23.4567947  41.7639542  18.1968555   0.3676604
  41.7908096  18.7089214  -0.4406094  42.2359238  17.3912849   0.1566281
  60.4862442  35.4397011  60.3953552  59.7212524  35.6155968  60.9431572
  61.1042099  35.0015755  60.9805031  75.7187042   4.5362477  88.6627808
  75.6806335   5.2609878  89.2869110  75.7710571   3.7520900  89.2092133
  63.0912094  20.5374756  50.6766739  63.9185829  20.0637798  50.7621193
  62.9567986  20.9413452  51.5340271  67.6030731  20.5256195  35.2945633
  68.3755417  20.6559620  35.8446007  66.9079895  21.0110703  35.7388916
  17.2694111  50.3825378  22.9515133  16.9846611  49.7793159  23.6380081
  16.4782658  50.5551872  22.4411087  43.2510338  27.1082268  77.0959167
  43.9418335  26.9815369  77.7462845  43.7191124  27.2290726  76.2697678
  12.0402699   8.1014853   4.4584947  11.5822048   8.9385900   4.5337596
  11.5035553   7.4887247   4.9611821  49.7734795  60.1129456  70.5344543
  49.5597420  60.5651360  71.3505936  50.3701668  59.4123993  70.7979584
  41.5699158  53.0128822  13.3190794  42.4974480  53.0537529  13.5519791
  41.1332054  52.7320213  14.1232138  13.9807224  13.2413063  87.8870544
  13.4076052  12.5174570  88.1396637  13.3824301  13.9339294  87.6067810
  19.3761044  42.3257866  24.3534565  19.7099171  43.1924973  24.1219063
  19.2317677  42.3693924  25.2987061  60.7888985  59.7886848  58.1007767
  60.8149948  58.8640137  58.3468094  60.3330383  60.2166023  58.8255577
  64.6384659  60.0890236  57.8265648  64.0705566  60.8526421  57.9295197
  65.3439331  60.3906212  57.2542114  26.3910847  67.7393112  32.5983353
  26.6484528  67.8126602  31.6793060  26.7665596  68.5150452  33.0148582
  10.1281176  15.0474434  78.7404785  10.6648865  15.7881231  78.4585190
   9.7466078  14.7064400  77.9315338  41.5737953   2.3878109  34.2697296
  41.9749756   2.5734625  33.4207191  40.6325569   2.4575715  34.1102562
   2.4430871   3.6711116  54.5854263   2.5725138   4.3671136  53.9411736
   3.3084571   3.2748179  54.6870041  34.8849487  20.3057556   9.4932127
  35.0476952  21.0814743   8.9565506  35.7488403  20.0556736   9.8209057
  34.5534439  60.3013916  35.2145653  35.2383003  60.7210426  34.6938934
  33.7448921  60.4778328  34.7335777  22.1303024  29.4416409  74.1041031
  21.5195370  29.3928528  73.3687057  21.6886787  28.9749184  74.8135910
  14.6576881  62.5031357  42.6879311  15.0906305  61.6601295  42.8225937
  15.2209711  63.1356201  43.1339226  33.0867882  57.9465981  56.7354431
  32.2656250  57.7849960  56.2708855  33.3907814  58.7893600  56.3984375
  55.9631233  63.2145996  43.4305840  55.8316841  63.9252739  44.0581970
  55.9907722  62.4227791  43.9676971  16.0990372  32.7678871  33.6360664
  15.5394669  31.9934883  33.5775871  16.5266533  32.8195000  32.7812500
  65.5940170  22.6925507  78.9414520  65.4584427  21.9369774  79.5132523
  66.4806747  22.5780602  78.5994492  40.1780739  51.0396881  80.0020370
  39.5069122  50.5465469  79.5302505  40.2021027  51.8906212  79.5643539
  67.1268539   7.8641505  65.0777054  67.4639816   8.0917912  64.2112427
  66.2507172   8.2488527  65.1024857  74.7511520  46.7633247  86.8273239
  74.1563263  46.1532173  86.3912201  74.2364197  47.5629349  86.9364395
  61.7820930  37.8273125  67.3681564  61.3492165  38.4216156  67.9810638
  61.1103134  37.6232147  66.7175522  27.3519287  22.0804596  52.0492287
  27.0424747  21.1829472  52.1714668  26.6923752  22.6223011  52.4823914
  34.9254417  48.0655441  25.0107098  35.2091713  47.1569214  24.9100399
  33.9766121  48.0351601  24.8880939  68.8461685  34.7828636  54.7662392
  69.0986481  33.8914223  55.0066986  69.5067825  35.3386612  55.1796494
  11.0777502  59.0314331  83.4788437  11.1150122  58.6490250  82.6021423
  10.9446058  58.2833595  84.0609894   3.9128473  69.9944687  63.3481369
   3.4744313  70.7387085  62.9356728   3.3099556  69.2616730  63.2225609
  85.5743942  19.6912956  82.0904922  86.1908875  18.9630260  82.1665802
  84.8507233  19.4540825  82.6703720  57.4873543   4.9872904  14.0603085
  56.7858963   4.4266338  14.3917427  57.9856682   4.4231706  13.4689665
  11.3819656  61.3475266  49.4483337  11.4384241  60.5357780  48.9442406
  10.7339439  61.1627235  50.1281471  59.0118523  13.2575703  50.8682175
  59.6589775  13.9525423  50.9885368  59.2668419  12.5815516  51.4960785
  59.9353447  40.1023560   0.8094098  60.4309807  40.6264877   1.4385886
  59.5950813  39.3699265   1.3232157  56.8620491   0.8810972  28.6522598
  56.3659668   1.6662201  28.4204922  56.4792404   0.5917025  29.4804745
  62.8215561  19.5595188  13.3407774  62.3369370  19.4074707  12.5294476
  62.5342941  18.8588505  13.9262476  23.6458359  26.9448948  19.6953068
  23.8348980  26.9847317  20.6328030  23.9735680  27.7750568  19.3493919
  73.6805801  22.8106918  49.3533669  72.8843765  22.2804928  49.3189850
  74.1002808  22.5594730  50.1761475   2.9233816  38.7175446  84.5240021
   2.3687787  38.9025955  83.7661057   2.5105033  39.1932068  85.2447662
   7.2084799  34.6397514  51.6342087   6.6370831  34.3637047  52.3508224
   7.4523787  33.8250275  51.1949196  20.1337948  55.3929138  66.3625946
  20.0053310  54.4805756  66.1030350  21.0759220  55.4684677  66.5139923
  46.2760277  53.9978638  61.9986763  46.5585976  54.1566772  61.0980301
  45.5894585  53.3354225  61.9210091  86.6419754  65.3443222  60.5217590
  87.5805740  65.1955948  60.4071198  86.2290115  64.7902222  59.8594398
  75.2694778  29.6651249  63.1506958  74.5825653  30.2784176  62.8894348
  75.5850677  30.0019913  63.9892387  45.2632828   3.7527795   6.0656686
  45.7361412   4.5832539   6.0113401  45.1955872   3.5766542   7.0040870
  75.0361786  29.0967369  41.0134277  74.2920761  28.6294765  41.3931885
  74.6632080  29.5845337  40.2791367  73.2209930  34.1460152  69.1531219
  72.7377243  33.3610344  69.4109879  72.7660522  34.4616661  68.3723373
  58.7715034   5.7393460  49.5699158  58.0855026   6.4040828  49.5086021
  58.3237190   4.9634504  49.9071198   5.6183510  41.3028641  66.6514816
   5.3903780  40.8445702  65.8426361   6.4794455  40.9579468  66.8876572
  71.5139923  14.0255146  37.5146751  72.2646713  13.9998627  36.9213371
  71.8846283  13.8420439  38.3779221  80.6778259  48.8033371  23.0176220
  80.8368683  48.4605637  23.8970795  80.9492493  49.7200165  23.0651360
  63.8798981  56.0535393  36.7713127  63.6821251  56.1229172  37.7052879
  63.5754051  56.8815117  36.3998642  83.7141342   0.8007784  57.1935081
  83.0865479   0.2998534  56.6725121  83.6676788   1.6877710  56.8366928
   2.2402711  34.7388306  60.8962364   1.4491063  34.5052834  61.3817711
   2.6472938  35.4293594  61.4194298  48.9756432  26.9905949  77.9757156
  48.3132439  27.5196819  77.5312805  49.2900162  26.3861160  77.3034058
  41.8848381  70.6567535  44.3903084  41.1971054  69.9918365  44.4240036
  41.6854477  71.2447052  45.1188660  62.6628342  17.5919361   6.7200651
  62.7537994  17.1456528   7.5619607  62.3270874  16.9193516   6.1274962
  73.8689499  55.7219353  86.4906464  73.3790894  56.0104485  87.2607269
  73.1954651  55.4994736  85.8478699  11.7983141  71.4105148   0.8329092
  11.2806969  70.7192841   1.2458373  12.5380449  70.9509277   0.4356519
   5.2444859  19.0171070  24.8787155   5.2359309  18.0698872  24.7411194
   4.8308849  19.1387348  25.7333355   8.9830189   7.5454516   4.0178647
   9.3003826   8.3905029   4.3362985   8.1960440   7.7586613   3.5164223
  85.8290863   3.8048909   3.4322586  84.9366302   4.1174984   3.2837982
  85.8956070   3.7127845   4.3826919  60.1154327  34.1355896  76.8406067
  60.1900749  34.8750381  77.4438248  60.3852310  33.3765488  77.3576202
  12.2363920  18.9208336  22.2152004  12.9452295  19.2076015  22.7909985
  11.4700804  18.8686333  22.7864037  16.9724693   0.1669752   5.2929025
  17.7309799   0.7507991   5.2864122  16.5245762   0.3470062   4.4663353
  51.7077713  16.0807400  71.4906769  51.0377274  16.4442959  72.0695572
  51.4610481  16.3856792  70.6175385  30.2749214  30.2057838  74.2753677
  30.4559059  31.0396900  73.8416977  31.0500107  29.6719036  74.1008987
  48.1532135  48.5756111  53.2422485  47.4679184  49.1632767  53.5604477
  48.0472755  47.7797546  53.7634201  81.7160110  65.0005798   3.2050071
  80.8638153  64.6351852   3.4426594  82.2175369  64.9885254   4.0202088
  77.7485809   1.2505411  45.7307968  78.4810333   0.9501015  46.2688332
  77.2754135   1.8649371  46.2919197  46.6362724  63.1642418  68.6669388
  45.8569870  63.1203384  68.1128464  47.0778999  62.3267975  68.5259399
  28.1478310  49.1141701  46.5017242  27.3692093  48.6121712  46.2609291
  27.8741646  50.0287628  46.4320412  28.8586750  68.4735718   4.8186998
  28.0744114  68.7812729   5.2731047  29.0425987  69.1538773   4.1709385
  64.8860931   9.9125261  85.3037567  64.8812485   9.0054922  84.9979858
  64.8449249   9.8439465  86.2576141   4.2185469   8.1118765  35.6778107
   4.2322879   8.7824450  34.9948883   3.6662757   7.4168015  35.3199005
  56.6756325  21.2469044   6.1219139  57.2703896  20.5535812   5.8359094
  56.2434540  20.8872738   6.8965883  50.4080658  64.1275406  76.4574432
  50.9245415  64.3838654  77.2215042  50.9542084  64.3657532  75.7083054
  80.3878708   4.0004811  10.8472900  80.2663040   3.0652511  10.6835918
  79.8606415   4.1778040  11.6262760  80.6100769  48.5625610  18.5363331
  81.2067719  48.2453880  17.8583984  80.5462341  49.5043602  18.3776875
  86.4096832  63.6430626  58.4565887  85.7293701  62.9886932  58.2978363
  87.2311707  63.1772842  58.3002396  23.6649628   0.2050064  79.1753998
  24.5773354   0.4723321  79.0642929  23.1570911   0.9770784  78.9259949
  16.4084072  61.2674141  80.3304214  15.5033436  61.3599091  80.0328674
  16.6537647  60.3773155  80.0779266  18.8542957  34.6483192  70.0161743
  19.1562710  34.9320259  70.8790512  18.1990204  35.2995491  69.7656860
   0.0056935  62.2278328  54.2806816   0.2535018  63.0049591  54.7815819
   0.3539003  61.4947052  54.7881317  77.8298035  22.7583256   6.3584542
  77.0641251  23.2594509   6.6392388  77.6292343  22.4981270   5.4593992
  70.9811935  53.2216759  22.8778038  70.0447540  53.4106903  22.9377098
  71.2028427  52.8379517  23.7262478  85.7767487  39.9142532   2.8397815
  86.2816620  39.1193123   3.0111227  86.3655548  40.4655609   2.3244245
  85.1144867   3.2528906  21.5317078  85.0705872   2.7757201  20.7030869
  84.3738098   2.9206977  22.0389290  39.9406166  65.1767044  76.2482071
  39.5443611  65.8733292  75.7248306  40.2853661  65.6242447  77.0209198
  70.4730606  20.0077915  40.1736069  71.4092178  19.9685345  40.3693237
  70.3347244  20.8949509  39.8418808  76.3613358  38.9761772  58.2945480
  76.6742706  38.2981567  58.8933754  75.4727325  39.1685562  58.5938835
  68.7329178  58.4623260  76.9718704  68.7362976  57.5542870  77.2746735
  69.1928329  58.4367104  76.1327972   8.6406918  46.9207458  41.1754875
   9.5717268  46.7980614  41.3608360   8.5181932  47.8700523  41.1822548
  53.9758339  38.5246124  31.0391273  53.0424004  38.6001320  31.2372055
  54.0897789  39.0217514  30.2291279  66.6629562  68.3979950   6.8464451
  66.4974899  68.5973892   7.7679086  67.5925293  68.1720734   6.8134546
  16.3332863   5.5151701   2.9382770  16.9117126   5.7748160   2.2211733
  15.4522934   5.7066441   2.6166854  54.0349884  60.9846001  33.4340591
  54.7529755  60.8689423  34.0564346  53.2943230  60.5304031  33.8357391
  50.8654099  49.8033524  55.4361496  50.9118652  49.0412254  56.0134163
  51.5025177  49.6200294  54.7457047  19.9260807  48.7524223  58.4464149
  19.8230762  47.9303246  57.9670601  19.0307503  49.0554199  58.5974274
  86.6115341  58.4817657  52.7235527  86.4460144  59.1534538  52.0619850
  87.1091385  57.8074799  52.2609940  46.5320053  46.2693176   5.3308129
  46.7405205  46.9065895   4.6477060  47.3349648  45.7588615   5.4353170
  79.4194107  20.8051052   7.5115032  78.9202881  21.4747677   7.0438962
  80.2830963  21.1969185   7.6410050  36.6895752  19.1069984   3.7824466
  37.6365814  19.2056446   3.6840696  36.5062485  19.4245987   4.6666150
  57.8542023  61.3071632  64.1358643  58.4148636  61.9634399  64.5496216
  58.4650497  60.6826439  63.7446175  29.3513737  21.8904896  12.7291374
  29.7717094  21.0890999  13.0411072  29.2061634  22.4085865  13.5207949
  57.8281784   4.6262760  38.1462288  58.6709557   4.4629235  37.7228203
  57.8817673   4.1534634  38.9767761  67.2345505  30.1619492  63.6227150
  67.6387405  30.3270283  64.4745407  67.3466415  29.2217159  63.4826012
  74.9908829  62.9816551  82.2381744  75.5903931  63.2424583  81.5390320
  75.2010651  63.5679474  82.9650269  18.5411739   6.9385834  70.9672012
  18.1003685   7.1381164  70.1413040  19.1587734   7.6596117  71.0893555
  83.8359146   9.9159708  12.6369801  84.5904694   9.8669720  13.2239008
  83.2871246   9.1736183  12.8899202  46.5029869  12.2028131  62.8762779
  46.8231430  13.0464220  63.1957436  46.2231026  12.3775349  61.9777412
  73.2341766  57.4584732  14.2258921  74.0937958  57.0898972  14.4294815
  73.3162842  57.7750854  13.3263102  72.8927841  13.9656982  11.3455687
  72.2982788  13.2292089  11.4883137  73.4401474  13.9872847  12.1305246
  83.5771484  47.2892075  80.6278305  84.4424362  47.2495918  80.2204819
  83.6018753  48.0802460  81.1662369  41.1012917  35.1024284   8.3983250
  40.9759750  34.1563721   8.3241367  41.0470848  35.4225540   7.4978733
  71.5041275  57.8947639  47.0612984  70.8418350  58.4235878  47.5062103
  72.3153000  58.3929863  47.1613159  65.6228790  12.8940248  73.1418381
  65.4899216  13.6002550  72.5095520  65.7889557  12.1195250  72.6044388
  62.3979568  69.0052795  45.5284958  61.6820221  68.5544968  45.9762230
  62.5166626  69.8163147  46.0228271  67.6587372  17.6170940  88.8667679
  67.5609741  17.1663094  88.0280380  68.5331955  17.3725052  89.1696396
  17.0744400  57.6447067  34.2535858  17.2059574  56.8317795  34.7415237
  17.9513035  57.8927612  33.9606514  46.9714737  10.4687166   0.1229383
  46.9728508  10.4941349   1.0797998  47.3679504  11.2995415  -0.1392992
  24.6474018  59.3669930  38.7900581  23.7733440  59.5774994  39.1186028
  24.8567848  60.0831375  38.1904488  34.6779442  53.2721710  43.6387215
  34.1921844  53.2204285  42.8155632  35.1539345  52.4431992  43.6884499
  28.6223946   1.5681092  74.6425552  28.7580986   1.0532732  73.8470917
  28.8589573   2.4614046  74.3929672   6.5177288  13.0064716  67.5447769
   6.6328435  12.3562241  66.8518448   7.1400480  12.7457104  68.2237091
   5.5462370  30.5744228  86.6958160   6.2422314  31.1332722  86.3501129
   5.0342364  30.3257713  85.9262314  34.3981361  65.2185822  17.8015976
  35.0190926  65.9465103  17.8293648  34.8085861  64.5333786  18.3291016
  78.0345383  56.6891174   2.7663624  77.9489594  57.3056259   2.0391612
  77.3053589  56.9027138   3.3485208  19.3979950  68.4166183  62.9358482
  18.8381004  68.9226913  63.5246086  19.1027203  68.6582336  62.0579720
  65.8840714  40.6569214  76.6032410  64.9695282  40.5307999  76.3503952
  66.1894073  41.3741951  76.0477905  28.7309265   2.7722723  17.0641823
  29.5644169   3.0286274  17.4589062  28.0959072   2.8455849  17.7766476
  21.9483471   0.7851030  26.1422501  22.7866993   0.8229214  25.6818504
  21.3407574   1.2568591  25.5725880  71.2696686  33.6772957   3.8537517
  72.0548401  34.2238503   3.8219147  70.9520645  33.6615105   2.9509180
  20.7130661   9.1176367  73.8270187  20.8710136   9.5392933  74.6717072
  21.5054054   9.2936001  73.3196106  71.1438065  53.2349167  37.7643547
  70.9455566  54.0409737  37.2877045  71.3520660  53.5265694  38.6519356
   3.3756106  38.3875275  51.7908745   2.5035739  37.9928398  51.7887611
   3.5598218  38.5564423  52.7148666  57.5763817  71.0403061  78.8439102
  56.8879433  71.6365433  78.5493240  57.2893715  70.1771545  78.5458832
  18.5640717  68.5680313  26.0754833  19.4876709  68.3206329  26.0308933
  18.1876049  68.2361908  25.2603855  20.1260586   0.6510153  62.0307732
  20.7592621   1.3165073  61.7616882  20.4484539   0.3421118  62.8774567
   8.0118494  38.8922272  28.5554180   7.4677491  39.3221512  27.8956070
   8.5598612  39.5934372  28.9078712  69.1519012  68.7779694  70.4052429
  68.7057190  68.6390152  69.5698700  68.9119110  69.6689835  70.6596527
  79.3778992  28.9039211  19.7824306  78.5674591  28.8817444  20.2912788
  79.0977936  28.7552929  18.8792801  71.6959000  51.6021576  52.1328392
  72.3600769  51.1918488  51.5789948  72.0174942  52.4928207  52.2726021
  64.7503967  65.0469666  21.3389015  64.3519821  65.8983688  21.5194817
  64.3151245  64.7429276  20.5424500  31.1006680  71.6724625  62.2168465
  31.3329601  71.0342026  61.5423851  31.7870617  71.5828629  62.8779602
  42.0836372  67.6319962  73.2150650  42.9416885  67.2399521  73.3771744
  42.1520996  68.5158768  73.5760345  81.6721115  45.0467987  56.6919479
  80.8373184  45.2213249  57.1265602  81.7199936  45.7001610  55.9940491
  17.6394615  59.7118874  69.5062485  17.4331875  60.1845779  68.6998672
  16.8764381  59.1544914  69.6590042  63.7014427  37.7857552   1.7671827
  63.4169044  37.5642090   2.6538539  64.4504929  37.2121162   1.6056626
  79.7882080  43.9910393  79.7410812  79.3259964  43.7765007  78.9307861
  80.5492859  44.4967194  79.4559860  23.5831566  69.2238541  44.1182251
  24.0090275  70.0743179  44.2257843  22.6572533  69.4334259  43.9956932
  64.6468658  59.6024284  47.1033249  64.8825378  59.3374596  47.9924164
  64.4954071  60.5454445  47.1666527   6.2068357  18.6325531  75.9278336
   6.6060348  17.7625885  75.9217987   6.3241539  18.9436817  76.8254242
  60.3049393   8.3127031  57.5923996  59.4639511   8.3386497  57.1360016
  60.3009338   7.4744134  58.0544434  53.9817848  40.0152512  63.3227272
  53.7183685  40.9248962  63.1834717  54.4638405  39.7813873  62.5295296
   8.4594231  51.7672462  37.0127068   8.1589518  51.9384193  37.9052582
   9.1682520  51.1323624  37.1162224  71.2547989  30.0397530   2.5147285
  70.7024460  29.6372509   1.8445578  71.0990753  29.5152817   3.3001652
  19.1289711  13.2107668  77.1965637  18.3714409  12.6836472  77.4505844
  19.2126942  13.0708485  76.2533569  83.7017746  12.8151617  29.5250168
  82.8582764  12.8897152  29.0787125  84.1367340  12.0795851  29.0937748
  23.5601387  65.8484802  50.5188789  23.3257332  66.3823090  51.2780304
  22.7838192  65.3135452  50.3533401  10.9581232   0.6161996  40.9034157
  11.7014704   0.7768987  41.4846573  10.9694195  -0.3295138  40.7560043
  44.1128197  70.4792023  49.3356476  44.6180611  71.2873840  49.4239616
  43.8244553  70.4755325  48.4229240  38.5393066  46.2521896  60.9231110
  39.4102402  46.6435738  60.8558159  38.2906151  46.3772964  61.8389359
  82.7243958  65.9988174  40.2980347  83.4952698  66.3410568  39.8454285
  82.8175659  66.3098831  41.1984711  51.0489082  64.8863297  85.2873764
  50.5285072  64.1372528  84.9970245  51.1874962  65.4036255  84.4940109
  68.3613129  26.3498898  27.6479969  67.5561142  26.4176807  28.1611176
  68.1722260  26.8289909  26.8411884  51.8129463  51.8467216  21.3013000
  51.7926636  51.4874496  22.1882839  51.4053993  52.7089844  21.3827686
  13.6499777  41.1394501  69.4430847  13.7069578  40.1853790  69.4953690
  14.5560961  41.4278603  69.3335342  80.6575089  34.7390442  36.3916359
  81.0105286  35.6111565  36.5677795  81.4189758  34.1602821  36.4295158
  68.0282593  46.9585266  22.0761585  68.3094101  47.8082161  22.4155998
  67.1495361  47.1172142  21.7313499  13.6616993  34.9388962  66.6547852
  13.0685034  35.6595230  66.8670349  13.9036732  34.5697746  67.5041580
  52.7882118   8.8340855  68.0951538  52.8105316   9.0516415  67.1632767
  52.1138763   8.1585903  68.1673203   5.7042742  66.4950333  63.7744026
   6.3257971  65.7930298  63.9670906   4.9496479  66.3066406  64.3323288
  55.5252075  66.5886917   0.3561171  55.3920364  65.6605911   0.1634156
  55.2092819  67.0431900  -0.4248130  29.8412609  33.7576065  81.9769897
  30.4152241  33.6587181  82.7366104  30.4059410  34.1233864  81.2961273
   3.5625596  26.1147537   1.3689673   3.6406744  25.4730682   0.6630143
   3.1874285  26.8886623   0.9487582  46.3894119  34.4723930  87.0181122
  45.7703819  33.9239769  86.5361557  46.6159744  33.9553528  87.7911377
  64.8520889  50.7998466  20.4513016  65.2461395  51.2174911  21.2171497
  63.9092560  50.8546524  20.6071758  34.2708054  69.3015137  66.4567337
  34.4340744  70.0206299  65.8464432  33.6295776  69.6526566  67.0746002
  13.4890556  70.1732483  78.6784897  13.8505096  69.5745316  78.0249481
  14.2463760  70.6625214  78.9999084  78.8998947  17.4889278  46.5980797
  79.7735596  17.6916695  46.2636528  78.6988449  18.2095013  47.1952248
  20.5292721  12.1964827  18.1535053  21.0867577  12.9444313  18.3680153
  19.8451672  12.2078781  18.8229084   0.6777223  67.2780228  58.2902718
   1.4893435  67.6807022  57.9814720   0.6420031  67.4950790  59.2218513
  35.6227417   9.0459309  75.8976974  36.0173149   9.8756962  75.6293030
  36.3561134   8.4316959  75.9310684  27.0390854  10.9153614  50.7312622
  26.7477932  11.8046503  50.5299034  27.4165039  10.9798279  51.6085510
  54.4093971  62.6810493  82.7608490  54.6454544  63.0126038  83.6272049
  54.3465233  63.4639549  82.2137299  14.3416977  14.7858706  58.2978935
  13.5842667  15.1385136  58.7649841  14.4001045  15.3149424  57.5023422
  76.5557861   5.9469290  58.5763359  76.3188629   6.3316941  59.4201698
  76.1135178   5.0980754  58.5675240  69.5421295  14.6777763  13.8189011
  70.1836853  14.2643070  14.3965502  69.7784653  14.3743706  12.9423609
  48.7710838  49.0179977  29.3868656  49.7061272  49.2172089  29.3394890
  48.4923096  49.3760796  30.2296524  46.3475418   2.4512675  61.5229378
  45.5843163   2.0451646  61.9337883  47.0564728   2.3205390  62.1526680
  62.7560539  24.1984863  41.0399590  63.6510506  24.4249344  40.7871170
  62.2236900  24.4460106  40.2839470  86.9696503  25.8149357  64.8971100
  86.9178085  25.2264957  64.1439285  86.1102219  25.7477398  65.3131561
  57.9491081  62.0950127  58.1535606  58.5338936  61.4078331  58.4729958
  58.4105225  62.9111061  58.3467560  60.9575653  65.5074692  35.6566010
  60.7312393  66.4278107  35.7906952  60.7170525  65.3317566  34.7469254
  85.7330475   8.4037466  83.9415970  86.1115952   7.5253906  83.9793701
  85.8071518   8.6571274  83.0215225  39.7363358  26.6497860  19.6734295
  39.6992111  27.5543880  19.3627052  40.6661148  26.4901810  19.8355045
  78.7338791  11.4027777  29.2170639  78.0839996  11.4658079  28.5171280
  79.4557800  11.9590664  28.9244270  36.3925209  58.3383369  84.3172226
  35.6225471  58.9059982  84.3509140  36.9586143  58.6606903  85.0185547
  28.2729053   3.6919520  78.7873383  27.8227787   4.0973663  79.5284576
  28.7102356   4.4197750  78.3454742  57.5697632   6.9362550  39.3910217
  57.9455910   7.6409631  38.8634148  57.6274376   6.1615152  38.8318405
  44.1997299   2.4377203   8.3156881  44.4209595   1.6510496   8.8141241
  43.5484695   2.1427402   7.6792283  25.8071442  59.4324074  43.1586876
  25.1230011  58.8115425  43.4091072  25.5968914  59.6689911  42.2553329
  33.8486176  35.0385017  81.2578812  33.7173424  35.3984604  82.1350555
  32.9811249  35.0684509  80.8544083  78.6066513   4.2714047  41.8653030
  78.5990601   3.6406291  42.5852280  78.9450455   5.0769534  42.2562141
  43.5993767  30.8980103  13.2848749  43.5419617  31.8357029  13.1013908
  43.5182800  30.4807320  12.4272413  14.8081560  69.0026627  66.7150116
  15.0354433  69.7092590  66.1106110  15.6513157  68.6455688  66.9939270
  71.5407944  15.8524418  21.8114872  71.5312729  16.7420425  22.1646881
  72.4693832  15.6496496  21.6982079  22.0796833   1.3838242  33.2577171
  21.5160294   0.8249413  33.7926712  22.5493126   0.7748556  32.6877708
  22.2152252  35.6142960   0.8217435  22.2902355  34.6717720   0.9709214
  21.2821217  35.7583542   0.6642779  62.3339081  42.5721283  49.2483826
  62.1365089  41.8164520  49.8017502  62.8847580  42.2197456  48.5493698
  51.4195442  46.2179031  38.0168724  51.3756714  45.4646873  38.6059189
  50.6865349  46.0935059  37.4140015   0.1442932  43.0892754  19.1421070
   0.8760712  42.5473213  19.4370995   0.2984803  43.2105331  18.2052212
  39.4391327  44.0410500  20.0476856  38.8083076  44.7525711  20.1573734
  38.9063606  43.2840347  19.8041306  28.5995750  18.3926525  18.5783844
  28.1715965  17.5369949  18.6086330  28.0528603  18.9132366  17.9898872
  58.6456261  16.7034492  59.3611374  58.6913567  16.8441467  58.4154396
  58.5150642  15.7600431  59.4568939  52.5826340  70.3319016  34.5028381
  53.0826416  70.0339890  33.7429237  52.5386353  69.5663223  35.0757141
  45.5757484  70.3861084  13.8416691  46.4139137  70.1817169  14.2563162
  45.6435089  71.3119125  13.6081553  41.3034363  42.1518555  54.3340607
  41.8461571  41.7287254  53.6687431  40.6475563  42.6380615  53.8344078
  55.0084152   6.4001584  69.0908051  54.5715218   7.0955358  68.5990677
  54.9662361   5.6367321  68.5149307   2.9982908  26.6170197  45.5469704
   2.9333744  27.2256851  44.8110733   3.0685508  27.1799698  46.3179321
  78.9541473  20.1559124   0.2941646  79.3031082  20.9278183  -0.1515061
  79.2858963  20.2257614   1.1893165  54.6684570  48.6116562  82.8573608
  54.4610291  47.6887360  83.0037308  54.2365417  49.0713234  83.5773544
  65.3708725  15.2840443   7.8889794  64.9356308  15.5559216   7.0809708
  64.6927414  15.3525381   8.5610466  27.2901001  57.1035500   8.2632666
  27.7717171  57.8438644   8.6323385  27.9582672  56.5793190   7.8217134
  79.0153885  25.0053425  61.3429871  78.3166351  25.1341095  60.7015877
  78.8681107  25.6877384  61.9978714  14.9515362   6.9736342  49.5212898
  15.4804773   7.7607431  49.6513367  14.9569063   6.5379405  50.3735657
  10.3073006  45.1158447  55.9224815   9.7813540  44.7790527  56.6478653
   9.6987143  45.1583138  55.1848831   0.8943952  17.2126789  61.5568390
   1.7722139  17.2542152  61.9362335   0.3373981  17.6626949  62.1920319
  44.6488991  22.8582211  17.3961086  44.2507706  23.6668835  17.7182751
  45.3720589  23.1515694  16.8418350  37.3005028   7.5526671  48.8570671
  37.5191727   7.5931969  49.7880745  38.0079613   7.0392628  48.4670029
  40.6697083  19.9565468  19.9514503  39.9181404  20.4324226  20.3048916
  41.3562927  20.6186695  19.8712769  15.7109365  15.3007774  84.9297104
  16.0926208  14.4588871  85.1782455  15.4374857  15.6938047  85.7585602
  45.0344505  69.9465027   2.2559667  44.9502945  69.7876511   1.3157989
  44.4938736  69.2692795   2.6626308  72.8488388  16.7878475  88.9503632
  73.6163940  17.2147636  89.3309326  73.2094040  16.0885582  88.4051819
   6.3965130  55.8615189  45.3670273   5.6063566  56.2123489  44.9561729
   6.3334036  56.1369171  46.2815781  70.2764053  26.7196026  40.1195145
  69.6073990  27.3026447  39.7607269  70.7082748  26.3484592  39.3501129
  26.6783161  16.9883862  25.6965408  26.8986015  17.9055500  25.8593750
  26.8690948  16.5457726  26.5235405   4.1769843   0.6962907  27.8069706
   4.4699607  -0.1031427  27.3695889   3.3931992   0.9596637  27.3247395
  57.8556519  35.4790955  28.9427643  58.4164925  35.1099205  29.6249657
  57.0123444  35.0427475  29.0638580  60.1042061  22.3514137   0.0346260
  60.8231239  22.9672012   0.1767394  59.3294334  22.8079586   0.3625408
  39.1146355   4.7370000  26.3634815  38.9671097   5.6068435  26.7347507
  39.9953308   4.7817054  25.9911861  30.1260395   1.7914572   2.4894364
  29.7569180   2.3696146   1.8218174  30.8013496   2.3188114   2.9161503
  10.0526962   1.5089341  85.1190033   9.8410587   0.6498989  84.7536240
  10.1673555   1.3491261  86.0557785  73.6641388   9.3007593  13.0120811
  73.6127777   9.3861036  12.0600777  74.5984726   9.1989040  13.1933680
  15.8716717  10.5163488  15.3901949  15.6630039  10.6742296  14.4694538
  16.8096256  10.6951618  15.4572830  14.4162083   2.0978358  85.4369507
  13.5599899   2.5247598  85.4076691  14.5360136   1.7407402  84.5569763
  52.6753273  38.1932487  26.6410141  51.8903275  38.4251823  27.1372089
  52.4761810  37.3359871  26.2646217  19.9954872  65.8087921  35.2673607
  19.0529957  65.6455383  35.3033180  20.3100033  65.5905914  36.1446877
  69.8627548  62.2605934  57.7265968  69.1512909  62.6375771  57.2089767
  70.4410553  63.0001602  57.9132652   6.1243353  16.0191307  20.9259930
   6.7375731  16.3481655  20.2687969   5.2939744  15.9341488  20.4574718
  71.5215530   7.5577402  51.3146935  70.9280090   8.1124401  50.8084869
  72.1876602   7.2823896  50.6848373  76.5965042   4.1282191  21.7777710
  76.0895767   3.4301829  22.1925049  75.9377289   4.7415133  21.4520054
  75.0447311  59.3664055  21.2262211  74.9869385  60.2839890  20.9598942
  74.2389450  59.2085991  21.7182026  11.5230827   9.6591930  19.3710594
  10.8925476  10.1867619  19.8612919  12.0454140   9.2232456  20.0443745
  75.5729294  39.4762878  67.7466507  74.9666367  38.8113899  68.0730667
  76.0269470  39.7908745  68.5283966  11.8062725  17.1572838  62.0207367
  12.6624584  17.5833607  61.9802933  11.8612089  16.4480247  61.3802948
   5.2946725  46.0148735  68.0469513   4.9966607  45.2234879  68.4954224
   6.0935116  45.7465019  67.5930023  29.2048931  47.3143044  75.3303070
  28.3503189  46.8890610  75.4017410  29.2054329  47.7056046  74.4567413
  27.6860466  53.0028687  29.2634926  27.9198380  53.0580826  30.1900578
  27.5351467  52.0702286  29.1097145  66.5866623  46.4611359  18.3766556
  66.0422821  47.0661049  18.8805370  65.9669342  45.9845009  17.8243942
  61.2378883   5.8930993  77.0329590  60.7960052   6.0767775  76.2039566
  62.0470161   6.4028039  76.9911499  61.9678612   3.5270090  49.5985451
  62.2562294   4.3316746  49.1677475  61.2772446   3.1854880  49.0305252
  67.2934647  62.6579552  40.7420616  67.0811310  63.4846611  40.3088150
  66.4499512  62.2169228  40.8430710  45.7414474  31.7299118   0.8352451
  46.5677261  31.7921524   0.3560596  45.3794441  32.6154823   0.8044932
  11.4579601  32.2790947  71.3392410  10.6835089  31.7733669  71.0928802
  11.6963854  31.9458885  72.2043228  81.8365097  20.7571297  83.4927368
  81.1154480  20.7743912  84.1220245  81.9336777  21.6679134  83.2147751
  10.8552332  61.7129974  54.5633583  11.1269350  62.2138329  55.3324966
  11.6561193  61.2844658  54.2614098  32.8259468   4.0010767  41.5733185
  32.1993065   4.7127919  41.7037468  33.2460938   4.2021275  40.7370834
  33.2705536  69.8252106  73.0555573  32.9713631  69.0303268  73.4969940
  32.9402390  69.7412186  72.1610870  16.2587395  29.1161804   5.2054353
  16.8057785  29.7463741   5.6743040  16.0119438  28.4725227   5.8695345
  43.9957047  67.2996750  44.8009300  43.0478554  67.1688080  44.7746239
  44.2043648  67.7090149  43.9612083   5.3235240  41.8977699  27.6340332
   5.3297677  42.3189812  26.7745132   4.3968492  41.8441811  27.8677711
  37.0247688  61.4149323  77.0583496  36.7277069  61.1810226  77.9377060
  37.0152893  62.3720398  77.0490189  36.4405174  39.2755699  23.3223972
  36.6091614  39.9139214  22.6293602  35.5523987  39.4735909  23.6194839
   2.9279840  28.2280636  47.6369667   2.4506359  27.8882675  48.3938751
   3.8184221  27.8941078  47.7457161   9.0074434  50.3731346  26.5642242
   8.8917723  51.0128975  25.8616867   9.8577881  49.9718170  26.3850880
  82.9263382   7.3761530   2.1090295  82.4407501   8.1422205   1.8031247
  83.7804184   7.7218351   2.3684096  10.2608109   9.4165106  33.5287018
  10.8871908   8.7136068  33.7013435   9.4161997   8.9720716  33.4556503
  36.4135361  44.6425018  55.2739029  36.3028107  44.8282852  54.3414574
  36.2755356  45.4862823  55.7042770  41.7919388  53.0358696  88.4740524
  42.4267082  53.6816788  88.1638489  41.7121735  52.4124832  87.7520752
  17.1703758  18.9752102   7.9644985  17.0821037  19.0388851   7.0135069
  17.7302647  18.2111912   8.1024485  61.5984268  43.0068283  36.3642693
  61.7680626  43.4898605  35.5554810  61.6044121  42.0869637  36.0996170
  54.0426407  15.3123083  34.8230171  53.2913399  15.0037985  35.3295746
  53.9097214  16.2573280  34.7488365  41.7806396  49.6324692  13.2552471
  42.7053223  49.4902115  13.4576120  41.3205261  49.4010162  14.0620670
  85.2631836  46.7348976  27.6182957  85.8522186  47.4801941  27.7357864
  85.1456833  46.3811684  28.4999428   1.2819346  31.1724758  21.8119297
   1.4577894  31.6841125  21.0222874   2.1468694  30.9000759  22.1183891
  36.5159264  20.0301552  32.5694160  35.7132950  19.7547379  33.0123177
  37.1057549  19.2811413  32.6549072  42.9744682  43.6467018  22.4334049
  42.9100266  43.5340767  21.4850407  42.0956802  43.9135017  22.7031784
  13.7878551   1.2113941  33.5989380  13.5858173   1.7757763  34.3451843
  14.7074423   1.3920149  33.4040871  44.2888412  51.7289238  60.6969986
  44.8870544  51.0818100  60.3233490  44.0946884  51.3974876  61.5737457
  13.8968916  43.1826248   4.0958819  13.9624615  42.5979462   3.3408437
  14.1978025  42.6540298   4.8349838  41.1338196  63.2337532  39.9829102
  41.3635330  64.0153351  39.4803200  40.6353493  62.6929779  39.3702736
  63.4676628   5.7366643  48.7790527  64.3567505   5.8543267  48.4445305
  62.9351730   6.3407989  48.2616463  23.3581924  57.6355171  41.0407562
  23.1272755  58.2262306  41.7576714  22.5824738  57.6246567  40.4800644
  75.0556259  32.7106323  26.0527554  75.6788940  32.1307716  25.6151199
  75.0717926  33.5149040  25.5339909  83.2582245  34.9110909   9.4282188
  83.6937866  34.8832474   8.5763168  83.4943314  35.7651978   9.7901382
  13.2584372  70.9780960  53.2994537  13.7490311  70.1598892  53.3774300
  13.1462822  71.2770462  54.2018280   8.0400963   9.4394236  23.7556114
   7.6490378   9.8553009  22.9872684   8.8561096   9.0577402  23.4320812
  61.9622459  14.9720764  87.4294434  62.7581253  15.3155899  87.0234756
  61.3777504  15.7278490  87.4878006  19.3999004  65.7799759  78.2632599
  18.9347610  64.9507980  78.3743744  19.5972977  66.0652847  79.1553726
  84.5922012  48.2985077  57.0607796  84.4280243  47.4265938  57.4200058
  84.1225739  48.8915253  57.6473083  41.0240402  14.8437500   4.6145315
  41.4744034  14.1836433   4.0875945  40.2416725  14.3980331   4.9392967
  13.6636963  40.8310013  79.6910934  13.8309851  40.0851212  79.1149750
  13.4686823  41.5545921  79.0955963  35.0594292  17.6036644  25.1982231
  35.7257195  18.0194569  25.7454033  35.5567551  17.1566734  24.5133171
  45.0493927  53.2440529   0.0168252  45.2434082  54.1327133  -0.2813005
  44.6709785  53.3610229   0.8882337  13.7290812  31.1033840  17.5402107
  13.2220621  30.6463737  16.8691616  14.1923304  31.7917957  17.0630093
  57.1030121  66.1155624   2.8259013  56.4337044  66.1928024   2.1459806
  57.8651276  65.7558517   2.3720038  45.5501404  17.1837864  80.4119949
  44.9672318  16.4380379  80.2694855  45.7076416  17.5355339  79.5358124
  44.9498596  10.8235788  71.8805695  45.1806221   9.9025049  72.0014114
  45.1588516  11.2348785  72.7192459   0.7125010  48.5696411  45.7079239
   0.9293141  49.4915619  45.5690575   1.3353599  48.0919647  45.1601067
  11.9579401  62.4096298  10.1259165  12.1118813  61.9846573   9.2821560
  11.0684023  62.1501846  10.3660088  39.7952538  47.2784958  49.3371162
  39.9919930  47.0391426  48.4314499  38.8990021  47.6132584  49.3070908
   4.8462572  13.1453667  55.5213585   4.7263474  13.0482044  54.5766830
   4.0657930  13.6154985  55.8147583  73.4041977  71.8111496  43.8116455
  74.0410919  71.9715576  44.5079689  72.9235458  71.0354919  44.1007118
   5.7962346   3.1767287  87.0720978   6.4485564   2.8512962  86.4517746
   6.2984972   3.7043402  87.6930542  81.3474274  54.9096069  15.0672617
  81.1959381  55.2379456  14.1809902  80.5507584  54.4245834  15.2824316
  39.6272659  46.3159866  57.3759918  39.2105827  45.5523758  56.9766159
  40.0886345  46.7422218  56.6537056  63.8810921  18.2847786  61.3261948
  62.9854622  17.9646435  61.2185249  63.7804527  19.2158222  61.5243416
  55.5729675  29.4424648  61.5829697  55.3427353  30.2329903  62.0711250
  55.6385956  29.7332516  60.6733704  76.2918930   9.0835905  13.4772758
  76.8374329   9.7939310  13.1395864  76.6041183   8.9462252  14.3716354
  28.5958290   9.0491247  88.2171555  27.9313850   8.7701120  87.5871582
  28.3194809   9.9257727  88.4842682  56.3825684  31.4897327  86.1563492
  56.0553665  30.9244270  85.4566345  55.6724472  32.1121025  86.3132477
  11.2913179  11.4635639  61.6871300  11.6091461  12.2578278  62.1165047
  12.0151520  10.8422947  61.7666321  78.7939301  65.3152313  19.0935421
  78.8274689  64.3586884  19.1048298  79.5971222  65.5883026  19.5368862
  64.6679840  14.2807131  37.0237465  64.9121094  14.7262268  37.8350105
  65.1036453  13.4300823  37.0771790   5.0065823  65.5261230  25.0195122
   5.5108042  64.8115463  24.6304512   4.8950200  65.2697983  25.9349804
  37.8964424   0.8505791   0.3061039  37.5841026   1.7539819   0.3565036
  37.1707726   0.3680032  -0.0898202  29.5151176  33.2739830  19.6233025
  28.9776211  33.1539345  20.4061928  30.2073021  33.8754005  19.8979092
  34.6248665  40.6410446   3.2858250  33.8962631  40.4899902   2.6837051
  34.2300529  41.0946503   4.0305367   1.9175965  40.3614044  18.0604935
   2.5962274  39.8145294  17.6647434   1.5388540  39.8132820  18.7477684
  20.2100067  36.8419189  84.8503647  19.8694839  36.1385956  84.2975388
  20.1948490  37.6167870  84.2885971  59.2620430  30.0676613  18.3255501
  59.6025887  30.8052559  18.8317280  59.2955704  29.3263988  18.9302292
  82.9655457  58.6081886  51.7206955  82.9990463  59.3158722  52.3643570
  83.8317795  58.6136246  51.3134575  79.1970291  36.0929680  86.9087296
  80.0968552  36.3808327  86.7548447  79.1415405  35.9770775  87.8572693
  57.5345116  65.0650635  26.4847107  58.1336517  64.3271637  26.5977020
  56.7125854  64.6649246  26.2008801  10.6404924  64.9213638  28.3915272
  10.6621237  65.8025818  28.7646332  10.8162975  65.0514374  27.4596443
  53.1050072  40.6536751  25.3948078  52.7785988  39.7595444  25.4958782
  52.8148994  41.1055565  26.1871910  54.7236176  33.3556366   5.1984067
  54.0192833  33.8867569   4.8268514  55.0756912  32.8693390   4.4528923
  75.7422791  61.1348724  84.4242783  75.3505936  61.4577408  83.6127548
  75.0680008  60.5753174  84.8096085  43.7339935   2.2082205  86.5803986
  43.4879723   2.9066598  87.1869278  44.0077896   1.4857261  87.1454315
  15.4514809  38.8483810  75.2182846  16.3285770  38.9895554  74.8619080
  15.5762615  38.8448792  76.1673126   8.5940695  55.7166634  20.4095688
   7.8021307  55.8398399  19.8862209   8.4161777  54.9351768  20.9328899
  72.9178696  54.5550842  25.8874664  72.4371719  53.7581635  25.6636639
  72.6700897  54.7376862  26.7938290  52.1053543  14.0586014  57.2108459
  52.9252625  14.2295914  56.7474442  51.4778442  14.6663532  56.8195610
  13.0130014   0.2042607  24.8846607  12.6193161   1.0144215  25.2085171
  13.4642315  -0.1632474  25.6446342  12.5911674  67.6984634  61.6723633
  13.2704458  67.2315216  61.1857643  13.0365238  68.0207443  62.4559593
  34.6895752  51.4087830  88.1083374  33.9531937  51.8660507  87.7022858
  35.4283447  52.0093536  88.0094986  65.1453400  24.8576317  48.0184937
  64.3942337  24.4247704  48.4243317  64.7846451  25.2846012  47.2414284
  21.4877701  36.8989792  79.3102188  21.9385128  36.1161156  79.6267395
  22.1902294  37.5244751  79.1326294  85.1599960  26.8199692  88.9320679
  84.4735260  27.4196854  88.6399384  85.5749512  26.5189190  88.1237259
  56.4710846  59.7528954  47.9879341  57.1235313  59.0527344  47.9700012
  55.9224052  59.5496407  48.7454758  78.0152817  40.8089371  55.5762672
  77.2563934  40.2543831  55.7573395  78.7282257  40.4094200  56.0745926
  43.0661545  62.2619858  35.9470558  43.1275864  63.2170868  35.9314995
  43.9735184  61.9646835  36.0143929  39.5056992  12.9290962  79.3393326
  39.9822807  12.1002007  79.2942123  39.4320450  13.1123571  80.2759323
  83.9436035  14.0376225  47.2049904  83.9795227  14.0214071  48.1613808
  84.8310776  14.2747746  46.9359665  69.6553192  43.2274590  83.4076462
  70.2149658  42.5737076  83.8267441  68.8915787  42.7333336  83.1096954
  80.1043625  30.3637638  39.0153999  80.3740997  30.9128571  38.2792130
  80.6324844  30.6733704  39.7512436  18.3025055  62.8139076  11.0080843
  18.8664818  62.4054451  11.6648350  17.4347572  62.4461670  11.1754513
  47.8333435  47.7860069  85.0321808  47.0679321  48.0342712  84.5137787
  48.4723740  48.4781303  84.8623657  52.4722443  31.1805725  69.0903320
  52.7993965  31.9168205  69.6071930  52.4557419  31.5078716  68.1909790
  70.2429581  62.6991997  60.6140213  70.6436615  62.9002800  59.7683067
  69.3298798  62.5016251  60.4055138  70.2392883  49.8192482   0.6732097
  69.5839157  49.1478539   0.4836165  69.7360916  50.5511055   1.0301553
  63.1643372  21.6470013  69.1582108  63.4931831  20.8900490  69.6430969
  62.4080086  21.9450188  69.6635666   6.1118169  33.3204880  21.8099728
   7.0480337  33.5175972  21.7803326   5.9421806  33.1008568  22.7260609
  69.3233948  51.6530991  85.9185257  70.1733093  51.2473907  85.7474442
  69.3805389  51.9557266  86.8248291  61.3401527  22.0994911  14.4558668
  61.8453751  21.3355904  14.1775923  61.6920128  22.3179646  15.3188238
  55.3489685  42.2603455   0.1756487  54.8697510  41.7892036  -0.5059731
  54.6680031  42.6861267   0.6964478  10.1743956  14.0746336  62.9637871
  11.0696154  13.9356928  62.6547394  10.2776289  14.4039497  63.8566055
  58.5624008  23.1397076  82.4157333  57.7446938  23.2181187  82.9070969
  59.2157822  23.5690804  82.9679642  50.6067200  10.0084877  10.3003864
  50.9601669  10.8971548  10.2606707  49.9017754  10.0597286  10.9458790
  62.4197922  17.7718468  37.7546158  63.3186417  18.0012531  37.5186691
  62.4424019  17.6615582  38.7051735  43.1624222  26.3347569  26.0762024
  42.7117462  27.1451511  25.8387470  42.8446999  26.1330509  26.9563160
  24.1109982  39.4185066  64.3843536  24.2146397  40.3492393  64.1862869
  24.4754372  38.9693069  63.6217041   7.0430260  43.4315147  45.4007721
   7.2296815  43.8235931  44.5477371   6.2137513  43.8267326  45.6697273
  61.4657822  60.5788879  71.8816147  61.8186150  61.4686775  71.8854675
  62.2263565  60.0189629  72.0373383  15.1550369   9.8092318  79.3673477
  15.8065910  10.3782015  79.7771988  14.4329710   9.7809725  79.9950790
  65.7852936   0.1171064  81.2216492  65.8205948   0.4405991  82.1218338
  66.6981735  -0.0603522  80.9949417  53.0946770  70.4967499  82.2064209
  53.6996689  69.9052124  82.6539688  53.4306259  70.5510178  81.3117599
  19.1866684  38.8114319  76.4110947  18.9822636  38.6085587  75.4982452
  19.5756760  38.0068474  76.7539520  48.9226074  71.3778534  59.2997551
  49.1062088  70.8379822  60.0685577  49.5463943  72.1013336  59.3606224
  65.4169464  29.2503662  66.4542465  65.0855789  28.8777637  67.2713165
  65.0273132  28.7081547  65.7683792  85.9372177   8.7914391  62.2064514
  85.1621246   8.6918716  61.6536865  85.6242828   9.2706757  62.9736786
  59.2954712  28.1328735  20.0604954  60.1682167  27.7808456  20.2354946
  58.8774796  28.1754036  20.9205570  10.3428707  43.0077896  52.1005936
  10.0011740  42.2532158  52.5802689  10.0918713  43.7632027  52.6321793
  69.7180710  55.0312881  50.8525467  70.0616684  54.9820366  49.9604988
  69.3331680  55.9056015  50.9130249  69.3045197  33.5043144  58.1667824
  69.4348373  32.8208237  57.5094452  70.1554718  33.9374619  58.2338715
  14.2421637  18.2407684  68.1398010  13.6321945  18.1369400  67.4094696
  14.3711920  17.3524723  68.4722366  56.5145493  16.7684555  15.4413824
  55.8336716  17.1180897  16.0161781  56.7654457  17.5090237  14.8892574
  49.2834244  33.9508247  83.8756561  49.9505920  33.2758369  83.7510986
  49.7285156  34.7702637  83.6596832  37.0643768   4.0625362  39.3466682
  36.6557884   4.3126340  40.1753654  36.4680672   3.4144993  38.9715767
  42.4314728  14.9111748  86.1481934  42.1458588  14.0018320  86.0601425
  42.2034302  15.3159523  85.3113022  58.5040436  53.2419052  51.1906891
  58.8155746  53.3090591  52.0932770  57.7874756  53.8742638  51.1369629
  75.9391479  57.3138542  23.7624092  76.5351791  58.0223503  23.5194893
  75.4758377  57.6439743  24.5322113  26.3372974  24.6412144  29.3184662
  27.0910835  24.0524693  29.3561268  26.7108250  25.5158024  29.4271126
  81.9995880  43.4392624  28.5234356  81.9259644  42.7153473  29.1453342
  81.5747910  43.1164436  27.7287273  13.8230362  23.2446804  18.6415100
  14.6949739  22.9964046  18.3344021  13.4309750  22.4235821  18.9386902
  70.4700317   5.7981772  19.7256126  71.0154724   5.8191643  20.5119228
  69.8087921   6.4740229  19.8746929   5.5416188  39.3560562  59.6372833
   6.3876376  38.9085197  59.6232834   5.2135191  39.2761116  58.7416306
  19.1476364  67.3933182  88.5784531  18.9636211  67.0320740  89.4455566
  19.6732979  68.1744232  88.7510223  35.2337914  26.3459549  10.1660461
  34.4068031  26.8127613  10.2861252  35.3756523  25.8924141  10.9969530
  46.7779198  64.7717743  33.4448395  46.7464752  63.9234695  33.0025482
  45.9274216  65.1700592  33.2597580  72.5858231  30.7128468  14.8377905
  72.9592209  29.8978500  14.5022516  72.6508026  30.6321507  15.7893667
  86.0702362  54.3994331  53.4965668  85.7861786  54.2320557  54.3951912
  85.3164749  54.8184357  53.0812187  41.2753105  28.2617989   0.4544947
  41.9379692  28.9522762   0.4732844  41.6517754  27.5837345  -0.1065175
  18.9595966  52.8188438   2.3126929  19.7247658  52.3137054   2.0377662
  19.3247719  53.5846100   2.7559519  62.1023293  51.4018173  77.2587051
  61.2548637  50.9624176  77.3291626  61.9353981  52.2941856  77.5620956
  10.3859425  52.3957214  54.5673637  10.2950811  51.4938736  54.2597237
   9.9135141  52.4136162  55.3996620  10.9308643   7.1484876  86.9161148
  10.5930681   7.4686737  87.7525406  11.8780088   7.0965934  87.0443954
  24.7200298  26.1504707  86.9822311  25.5602608  25.7222004  87.1460190
  24.1695004  25.4626045  86.6080780  65.8754120  44.0190735   6.2001395
  65.7875595  44.4515572   5.3507442  66.8125687  43.8428955   6.2834172
  36.0411568  49.4935646  76.2141724  35.2583122  48.9949608  76.4482193
  36.7204514  48.8301010  76.0933228  78.7989960  33.5537605  44.7482376
  77.9848938  33.0758324  44.9065361  78.9774323  33.4211311  43.8172150
  49.4416275  56.4079285  48.7807846  49.2260284  57.1753273  49.3107376
  49.0601158  55.6717339  49.2590141  61.6296539   6.2675543   6.6540022
  62.0272598   5.4786696   7.0225148  60.7052574   6.2045217   6.8943167
  26.0994816  67.7300720  14.2070007  25.9269772  67.4051819  15.0906963
  25.7407570  68.6175079  14.2038078  49.1792412  21.4291172  23.0991573
  48.9703026  20.6559563  23.6233711  49.4155807  22.0976963  23.7421017
  71.9286728  43.6053276  11.7126541  72.0005264  43.0756721  12.5067167
  71.2118988  44.2131844  11.8942451  61.9528084  38.9504852  29.0264473
  61.7933350  38.0660973  28.6968136  61.3530426  39.5042000  28.5265331
   3.3252850  58.1295776  42.1165771   2.8682725  57.4792137  41.5832863
   2.6446941  58.7536888  42.3685989  29.5785675  66.9451447  19.8992615
  29.0131893  66.3483658  19.4089279  30.4677963  66.6787796  19.6656971
  78.1275482  29.4682693  72.5124207  79.0378494  29.2208347  72.6747360
  77.6293869  29.0028934  73.1843567  79.0638580  31.3379517  23.7899666
  78.7379150  31.4488125  24.6831055  78.4809570  31.8755417  23.2538185
  75.1399002  44.9891129  40.0111237  75.1401215  44.4445724  40.7983398
  74.4295502  44.6357193  39.4756355  69.6787109   0.4973876  39.6913071
  69.9168243   1.3583456  40.0352402  70.4852066  -0.0149421  39.7488823
  77.1966324   4.5270615  65.9370346  78.1066971   4.7272582  65.7180710
  77.1236877   3.5804291  65.8153915  40.7125702   2.7156804   0.6634160
  40.2923775   1.9276338   0.3189565  40.4784966   2.7257426   1.5915000
  78.1912613  14.4094000  60.4641380  78.6943207  14.6269484  61.2488899
  77.3008652  14.2628002  60.7834167  16.1288071  24.0927429  74.3537903
  16.9884510  24.2298756  73.9557419  16.3155003  23.6436901  75.1782455
  85.1260452  62.5682602  88.7729797  85.7645264  62.8278122  88.1087494
  84.3922806  63.1700974  88.6479874  36.9556160   8.9205341   2.8368287
  37.6306992   8.5025473   2.3022423  36.5218506   9.5309649   2.2406301
  29.7615509  24.6900272   1.5547913  30.5219097  25.2714138   1.5634753
  29.4254799  24.7485752   0.6604418  49.7301903  64.4238052  42.8995018
  49.8206520  65.3058624  43.2600822  49.0532341  64.5078201  42.2280045
  10.0978146  68.6371078  26.7591724   9.7464733  67.8705215  26.3062534
  10.8655014  68.8878937  26.2453709  81.7201614  15.7096958  74.6094971
  80.9177322  15.2302856  74.4033356  82.4192581  15.1862698  74.2176819
  71.1741562  29.8993015  45.8159561  70.2862625  29.6288261  45.5820389
  71.2639999  29.6553020  46.7371635  31.0580368  25.6870937  86.1261902
  31.8281879  26.0898056  86.5273361  31.4130592  25.1241150  85.4382629
  60.4783707  36.5696487  20.1788731  59.8379211  35.8638878  20.2681007
  59.9543762  37.3706703  20.1842461   6.7780471  43.4290619  16.7568359
   6.7367258  43.4332581  17.7131348   6.3757234  44.2575378  16.4960804
  70.1743164  26.9929638   7.7748947  69.8346634  27.4100475   8.5666733
  69.5315094  27.2047901   7.0980163  48.9530907   9.8825369  23.7692986
  48.0902023   9.5000725  23.6100044  49.5694160   9.2297201  23.4373264
   8.5316725  42.8305550  76.3485031   9.0033550  43.5651321  75.9558945
   7.8458381  42.6201401  75.7147903  69.1350708  50.1030884  48.7027435
  68.7769089  50.1744919  47.8179550  69.0890503  50.9929924  49.0522995
  40.8506355  55.7057381   9.4428930  41.0341797  55.6371040   8.5059662
  41.6124763  56.1592941   9.8036079   9.7467852  33.1897964  30.1996250
   9.0840664  33.0925522  30.8834248  10.5263214  33.4956055  30.6633453
  25.3910866  46.9564819  14.6667986  24.5622787  46.4899864  14.7749319
  25.9375973  46.6441116  15.3878975  17.2527752  56.0711937  30.1285133
  16.9264202  55.4875374  29.4436283  18.1683731  55.8169250  30.2436543
  73.0919495  42.4636040  36.9532585  72.5078812  43.0095673  36.4269295
  73.9720383  42.7162666  36.6742859  84.9052124  66.4408722  18.4230728
  85.4650116  67.1174850  18.8039341  85.2720566  65.6173935  18.7448559
  82.1071396   8.1179523  53.0404015  82.3599625   7.5924158  52.2813721
  81.1740417   7.9384794  53.1559105  59.0904236  35.2182236  57.8245544
  59.0522995  36.0107689  57.2891541  59.3506737  35.5275955  58.6921883
  28.4750633  21.2539043  20.2328777  28.6590424  21.4523830  19.3147335
  29.1689281  20.6468868  20.4903927  52.5739403   9.5296946  78.1797180
  52.9358940   8.6513681  78.2970352  51.7194138   9.3843288  77.7736511
  17.6040707  54.7087860  19.9431286  18.4093990  54.9481583  19.4844589
  16.9458294  54.6404228  19.2515526  62.6449051  58.5889816  37.8115959
  62.4049683  59.4937096  38.0118980  62.1019249  58.0618172  38.3976860
  68.8302155  55.5702019  32.3481674  69.6349106  55.8069916  32.8092766
  68.1355286  55.7094231  32.9918022  50.4607430  65.9754257  20.3005543
  49.7308311  66.0914688  20.9088268  50.9047928  65.1848831  20.6073151
  32.3221016  55.8421707  14.0827560  31.5717888  56.3987427  14.2913084
  32.6194267  55.5132141  14.9310579  61.6288490  39.7151031  25.9247437
  62.4363861  39.9247360  26.3939724  61.0964737  40.5071678  25.9985065
  43.6097984  23.9281788   1.9751523  43.0430183  24.5013142   2.4913981
  43.6491203  24.3431835   1.1134927  22.9421158  55.6826515   0.1310830
  21.9900436  55.7809143   0.1195728  23.1031513  54.9840851   0.7653548
  67.4025726  60.0993309  84.4086609  66.9560928  60.1419601  83.5630417
  67.9172668  59.2933464  84.3673859  31.6627064  43.5465698  80.8855667
  31.7777004  43.8943253  81.7699203  32.5527420  43.4633980  80.5432968
  72.3171005  69.6991272  86.3520966  72.9117050  69.3078918  85.7120819
  71.4439621  69.5546799  85.9874191  12.9866600  66.8639603   6.8465862
  12.6961603  66.8025284   7.7565684  12.4505663  67.5621719   6.4706416
  66.4785004  21.2970104  27.6647339  66.2779083  22.0064068  27.0542011
  65.7071686  21.2411823  28.2287960   1.1896160  37.4915123  17.3840084
   1.9835320  37.9732361  17.1519032   1.3729335  37.1316032  18.2518158
   5.8628216  42.1212311  22.7989368   6.3140688  41.3925896  22.3726883
   5.0266981  41.7518768  23.0830231   2.1204126  27.3565941  88.4841919
   1.1736602  27.3585911  88.6252136   2.2466667  26.8024979  87.7139511
  63.3309708  52.0081406   0.6907915  63.6432304  52.8581543   1.0009596
  62.6682014  51.7483940   1.3307121  33.3820686  66.3097229  61.0955353
  33.7969933  66.2300720  60.2366219  34.1017113  66.2123566  61.7191277
  78.5468292  65.2964096  73.2182770  78.1798325  65.3249283  72.3346863
  77.9774399  65.8685913  73.7327042  38.0445976  69.6896744  48.4248848
  37.8136215  68.8182526  48.7466049  38.9471245  69.8208466  48.7155266
  63.4335556   1.7352699  30.7165585  63.9806137   2.1037774  30.0229015
  62.7546654   1.2460759  30.2517662  68.3214111  53.1160355  60.6569672
  68.1993484  54.0005836  61.0017929  67.5384598  52.6405449  60.9346886
  67.7933197  15.3371134  49.2644806  68.1202698  16.0929623  49.7523651
  68.0062180  14.5850515  49.8170319  58.7868538  56.2113495  75.6940308
  58.1761703  56.9481049  75.6719818  59.2094841  56.2761192  76.5504303
  38.0768394  41.5447960  18.8186474  37.5492477  41.2813873  19.5726318
  37.5309181  41.3375740  18.0601864  60.9921303  40.2562599  21.8929348
  60.6714783  39.9132538  22.7270584  60.2271233  40.2411957  21.3178062
  48.9506912   0.3682066   0.2365448  49.4021645   0.1998291   1.0636200
  49.0876045   1.3016273   0.0746419  40.1566429  15.8170414  20.9179020
  39.3537483  16.2257366  21.2412586  39.8750877  15.3002281  20.1630096
  56.9449043  19.2771454  29.9296150  57.3934517  19.6576328  30.6847744
  57.3876076  18.4409943  29.7843628  12.4207764  42.9559746  78.2863464
  11.5961380  42.7259560  78.7144775  12.3159227  42.6510811  77.3850861
   1.5112333  70.1155472  14.0250750   1.8745822  70.7462158  14.6467361
   1.7841089  70.4405441  13.1670856  67.1338654  35.6951332  22.1955681
  67.0635376  35.9428368  21.2736511  66.2532730  35.4049759  22.4334583
  56.8172417  49.9074783  67.5047913  56.2698441  49.1486969  67.3027115
  56.9240456  50.3559799  66.6659393  85.5937881  21.3856983  31.0003262
  85.4472656  20.6412640  31.5839176  86.3848877  21.1558533  30.5129147
  10.9182262  66.7985153  54.9611015  10.3078070  66.0985413  55.1927567
  11.7436008  66.3474731  54.7834702  51.2919312  41.5383949  41.8054619
  50.4803963  42.0369797  41.7103081  51.3274994  41.3139153  42.7352867
  74.3734283  13.8131285  13.8372269  73.8749619  14.1052837  14.6003847
  74.8129044  14.6027260  13.5215893  60.0989075   3.1791825  54.6813812
  60.6540031   2.4116020  54.8189278  60.3922997   3.5401261  53.8447990
  80.5689697  68.8511047  46.7745895  80.6530151  68.9288788  47.7249184
  80.1840286  67.9853897  46.6382408   4.5345116  18.0168018  18.2038898
   4.5379839  17.1205177  18.5398884   3.8927689  18.4738808  18.7474689
  83.1443176  61.0113029  13.7746830  82.2398453  61.3133316  13.6914072
  83.6316071  61.7875900  14.0506439  42.8290710  67.7124557  63.5006828
  43.4519577  67.5780411  64.2149506  42.3249397  68.4822845  63.7642097
  31.1316738  40.2968063  14.1778517  31.1131439  40.6240044  13.2785025
  30.6786308  40.9691505  14.6867132  27.0425472  67.5068893  86.2857819
  27.9005394  67.3562622  86.6825104  26.4244518  67.0907898  86.8866577
  21.0773468  34.5944328  12.9772825  20.4296761  34.9990616  12.4001961
  21.6021957  35.3272629  13.2993460  37.7711983  65.2835617  84.8768539
  37.1160812  64.6150360  85.0771866  38.4749184  64.8054352  84.4382095
  36.8309174  26.1664238  77.3498077  37.5255661  25.8497887  76.7723694
  37.2789307  26.7406616  77.9709091   4.5705490  34.7795982  63.8125877
   5.2937055  34.4418373  64.3409729   4.2581778  34.0201569  63.3207512
  63.1904793  13.7588387  63.4332657  62.4365005  14.2443008  63.0984840
  63.0101814  12.8475065  63.2026176  31.7781353  67.1962967  56.0266800
  31.2925320  67.7985001  56.5903931  31.1562176  66.4947128  55.8337250
  54.1676941  56.6865196  66.7154007  54.4816208  56.9930229  67.5661316
  53.3703041  56.1967163  66.9166260  73.8858337   4.2894430  71.8828735
  73.7963943   3.3590193  71.6766129  73.3464584   4.7328444  71.2281189
  55.7580757   5.3760748  76.7835693  55.5406303   4.6234837  77.3336182
  56.7123680   5.3531327  76.7126312  83.5106049  64.9626617   8.3089485
  84.3713455  65.0726471   8.7130108  83.0948715  65.8207016   8.3936014
  39.4786987  43.8107491  41.6246262  38.6205025  43.9716492  41.2323990
  39.9332008  43.2587700  40.9882469  76.5506363  12.2624035  57.2446709
  76.8915939  13.1560879  57.2808418  75.8409653  12.3025684  56.6035881
  35.2066803  21.2793446  80.1206970  34.5600548  20.6079769  79.9030380
  35.7042046  21.4036674  79.3124619  55.3734512  37.9553337  79.4705048
  54.8277016  38.6762810  79.7845535  55.9826508  37.7855034  80.1890182
  72.0459290  20.3157635  33.2138634  72.9393845  20.5408401  32.9544220
  72.1532364  19.7655449  33.9897346  33.0822411   2.5829031  35.8506126
  33.4434319   1.6968153  35.8256989  33.8459206   3.1499131  35.9579735
  57.7660713  62.5335236   7.6857915  58.2168770  62.5958138   8.5278854
  57.6881409  63.4399452   7.3882084   3.4945855   1.1669343   4.9125299
   2.9236720   1.2687643   4.1510048   3.2638252   0.3103533   5.2720442
  13.6842699  50.4410973  62.5416107  12.8417387  50.1904449  62.9204865
  13.5353556  51.3166504  62.1845894  45.3067017  59.4108086  63.8599586
  44.7846451  58.9686317  63.1905060  46.1932449  59.0723305  63.7346382
  72.9789734  56.0921936  -0.0409136  72.6137695  55.6624298   0.7324918
  72.4069824  56.8452797  -0.1889687  81.8040543  43.0773697  41.5489769
  81.7698822  43.9775124  41.8727112  80.9646072  42.6975250  41.8083420
  47.2526131  49.6808586  35.0654488  47.8561096  50.0094299  34.3990669
  46.6529846  50.4095459  35.2257385  22.5016651  13.8212538  11.3960505
  22.4790344  12.9047375  11.6712189  23.0168648  14.2616129  12.0719824
  35.0546227  53.0245514  32.3333588  34.5810814  52.6034279  33.0507469
  35.1817780  52.3282509  31.6889725  10.5596142  31.2344437  12.8506794
   9.8631201  31.8248043  12.5632715  11.0089560  30.9833450  12.0436640
  18.9035072  63.0555038  40.0718460  19.8321056  63.2532082  40.1937027
  18.4569111  63.8829041  40.2512703  39.6918526   8.6545868   8.2678576
  38.7377968   8.6843042   8.1962442  40.0053482   8.9235888   7.4043813
  62.7934532  34.4060249   2.3714340  62.8295097  34.1056709   1.4632928
  63.6474648  34.1722641   2.7351041  41.2117386  56.1092911  19.3876972
  42.1364784  56.0011940  19.6099663  40.9307175  55.2398338  19.1025562
   6.1461492  32.9004059   8.3357315   5.9459872  32.0041161   8.6056004
   6.4314842  32.8184776   7.4257298  44.9459381  61.8957710   9.4983158
  44.9433441  61.4199104   8.6677866  44.4688301  61.3264580  10.1020432
  81.5154877  22.7540760  71.7704010  81.8015900  23.2920971  72.5085831
  80.8635330  22.1614056  72.1444702  49.0386429  55.5745354  29.2415543
  48.3579788  55.1011887  28.7631454  48.5718422  56.0080872  29.9559498
  57.9051399  14.0791082  60.2572289  57.3046265  14.1065178  59.5123367
  57.3628159  14.3120375  61.0107918  76.9446945   8.6156063  85.0272446
  76.9719238   7.7597966  84.5993729  76.3950653   9.1517639  84.4556885
  74.5389099  21.5428638  17.7299595  75.4561691  21.6736774  17.9702702
  74.4968948  20.6346149  17.4307060   3.3774586  65.1277313  50.4893303
   2.6457427  65.7436447  50.4509277   4.0442238  65.5798645  51.0062752
  30.0251045   0.7144789  82.9226761  29.7338982   1.5968822  83.1524506
  30.2537842   0.3119717  83.7604828  73.4248505   1.5236700   8.7849665
  73.9462509   1.9810252   9.4446640  73.6662827   1.9403672   7.9577379
  62.6646042  64.6028214  77.9696732  62.5655594  64.9281540  77.0749207
  62.1269341  63.8113937  77.9976578   7.1954107  27.8805656  72.7933044
   6.7562580  27.7088146  71.9603119   6.7020187  28.6042366  73.1794281
  64.3840561  26.1652451  45.9078293  65.1077805  26.6314583  45.4893875
  63.5985794  26.6202526  45.6041336  17.1962128   2.2510414  53.0803299
  17.1316776   2.9897766  52.4750710  17.2123852   2.6535361  53.9486427
  38.1895828  67.2976074  36.6789474  38.7036362  67.0546875  37.4489937
  38.6414299  68.0615768  36.3205910   5.4316964   0.8514491  48.3173599
   5.2708893  -0.0415798  48.0126076   6.2838621   0.8067403  48.7510033
  61.3465729  18.2030888   1.4107647  60.8604393  18.6660576   0.7284406
  62.2455025  18.1696224   1.0836003  49.8855019  37.4724426  79.3674622
  49.2387085  37.2177887  78.7094040  50.7009659  37.5713615  78.8760681
  48.7077103  45.1540718  35.8922615  48.3482208  44.7800713  36.6967010
  49.2087898  44.4395790  35.4990082  10.6505814  62.5213165  67.4597015
   9.9409809  62.6576958  66.8319321  10.3962708  61.7341919  67.9413605
  49.5408516  47.6279068  67.8255005  49.4080658  48.5532761  68.0311508
  50.2507706  47.3530693  68.4057693  22.3523941  40.8556213  22.8233967
  22.9610004  40.1846390  23.1326084  21.9430790  40.4692535  22.0491791
  66.8849869  69.1613312   2.4390173  66.1877670  68.5269089   2.2727942
  66.4274979  69.9928513   2.5635529  54.0838470  42.1266403   7.1995349
  54.7174797  41.5553055   6.7655787  53.5235519  42.4443398   6.4914608
   0.6324298  53.8323936  34.0907402  -0.1610914  54.1504211  33.6601410
   1.2458011  53.6712189  33.3737831  80.6424103  38.3164062   0.4637383
  81.3180084  37.7224846   0.1365552  79.8298416  37.8149033   0.3969388
  39.1687088  43.6580849   7.3312969  38.7174759  43.2829208   8.0875216
  38.5463753  44.2892151   6.9698968   7.3791285  13.1673927   3.3824916
   8.1314030  12.8724709   2.8693285   7.6255403  14.0400972   3.6889238
  16.3769550   4.5060587  29.0395851  17.1956654   4.0110507  29.0698166
  15.6926708   3.8368187  29.0293617  20.2237225  32.7266197  78.1038589
  20.5549107  32.7538147  77.2061920  19.2780342  32.6147385  78.0069580
  75.8317184  42.8042183  35.7720146  76.0938034  43.5045624  36.3695641
  76.5581360  42.1814919  35.7995949   5.9345136  55.5337906  72.6803970
   5.0040498  55.3231659  72.7585373   5.9571185  56.3200493  72.1349411
  46.7324982  15.4635162  13.2761402  46.0169525  15.5354538  13.9078436
  47.1639061  16.3175106  13.3046303  38.4520607  60.5359077  36.3042908
  38.0858955  60.2910118  35.4544792  38.8476448  59.7298279  36.6359138
  86.5467148  55.2171021  84.0762711  85.6773758  55.3920975  83.7159195
  87.1204758  55.8407097  83.6311340  55.0132065  16.3782692  21.7658348
  54.3954086  16.8639183  22.3123741  54.6457863  15.4958487  21.7151470
  82.3541718  36.2522659  88.7139969  82.6753998  35.8781204  87.8936005
  83.1045227  36.2094765  89.3067703  83.6567993  39.5060463  61.9828529
  82.7571564  39.1830673  61.9322205  83.8077164  39.6490173  62.9172058
  36.1713562  51.8643494  77.9755020  36.4223671  51.5050163  78.8264465
  36.4914017  51.2231674  77.3409271  54.2145958  62.2784195  78.2827835
  53.9305954  61.8076630  77.4992294  53.8625832  61.7661591  79.0107269
   0.0067275  64.5632858  23.2799740  -0.6298810  65.1181564  23.7306194
   0.8178306  65.0714340  23.2913780   7.0743456  39.8082809  36.6718788
   7.2607517  39.5432014  35.7712059   6.1189408  39.8443336  36.7180824
  62.5354881  41.2402420  83.8580780  62.2068634  40.9194412  83.0182419
  62.4120789  40.5061035  84.4597778  33.6891441  48.5332680  77.2098999
  33.6559982  47.8575096  77.8870163  32.7761002  48.6578293  76.9509277
  45.5146103   8.4477825  29.9723949  46.3320465   8.1898003  29.5464020
  45.2656097   9.2638741  29.5385456  84.2553101  44.9652748  78.3475494
  83.3792343  44.8223190  78.7057114  84.3937302  44.2287560  77.7520523
  30.5997086  59.9601784  50.1649361  29.8833408  60.5084839  49.8449249
  31.0882473  59.7207031  49.3773994  17.0277672   3.0053632  26.1526318
  17.2100067   2.4377337  25.4037533  16.1873741   3.4137166  25.9447403
   5.8270040  51.3269196  36.1850281   5.3719320  50.7429237  36.7917366
   6.6939440  51.4467010  36.5727119  37.5397148   2.1675463  56.5460815
  37.2230110   2.7268057  57.2554169  37.3304443   2.6519921  55.7474899
  78.9578857  17.6833649  41.0004349  78.6656723  16.9168644  40.5071564
  78.2103500  17.9119263  41.5528717  24.5283318   1.3698053  59.3535042
  25.4060650   1.5355793  59.0095024  24.0023422   2.1013608  59.0304070
  40.2716713  58.6036301  34.1915779  40.1575775  58.3435478  35.1056747
  40.8595390  59.3581200  34.2288170  36.0013084  48.6707954  57.3258095
  36.0913467  47.7594604  57.6043663  36.1274109  48.6448975  56.3773041
  60.8007660  50.4356194  32.7656097  61.3886185  50.9380951  33.3296852
  61.3849220  49.9178696  32.2116013  74.1574631  26.5547009  19.7450619
  74.9559402  26.5708122  19.2174206  73.8947754  25.6342945  19.7539291
  74.0558014  50.6578598  16.0126038  73.8308182  50.5025024  15.0952835
  74.9963531  50.8352890  16.0017929  57.5901566  64.0194016  41.2413368
  57.3210602  63.4668617  40.5074997  57.0998917  63.6791344  41.9897308
  14.9450665  50.6198196   2.8747003  15.2674446  51.1307602   3.6171577
  15.7261896  50.1973763   2.5174606  42.7342148  53.6398697  70.4872055
  42.1371193  54.0515518  69.8625183  42.3951263  52.7509613  70.5925140
  66.5763168  26.2445869  72.4369507  67.2860260  25.7328815  72.8251648
  65.8563385  25.6211815  72.3409119  72.6142273  47.6196556   4.3375764
  73.1669693  46.8720589   4.5651908  72.3777695  47.4726639   3.4217622
  23.2912197  58.2317123  51.3155022  23.7262726  57.3795776  51.2867317
  23.5114746  58.6414490  50.4789429  54.1336250  59.0645332  68.5103836
  54.2301903  59.2549667  67.5773010  53.6255302  59.7996025  68.8535233
  54.3375778  11.9492426  71.9816437  53.3878975  11.8556852  71.9068832
  54.6904297  11.3234901  71.3490601  54.8187485  60.1813545   4.3303804
  53.8951416  60.0730667   4.5572147  54.9935799  61.1112061   4.4754462
  73.3250351  66.0993500  40.1518631  74.2089081  65.7594757  40.2914391
  72.8179321  65.3386536  39.8682747   6.2438841   4.9448338  51.0936928
   6.6160111   5.5381713  51.7461510   6.6325750   4.0935335  51.2947884
  25.7676506   5.9473500  25.3080959  26.6060047   5.7734451  25.7360573
  26.0030098   6.2115426  24.4186916  81.9123154  58.6443710  19.7559433
  82.7197952  58.6100349  19.2430763  81.2479401  58.2622299  19.1825256
  68.0130692  11.2270756  53.5767937  67.3918152  11.1298466  54.2984734
  67.5464554  10.8899775  52.8120232  36.7883301  62.2134132  15.7169256
  36.2761497  62.2422371  16.5250530  37.6940804  62.1158867  16.0107632
  35.6591530  37.3605652  87.7399826  35.4526138  37.5977821  88.6440353
  35.1785431  37.9962769  87.2097855  60.8951836  39.6798019  15.6643391
  60.7017403  40.0217819  14.7914925  61.2894630  38.8224945  15.5037241
  82.3640518  28.0499992   2.4702935  81.4960632  28.3066158   2.7816949
  82.1981659  27.3213501   1.8721415  22.6639881  66.3784485  27.1968899
  22.5193729  65.4532089  27.3950043  22.7713203  66.7927856  28.0530663
  83.6968918  46.4621277  47.3159065  83.2964935  45.6660042  46.9664726
  83.6004639  47.1064110  46.6146011  75.4760132  55.3985291  68.4014435
  74.6543655  55.8478966  68.2034683  76.1422653  56.0838699  68.3499756
  37.1152840  30.3308315  20.2892208  37.3877029  29.8384151  21.0635223
  37.9052010  30.7933769  20.0093727   3.6566515  59.1454735  70.4734344
   2.9326935  58.5661125  70.2358246   3.2628350  60.0170021  70.5131607
  40.4127731  61.1716270  41.7721786  40.5330887  61.9998512  41.3076363
  39.6385765  60.7803230  41.3675385  80.4310303  24.2456894  52.0954552
  80.8478851  23.9859371  52.9170341  79.8725815  24.9856892  52.3337135
  58.6595573  49.2805099  55.5659523  58.1524353  49.5660934  56.3258896
  58.1650734  49.6037674  54.8128090   5.2393456   0.7217663  30.6674194
   5.0755258   0.7808354  29.7261944   5.6704221  -0.1250435  30.7828236
  74.3931808  17.7756176  54.3006172  73.8619995  17.6813164  55.0913010
  73.8127594  17.5065079  53.5886383  54.7606964  70.0197678  23.2387352
  54.5209389  70.9131317  23.4850082  55.7049561  69.9751053  23.3891010
  60.0319328  17.8221855  84.3384705  59.9853554  18.7608452  84.1568680
  60.9456253  17.5909481  84.1713638   2.3760633   5.6697817   3.6518905
   1.8491039   6.0862274   4.3338866   3.2813644   5.8122811   3.9282162
  15.4471083  30.6868763  25.0025806  15.6527309  30.8630047  24.0844688
  14.5742359  31.0590916  25.1282043  12.6211853  49.2218285  24.7119617
  12.0384703  49.1680069  23.9544811  13.5015678  49.2344742  24.3364658
  46.1584854   0.9096004   2.6218152  45.9084625   0.0052125   2.4325995
  46.1354790   0.9696462   3.5768530  75.2414398  -0.0881475  37.6534538
  75.2556839   0.8472743  37.8559723  75.5139923  -0.1390352  36.7372894
   5.4677253  59.8391228  79.4494934   6.0698109  59.7814865  78.7076035
   4.7013407  59.3352165  79.1757050  57.7914009  70.9392014  71.6191940
  57.3331871  70.8350067  70.7852783  57.2079506  71.4848480  72.1465302
  14.1316681  62.3785095  26.5185299  14.7529860  62.2363548  27.2326641
  14.2213697  63.3071098  26.3043022  68.8654480  45.3899155  49.2128105
  67.9606018  45.6694908  49.3518257  68.9757538  45.3996620  48.2620392
   4.9327135  20.6618347  59.8952293   4.0843449  20.9103031  59.5281258
   4.7164330  20.1813488  60.6943474   0.8265430   4.6909108  78.3852539
   0.5360562   4.3723702  77.5306320   1.0758244   3.9001241  78.8635330
  30.0471325  50.4006653  23.3525391  30.0680828  51.2642403  22.9401913
  30.5048370  50.5213356  24.1845093  40.9791107  37.1091843   3.1930108
  40.1720886  37.6202393   3.1316471  41.6544914  37.6838150   2.8326080
  49.8279877  50.2713928   7.8617568  49.0256462  50.1527176   8.3700809
  49.5782700  50.0494080   6.9647636  24.9606152  30.1566124  78.1954422
  25.6261520  29.9598598  78.8546677  25.4004765  30.7410374  77.5780258
  36.6211319  26.3005638  85.6077957  36.0936203  27.0763683  85.7977753
  37.5258293  26.5933304  85.7175140  62.9278336   3.0496118  35.4972115
  63.1417847   3.9696019  35.3420525  63.2083397   2.8870733  36.3978386
   7.5180025   4.7320333   3.7028911   7.9431610   4.0689216   4.2467246
   8.0613918   5.5129123   3.8086641  82.8127594  24.3945389  37.0603142
  82.1401367  25.0516338  37.2393188  82.7990952  23.8225975  37.8277321
  59.2594261  30.2865963  76.0919724  58.4864807  30.3160133  76.6558151
  59.6143265  29.4065704  76.2177887  84.6321793   6.3242106  27.8171463
  84.0989151   6.5315218  27.0497608  85.4604721   6.7785506  27.6630535
  42.3832245  43.7402611  57.3762474  43.0484886  43.0677109  57.2302055
  42.8385201  44.4251671  57.8659782  41.8011093  35.6196365  23.5808678
  42.4250221  35.1737175  23.0080471  41.6340942  36.4566650  23.1475983
  35.2272110  48.6397552  61.5856514  34.5834923  47.9936638  61.2950935
  34.8178673  49.4852104  61.4015961  72.9577789   2.9252236  86.8876114
  73.2263336   2.0625629  87.2037201  73.7664566   3.3258307  86.5685730
  81.6936111  23.5143757  85.2024155  81.8481293  24.2586002  85.7842178
  82.3868332  22.8915443  85.4209671  74.1928101  20.9163933  43.7800903
  73.9520950  20.7725391  44.6952896  73.4410629  21.3741283  43.4038124
  15.1855946  24.8477554  86.5418320  15.9500532  25.1945648  86.0818787
  14.9717607  25.5183620  87.1905136  55.2268410  52.0347290  31.6608219
  55.7507935  52.8162766  31.8365612  55.0907211  52.0456772  30.7134132
  49.0125923  27.6784534  88.6972351  49.6519928  28.3013496  89.0427780
  48.5940857  27.3087273  89.4746628   9.8323727  69.4603882  87.8852310
   9.6184778  68.5456009  88.0686798  10.0306358  69.8366165  88.7427750
  53.4610825  67.4037018  55.6428413  54.3856316  67.5689926  55.4581337
  53.3414307  67.6957855  56.5465050  46.8172264  11.3608217  83.4571762
  46.1372261  10.7363873  83.2043686  47.4916801  11.2657795  82.7846375
   3.1162291  56.7421722  31.9501743   2.3403883  57.2325096  31.6783810
   3.1120722  55.9612389  31.3966789  14.8506680  11.4112425  19.6906338
  14.8673258  10.5500135  20.1080532  15.7071495  11.4904451  19.2706356
  33.9955902   9.2451372  73.5579758  34.5927277   9.0937099  74.2905960
  33.2862206   9.7682266  73.9313507  54.2367706  64.6232452  55.2248459
  53.9667130  64.8467560  56.1155434  53.4678917  64.2027206  54.8398552
  57.9437904   2.7231815  44.2992973  57.4198074   3.2665586  44.8878708
  58.2268829   1.9869219  44.8415260  76.1350708   2.8687320  47.1682205
  76.0878983   3.7261972  46.7454185  75.6556931   2.9798253  47.9892502
  75.6349792  31.9376221   7.4495506  74.7011871  31.7901249   7.5995731
  75.9265671  31.1606941   6.9724879  82.6387405  53.7241325  33.6224136
  82.2397232  54.5297279  33.2937279  82.8776016  53.9268875  34.5268860
  30.8080273  41.9193268  62.8653183  31.4915981  41.4765434  63.3682175
  30.8850689  41.5546684  61.9836578  38.4082756  70.7765961  73.9998398
  38.6923676  70.3228149  74.7933121  37.5698471  71.1725388  74.2375336
  64.0992584  37.2604942  13.6684113  64.4364700  37.6744041  14.4628906
  63.2501831  36.9020767  13.9269571  84.0529327  11.3310633  68.2769470
  84.6372299  10.6815128  68.6679916  83.1859818  11.1083279  68.6160889
   8.7492647  29.0958481  29.1860600   8.5944099  28.9424648  28.2540054
   8.4901123  30.0067348  29.3251896  64.8962631  44.7994347  32.1713486
  64.9920349  44.3772774  31.3176270  65.0852432  45.7228355  32.0044785
  61.3694687  44.8079529  39.3891106  60.9935722  44.7452698  40.2671776
  62.3031540  44.9569130  39.5383530  33.5953178  51.3778687  77.2136230
  34.4872932  51.6377144  77.4440460  33.5442543  50.4538803  77.4583206
  31.1051769  32.3651123  78.3900909  32.0461998  32.1932564  78.4243698
  30.7261353  31.5554104  78.0481186  68.7526779  29.6915321  44.0100136
  67.9425507  30.1285896  44.2725143  68.6032181  29.4367981  43.0995140
  56.9364700  54.1926765  28.7972393  56.5810356  55.0109444  28.4503441
  56.1875191  53.5970650  28.8205833  34.7431755  62.3515472  18.6728687
  33.8890762  62.3369598  18.2409782  35.1363907  61.5065727  18.4546280
  30.3536682   8.7291842  85.1583633  31.3092270   8.6925831  85.1159668
  30.0670757   8.5475731  84.2633133  44.3970528   5.7100024  55.5318108
  44.7536316   5.8020411  54.6482887  43.4855080   5.4511757  55.3964424
  40.4748650  29.5951996   5.1335726  40.8335876  28.7776928   5.4788733
  40.0891380  29.3510208   4.2922492  83.0116348  24.8494587   7.7654529
  83.3580627  25.6606293   8.1372347  83.4373398  24.7765369   6.9112344
  23.3988781  19.7665844  21.9776440  23.5510902  19.0848122  21.3232365
  23.9029274  19.4832077  22.7404442  25.0050182  32.5486031  17.8965187
  25.5878906  33.1316223  18.3829155  24.5733337  33.1181793  17.2597599
  55.6415977   6.4773645  21.3801537  56.0173836   6.3288302  20.5124245
  56.3401680   6.9075842  21.8732491  56.2223434  21.1420803  42.6657944
  55.3869934  21.0180359  43.1163864  56.8074608  20.4978848  43.0643921
   2.4998648  34.7011185  55.7152596   3.2810645  34.2592735  56.0480270
   1.9069051  33.9896164  55.4736061  86.0181427  53.1772537  19.0603809
  86.2114258  54.0457039  18.7072945  85.4143677  53.3420944  19.7846146
  35.9511719  24.0725098  79.5556030  36.6927032  24.6348000  79.7796478
  36.3516006  23.2695885  79.2221222  76.7864838  20.0783482  56.5988388
  75.9459305  20.2964783  56.1962051  77.4360352  20.5188160  56.0508347
  66.2680588  52.1387939  88.4853668  65.9420624  52.4537315  87.6422882
  66.6875000  51.3025856  88.2827377  64.3889084  34.1135101  10.5961819
  64.9662552  34.1719742   9.8349438  64.3186493  33.1752205  10.7719965
  49.2821541  58.8381195  76.3788300  49.7314568  59.4087944  75.7553787
  48.5454788  58.4773827  75.8854599  60.0003471  15.5053530   8.9708757
  59.5709190  14.7260332   9.3236990  60.4607506  15.1931705   8.1919003
  29.0014648  68.9446259  29.1202583  28.9304142  69.5303268  28.3665047
  28.2499180  69.1684494  29.6691780  65.7683334  10.4134083  48.2439384
  65.1178436  11.1013622  48.3846817  66.4003601  10.8015585  47.6388626
  83.8361893  12.6855536  65.4048309  84.1460724  11.7878599  65.2850266
  84.6005325  13.2299757  65.2160950   3.1891692  17.0991745  88.4092712
   3.2904756  16.1473846  88.4172134   2.2560432  17.2420502  88.5676880
  69.4712601  39.5123177  59.0475159  70.0823364  39.6195755  58.3186035
  69.7784042  40.1306419  59.7105179   9.7371149  31.9236774   7.9272127
   8.9757595  31.6944599   7.3942695   9.9062643  32.8428383   7.7204175
  15.3277445   8.0651417  73.0213165  15.3880844   9.0154867  73.1184540
  14.5039301   7.8324342  73.4495773  43.7491264  55.2122498  29.6682167
  42.8429184  55.5125542  29.7377777  44.0136185  55.0377426  30.5714455
  13.5339537  43.4363289  23.7224102  14.2510700  42.9027290  24.0648212
  13.8764877  44.3301239  23.7283421   2.7675915  32.0888405  10.4079580
   3.0376697  31.2864704  10.8546038   2.7295742  31.8467045   9.4826708
  77.0173798  63.1450348  38.3869324  76.1325836  63.2862206  38.0501328
  77.4048996  64.0197906  38.4163055  48.0505142  57.0088654  21.0917130
  48.6822205  57.4034348  21.6929550  48.5799255  56.7015533  20.3558369
  67.2717056  44.7727890  11.7185526  68.1845779  44.7546425  11.4311953
  67.1498108  43.9438934  12.1814842  11.3290129  48.5223083  28.5309277
  11.3675280  49.1680870  29.2364159  10.5590067  47.9912376  28.7341194
  31.1933365  65.4440765  58.2251205  31.4879494  65.0560455  57.4011841
  31.3752518  66.3788147  58.1282043  44.0469437  48.1186981   7.7883110
  43.7413330  47.8004074   6.9388843  44.8024826  48.6683922   7.5804038
  32.4051208  24.0313778  78.6177063  31.8737679  24.7832508  78.8795853
  31.8063030  23.4778633  78.1164398  78.0689850  63.0184135  75.2603989
  78.3572998  63.6069336  74.5627289  77.5705185  62.3374901  74.8086243
  85.3666992  70.4755554  68.8939896  85.8129196  69.8092651  68.3713303
  84.6091690  70.7268295  68.3655472  48.6000099  15.4600372  30.5193558
  47.6950417  15.3987303  30.2135754  48.5289421  15.8002453  31.4112301
  33.5968552  68.4674149  76.4414520  34.3406754  68.5113373  75.8405914
  32.8278275  68.5427170  75.8765182  57.0384254  62.1934891  39.3561249
  57.0692482  61.2717285  39.0999260  56.3126144  62.5586014  38.8500443
   1.6646667  58.5429993  89.4601593   2.2569153  58.5558357  88.7082901
   0.9797114  59.1730423  89.2362976  75.1949234  62.0859070  25.9599209
  75.7737732  61.8236084  25.2441254  74.4325638  61.5135803  25.8734226
  46.6531296  33.3306351  30.0728626  46.1621819  32.7307816  29.5112743
  46.4898834  34.1965179  29.6989269  64.3184357  28.0373039  50.2899094
  64.4015961  27.2859097  50.8770409  65.0716858  28.5895195  50.4994583
  56.7999382  43.5897026  35.5892792  56.0567055  43.9767914  35.1266708
  56.9350510  44.1606827  36.3455582   0.9275230   1.3736151   3.5093894
   0.4521333   1.7328891   4.2584949   1.1762985   2.1405017   2.9934170
  53.2103271  52.9538078   3.0352724  52.5160027  53.4968987   2.6621785
  53.6492577  52.5709801   2.2756565  59.8160400  64.3871765  42.7629471
  60.1078606  63.4985619  42.5593910  58.9180679  64.4256973  42.4337120
   0.5978602  63.0656166  76.0107346  -0.0718286  62.8010292  76.6414032
   1.3217920  62.4576607  76.1608810  33.9277267  50.5634956  51.9062538
  33.2050591  50.0790787  52.3054085  34.0063286  51.3564758  52.4365654
  61.3624458  33.8226929  56.8768196  61.5488319  34.7613564  56.8567886
  60.4685020  33.7631454  57.2137985  75.0470581  32.8405304  73.8466110
  75.2869110  33.5688667  74.4195251  74.1879272  33.0813255  73.5000000
  77.7922058  38.7964935   4.5605817  77.1995163  38.1206207   4.2317171
  77.5464401  38.9041367   5.4794087  14.8471270  29.2242336  81.8209915
  15.5473776  29.1383305  82.4679108  14.3583107  29.9989777  82.0985947
  58.4857826  63.6773567  36.5480576  58.8434868  63.7806282  35.6662331
  58.8820419  62.8693542  36.8741570   8.0789537  36.6026077  24.6546345
   8.1008396  36.5042191  25.6065140   7.2069769  36.2988243  24.4024353
  29.0772305  23.2964001  29.1018124  29.3442211  23.4218159  28.1911964
  28.5187778  22.5192242  29.0828018  57.2175713  53.3045654  41.6098900
  56.5724678  52.6591721  41.3208542  58.0429802  52.8208618  41.6408997
  86.7111359  11.6895237  53.4422302  86.2783127  10.9580679  53.8825340
  86.9839172  12.2694979  54.1531792   4.0094752  48.4578896  26.4415054
   4.9015384  48.8036537  26.4715385   4.0755401  47.5898247  26.8394184
  58.7921066  34.7410316  82.4293137  59.4352684  35.3683929  82.0991745
  58.7553825  34.0598755  81.7578201  72.0192566  35.2522850  20.0107632
  71.7656555  36.1714172  20.0951157  72.9577332  35.2445183  20.1989689
  27.9201374  59.4766998  17.3206806  28.1809826  59.5801353  18.2358265
  28.1298733  58.5660744  17.1133060  81.0557480   2.9285092  74.3130875
  80.2364197   3.4229236  74.3349380  81.6078339   3.3506255  74.9713058
  43.2927094  34.5481987  15.5408144  43.4860878  35.4268303  15.8676834
  42.3936310  34.3801575  15.8230400  40.5906830  68.5646515  87.2096786
  39.8184319  68.1973190  87.6397171  40.3254814  68.6777573  86.2969360
  54.8488922  14.9875307  81.5663071  55.3375130  14.9818430  80.7432327
  55.2247047  15.7144146  82.0629272  30.5236912  19.5781288   8.9366579
  30.5723572  20.2893124   9.5754719  31.4370193  19.3590660   8.7520714
  10.8806152   5.5461025  78.7395401  10.9142189   6.0363331  79.5609894
  11.4763927   4.8093987  78.8757324   1.0633506  52.6301270  40.7529297
   1.1154987  51.6853561  40.6082878   1.8752155  52.9745712  40.3808212
  83.0093765  13.4524078  12.7151899  82.9641266  14.1869774  12.1031504
  83.4845734  12.7720928  12.2381296  78.4969254   8.5888815  43.5767021
  77.7509842   8.8821487  44.0999603  79.1856995   9.2269850  43.7628212
  78.8749771  49.3697472  42.4828606  79.4404831  48.6281471  42.6984100
  79.3653488  49.8613129  41.8239708  35.2299957  27.9163074  30.9705257
  36.1088943  28.2373714  31.1722298  35.3239288  27.4756680  30.1259880
  46.9656715  44.1278839  17.1005936  46.1866798  44.3607712  17.6057339
  47.6990280  44.3684921  17.6667423  47.3956566  65.2344437  75.7298889
  46.8450470  65.0494385  76.4907074  48.2805519  65.0040665  76.0129395
  83.2053680  67.5020523  55.4036522  83.6398773  67.4390182  54.5530891
  83.6457214  66.8481979  55.9466057  72.8132553   4.2997327  89.1789474
  72.7648010   3.8095291  88.3582306  71.9006653   4.4124765  89.4448395
  63.6257591  38.2897148  75.8912964  63.4371796  37.3515091  75.8703842
  64.5815201  38.3420448  75.8879166  36.8103333  29.4704247   4.3852239
  35.9461403  29.8288536   4.1829176  37.0966339  29.9572792   5.1580343
  76.8290939  14.0840940  34.1281471  76.6638260  13.2992306  33.6057396
  77.4861298  14.5697603  33.6294861  58.4979134  43.4857445  39.9315224
  59.0895004  43.9052315  40.5562477  58.8956146  42.6318817  39.7612801
  80.0349960   7.2294555  84.8741074  80.6406250   7.7645802  84.3611908
  80.6010284   6.6826234  85.4189148  85.1319504   2.6563785  13.7029343
  85.9744034   3.1047611  13.7767868  84.8374252   2.5494699  14.6073999
  35.3523941   2.2147756  69.3882599  35.0224571   1.4560572  68.9068909
  34.5862617   2.5586617  69.8476257  76.1115341  71.2568970  48.2160225
  76.3825989  72.1671753  48.3349915  76.2378693  70.8550797  49.0755653
  18.5084858   6.8029089   1.1120688  18.4632015   7.7454085   1.2729287
  19.4103584   6.6512213   0.8294951  39.9100456  37.6310806  75.2599182
  40.7700462  37.4034042  75.6131821  39.4249344  36.8059120  75.2600937
  62.2691956   0.6066496  85.2121582  63.0239143   1.1279556  84.9385376
  61.6318703   0.7193919  84.5069427  62.3233986  42.5526962  16.5121117
  61.5915794  42.8398514  17.0582066  62.5781708  41.7060661  16.8789005
  40.5896797  70.7741928  11.8472500  40.7306366  69.8850708  11.5219440
  40.9933739  71.3375854  11.1870623  58.5219383  64.3691025   1.3196509
  58.6708717  64.5982666   0.4023002  59.3301849  63.9347725   1.5922818
  80.9248352  16.2310181  70.6749039  80.0343933  16.2835827  70.3276520
  80.9182281  15.4544611  71.2345047  15.1352777  45.5998001  22.1326466
  15.8155851  46.0333900  21.6174660  14.3252535  45.7713280  21.6523647
  24.6777630  41.4597282   4.1788025  24.7071609  40.5036697   4.2152205
  23.9787941  41.7011833   4.7865648   2.6769111  43.1403542  21.8989754
   2.7443871  43.8737488  21.2875710   2.2427273  43.5090256  22.6682587
  58.0836678  40.2706146  78.2858658  57.7144928  40.9280701  78.8755264
  57.5625534  40.3462029  77.4865189  37.2223587  59.9178047  61.6097107
  37.6412964  60.3741760  62.3394012  36.6523132  60.5755653  61.2114182
  70.8294601  15.7721920  30.0164642  70.0287857  16.2958717  30.0465889
  71.5343552  16.4039650  30.1586628  77.9592438  70.0768280  30.1371479
  77.1742935  69.7831421  30.5995750  77.6256332  70.5284576  29.3619232
  15.5832357  30.6002178  14.1767769  14.7597561  30.4624252  13.7086668
  16.1230564  31.1048527  13.5683603  38.6744461  49.7778778  52.4555931
  38.3113976  50.2298889  51.6939392  38.0217247  49.9061928  53.1438713
  23.5191517   4.8968425  -0.2552202  24.2578869   5.4021745   0.0841069
  23.5058060   4.1033239   0.2799268  47.9512787  69.9666061  15.2796354
  47.8301888  69.2595062  15.9133377  48.8528671  70.2580643  15.4153509
  52.8432083  40.6802063  51.8148727  51.8917809  40.7798309  51.8479462
  53.0609169  40.7662239  50.8867340  62.9907532  63.0158310  74.5223999
  62.9911423  63.8696785  74.9550400  63.5298386  62.4612999  75.0864182
  70.8788528  11.3306875  18.7321758  70.4847031  10.5511417  18.3407879
  71.7351685  11.4034452  18.3106651  32.8263855  16.3796673  82.3956528
  32.7920341  15.4244862  82.3438797  32.0352478  16.6220570  82.8768768
   3.2682827  21.8555222  76.5432510   2.7504721  21.4037991  77.2096176
   2.6352279  22.4022808  76.0779266  68.7480316  70.4951553  59.2664070
  67.8020782  70.4440765  59.4035187  68.8659134  70.3031387  58.3361015
   9.4398823   7.5101953   0.1711606   8.5503893   7.8508506   0.0763552
   9.3597383   6.8074069   0.8160614   0.7274222  66.3495789   8.6113892
  -0.1520247  66.7037888   8.4797249   1.2776858  67.1203156   8.7506914
  55.2953033  32.0540237  37.9635429  54.9145126  32.9231911  37.8379402
  54.5443039  31.4605522  37.9588394   0.4353553  58.0158997  65.7454376
   1.0212348  57.2618713  65.6789856  -0.4068676  57.6426353  66.0053711
   0.3254827   1.1741978  28.8779755   0.2818345   0.8781105  29.7871838
   0.6549615   0.4163913  28.3948555  14.6156149  37.4193115  81.6064224
  13.6910419  37.1734848  81.6375198  15.0744333  36.6018028  81.4130325
  11.3624554  68.7768784   5.9160371  10.6129608  69.3687820   5.8516488
  12.1094580  69.3530655   6.0779972  46.3351288  10.2730913  64.6562653
  46.1948586  10.6400099  65.5291519  46.3346481  11.0329342  64.0741425
  27.9566174  49.4956055  57.2694206  28.3160019  49.4030571  56.3870888
  27.3890896  50.2646561  57.2174301  12.9908485  24.4059544  83.7992477
  12.8129101  23.8119316  83.0700607  12.1780586  24.4148617  84.3047409
  35.8267632   7.4235573  82.4254456  35.9441414   6.7210164  83.0648956
  35.6477623   8.2011766  82.9541245  19.7435532  36.3818283  77.4127579
  18.9095020  36.3249931  77.8789749  20.3708191  36.6655998  78.0777664
  30.1737194  26.1989670  14.0984716  30.8485451  26.8751431  14.0382280
  29.5138607  26.5706100  14.6838779  74.2772903  46.9625854  68.6364212
  74.7307892  46.2498398  69.0864944  73.7437210  47.3740616  69.3162918
  53.3701324  48.1223183  64.1144257  52.5501747  47.7004089  63.8577271
  53.1228485  48.7138596  64.8251724  45.6403313   6.1815052  74.0505447
  45.8859596   5.4521041  74.6196442  45.1700592   6.7856860  74.6250381
  64.1368103  32.0087166  38.2667656  64.8663712  31.9853649  37.6475563
  63.5991440  32.7452354  37.9757538  86.9337769  31.8323059  27.0266418
  86.0998688  32.1028709  27.4108524  86.7476730  31.7379456  26.0924606
  71.2400284   0.5217488  29.1865864  71.8715439  -0.1331166  29.4841900
  70.7830124   0.1003384  28.4587250  72.6996231  20.0811901  25.2760296
  72.9834061  20.1066532  24.3622189  73.1530228  20.8165569  25.6882114
  37.6269760  52.7442131  22.4987717  37.8115578  53.0408173  23.3899422
  38.4880829  52.5544930  22.1263008  76.3148575  59.8748817  50.2451744
  77.1191406  59.3560600  50.2317696  76.3220749  60.3058662  51.0998306
  51.8783913  45.6207619  56.2251930  51.0128784  45.7719002  56.6050339
  52.2020836  46.4957466  56.0110474   5.8960595  34.2657127   3.0709498
   6.7901354  34.4845238   3.3335917   5.9348536  33.3378487   2.8390100
  23.6034908   5.3915844  17.4827862  23.2688007   5.7235742  18.3158512
  22.8410168   4.9988904  17.0577488  44.8515129  30.6115303   6.1674109
  45.7001076  31.0418663   6.0628443  44.5060730  30.5436840   5.2772999
   4.2869220  11.2444544  63.5625801   3.7184885  11.9658604  63.2929726
   3.7607105  10.7455454  64.1874161  31.9989624   9.5894308  80.3174286
  32.3138237  10.2320910  80.9531021  31.9844627  10.0626621  79.4855194
  29.6333485  45.7846909  16.0059223  29.5012093  44.9269371  15.6021547
  30.1232204  46.2840614  15.3525572  58.7617378  43.1069069  28.6977711
  57.8409500  43.2962837  28.8781052  59.1351852  42.8969650  29.5537472
  26.1723824  29.9806519  17.0411263  25.5891018  30.7282772  17.1717815
  25.6032410  29.2889290  16.7037430  78.9965134  23.7416515  84.5036316
  79.8614349  23.3442745  84.4024963  79.0134048  24.1330738  85.3769760
  68.6187210  18.7308540  68.6106339  68.9707642  19.5811272  68.8739395
  69.2710419  18.0980778  68.9111404  27.4686852  31.2234440  76.9487534
  28.2113400  30.6321011  77.0712662  27.6645927  31.6886864  76.1354904
  13.8363056  36.8068199   4.1921039  14.3120499  37.4902802   3.7201102
  13.0023909  37.2139244   4.4267969  11.2638979   8.6525974  64.2049637
  10.3917236   8.2961559  64.0361633  11.1362057   9.2652330  64.9292603
  59.8330879  47.1164970  62.6485710  60.6714325  46.7016487  62.8518181
  59.9722748  47.5339584  61.7985229  43.1019478  63.0963783  86.9354706
  43.4595718  63.7573891  86.3426819  43.4516106  63.3312073  87.7950211
  58.6981049  35.4095268  62.3650551  57.9627037  35.9737434  62.6039619
  59.1859665  35.2938194  63.1804314  47.3189049  58.8880310  34.0286179
  46.9304352  58.8949966  34.9034157  46.8303604  59.5536118  33.5443001
  46.2604065  17.6008835   4.0127072  46.4836121  17.3796864   4.9168544
  45.4658737  18.1298161   4.0846901   7.1035199  63.8707199  33.4435806
   8.0325623  63.8397179  33.6719475   6.9430041  63.0482216  32.9810143
  12.3359509  35.9221954  63.9649582  11.8959084  35.0722885  63.9491539
  12.9165754  35.8771973  64.7246170  18.6366978  70.1229095  65.0635910
  17.6966496  70.1462555  64.8847122  18.7150917  70.4158630  65.9714813
  64.6520538   4.6963854  82.8861542  64.9808655   3.9152153  83.3310013
  64.3036194   4.3706217  82.0562744  82.5323715  41.7208481  59.8017998
  83.0926437  41.5112762  59.0545311  82.0775299  40.9016304  59.9973183
  46.9885864  43.9924393  61.2870598  47.3087807  44.7690392  61.7459717
  47.6492500  43.3220062  61.4610710  29.9210739  43.1666336  15.2703667
  29.1122169  42.6550446  15.2864437  30.3197937  43.0112724  16.1265907
   6.4120941  23.2366352  57.9955711   7.0270672  22.5255280  58.1754723
   6.2387314  23.6259460  58.8526649   0.3713831   2.1047766  76.6939087
  -0.1163315   2.1606815  75.8721771   1.1195914   1.5434411  76.4906387
  40.4043121   5.4046268  63.0357246  41.2096062   4.8905897  63.0948753
  40.5937462   6.0714364  62.3756409  84.7677536  46.2976608  19.7051640
  85.1889420  47.0042915  19.2157726  85.4776688  45.8982201  20.2078552
  63.2858772  24.2245350  58.0756607  63.1413956  24.2252674  57.1294289
  63.2929420  25.1506310  58.3175850  57.3999367  17.4706535  40.3060760
  56.9383621  16.9092922  39.6831360  57.6649055  16.8793526  41.0106201
  23.1445274  29.5448189  14.0765457  22.5306301  30.2737942  14.1657505
  23.5584450  29.6831455  13.2246237  64.7640991  44.6597137  40.5476990
  65.1657639  44.2019615  41.2861824  64.9762115  44.1191139  39.7867851
  72.7264328   4.6012793  74.8873749  72.6215668   4.2888241  73.9887085
  73.0780792   3.8487697  75.3630905  80.1017761  19.7365379  81.5428696
  79.6388702  20.5611458  81.3946457  80.8656464  19.9812202  82.0652390
  27.4643574  61.2995148   9.1447134  26.7310772  61.3145332   8.5296450
  27.5343456  62.2019577   9.4560509   7.0451174  49.6991844   5.2424550
   6.3716755  49.8268242   4.5743117   6.9363623  48.7900505   5.5215225
  74.0446091  27.1916389  72.7003098  73.9977951  27.1751404  73.6562271
  73.5001831  26.4555111  72.4211121  70.4952087  12.1994753  80.2267838
  69.6865768  12.2603912  79.7182236  70.2078781  12.2377577  81.1390381
   8.6349564  12.6193266  42.3544846   8.7053661  11.8588839  41.7774200
   7.6981359  12.8140030  42.3809242  39.2073250  52.4332848  86.1203918
  38.3265991  52.3601379  85.7526855  39.6209908  51.5936470  85.9200897
   7.9273381  21.7256584   5.5455861   7.2202921  22.3424797   5.7349229
   8.0719547  21.2658939   6.3725901  23.2099457  60.4322357   5.1159844
  22.7076817  61.0747643   5.6171017  24.0839539  60.8156433   5.0428910
  36.6107140   6.6383228  21.3038979  35.9856148   6.1315846  20.7855396
  37.3616982   6.7588234  20.7227478  53.6579857  40.6482773  68.4068298
  53.9665375  41.0672188  67.6033859  53.0628700  39.9617271  68.1056366
  37.1135788   8.3993616  15.8471680  36.7963295   7.4965701  15.8236818
  36.5385361   8.8390932  16.4734192  15.4716883  15.2480259  82.2631149
  15.1683064  16.0683289  81.8741455  15.8133736  15.5014963  83.1205750
  58.0654945  17.7725258  36.0864792  57.6353455  18.0179768  35.2673569
  57.5194626  18.1615372  36.7696724  47.6215591  56.4172173  61.0792084
  47.5169106  55.6133347  61.5881805  47.2850113  57.1077766  61.6502571
   2.3145161  37.9052162  37.9447899   3.0270817  38.2827759  38.4604759
   2.5626941  38.0716515  37.0354309  31.0607910  60.6537094   4.4971581
  30.9646397  59.9800644   3.8239641  30.3311749  61.2534904   4.3417411
  81.0904388  33.9464073   1.5771823  80.8758240  34.7903328   1.1797396
  81.5724487  34.1720161   2.3727946  81.7017899  71.1959000   4.8560662
  82.3625183  71.8067093   5.1825442  80.8913116  71.7049713   4.8416591
  66.1180420  23.6847401  58.9115524  65.3367615  23.8857498  58.3963585
  65.8252106  23.7377834  59.8213158  74.0064087  14.6585045  57.2927818
  73.8034821  15.3669968  56.6819725  74.9325943  14.7802200  57.5015907
  40.4687843  16.9071522  73.6732635  40.1058922  17.0005703  72.7924576
  39.7130318  16.7000046  74.2229538  59.1045189  27.7331085  62.6422882
  58.8570518  28.6267376  62.8798103  59.0104904  27.7035866  61.6901741
  47.8007812  51.4419174  46.7167435  47.7384262  51.2738838  47.6570129
  48.7307663  51.6098938  46.5646095  46.7278862  35.9129944  18.1506443
  46.4659157  36.6262093  17.5684662  47.6784096  35.9996834  18.2229195
  37.4111366   8.5767565  85.5678406  37.4427071   8.2618141  86.4711914
  38.2937469   8.4245014  85.2301254  70.8968353  14.0404825  70.2148590
  70.4353256  14.1672029  69.3858948  70.2817764  13.5482635  70.7585983
   6.2229586  61.9007263  27.5114460   7.0864053  61.5924873  27.7865448
   6.1579375  61.6419411  26.5921898  70.5184402  32.3461494  16.7462368
  69.8428192  31.6780224  16.6305962  71.0836029  32.2504692  15.9796429
  10.3992434  44.7940445  75.4597778  10.2223310  45.5161438  74.8568573
  10.6138220  45.2214355  76.2889481  22.5519581   5.2920532  28.6737061
  23.0244923   5.9130869  28.1193962  22.9151649   5.4276748  29.5488739
  71.0933914  16.7222195  70.9574356  70.1421127  16.6806335  71.0552521
  71.3339767  15.8710661  70.5915222  72.3414383  10.0766125  38.9356499
  71.7778244   9.3046818  38.8837509  72.1273499  10.5826178  38.1518402
  50.9919739  54.6072807  40.1535301  51.2803955  53.9841156  39.4866638
  50.0382156  54.5264626  40.1603355  26.7502995  10.6497555  56.4638977
  25.9778595  10.6304331  57.0288696  27.4908218  10.6447706  57.0703888
  60.4537926  20.7568493  50.1943245  60.2420387  20.6326466  49.2691422
  61.4091225  20.7087803  50.2299271  45.3275185  66.7367554  51.8524323
  44.8170052  65.9280701  51.8929062  45.2360497  67.1216202  52.7240639
  56.0497169  67.6425705  55.4763756  56.5398102  67.1878662  54.7913322
  56.0229301  68.5544662  55.1865997  25.4649124  42.9279556  63.1862488
  26.1956768  43.0118637  63.7987671  24.6924114  43.1594925  63.7018738
  64.1024704  66.0711517  83.6781464  63.7973480  66.3574829  82.8172455
  63.6552925  65.2378006  83.8257599  63.1031265  19.7169075  26.2227421
  62.8624687  19.2983532  27.0492573  62.9485474  20.6495705  26.3726597
  67.6559753  15.3239202  29.3277111  67.7630234  14.3756933  29.4028053
  67.7705154  15.6493387  30.2205791  56.2993927  13.4527102   0.6575439
  55.5400810  13.3224049   0.0894804  56.8006821  12.6412373   0.5772114
   2.4424343  41.6442299  27.1275997   2.4023597  42.4233170  27.6822624
   1.5412300  41.3227692  27.1006832  20.7758961  55.0880394  32.6162796
  21.5505867  54.8427811  33.1221771  20.8928375  54.6515846  31.7724380
  59.8135910  51.1231041  84.8086548  59.9180260  50.3071709  84.3191910
  58.8816948  51.1550636  85.0249405  15.0041676   3.5243690  11.4572735
  15.5377932   3.2124779  10.7263832  15.1315947   4.4730473  11.4591541
  66.2667923  20.4496479   9.8701439  66.0940475  20.4616547  10.8115511
  66.6051865  21.3240814   9.6775551   6.9153023  62.6182365  41.2607307
   6.6004391  62.0691338  41.9787712   7.2284589  61.9967613  40.6035118
  26.5382881  15.4722462   8.4963045  27.0050125  15.2200460   7.6995645
  27.0991955  16.1322784   8.9037027  18.4281921  20.2564049   0.5689267
  17.8830109  21.0319633   0.7012919  18.0000610  19.5720520   1.0833151
  24.2827072  64.0451508  11.5241737  23.9725742  64.4937592  12.3108120
  23.8616505  63.1861420  11.5566082  77.1087112  31.7605209   3.9581637
  77.3703842  31.5114727   3.0717456  77.7379837  32.4352989   4.2129722
  16.9739075  49.9147873  27.3413410  16.2417030  49.6827049  27.9125214
  17.7435741  49.8707352  27.9087086  44.3083000   2.4230742  74.0011444
  44.4699783   3.3298988  74.2614594  45.0803032   2.1792057  73.4904861
  72.5046158  11.3426247  21.0540752  71.9828491  11.4716148  20.2620201
  73.2778168  11.8915958  20.9235821  57.2493324  12.9109125  28.7604504
  56.7789268  12.1097679  28.9909210  58.1662140  12.6421347  28.7028122
  70.5316620  31.0957718  41.2797203  70.9123306  30.7182236  42.0726738
  70.8635788  30.5463448  40.5696564  26.3302555   4.4578519  75.3683701
  25.8598156   4.3436604  74.5426102  25.6504288   4.4072313  76.0403061
  20.9172840  26.5158329   2.5245023  20.7912655  26.3204632   1.5959647
  20.2398663  26.0073338   2.9703352  68.9412384  70.3441772   5.4150558
  69.6767807  70.2627411   4.8079462  68.9881668  69.5554352   5.9553409
  72.0207367  40.4943352  79.3481064  71.3624191  40.8790016  79.9267960
  72.3101273  39.7050362  79.8058090   8.2098989  62.1552544  48.4436607
   9.0116158  62.3624649  47.9635086   7.6579466  61.7041397  47.8048553
  67.1692734  43.1013832  85.4674377  67.8415604  42.9548721  84.8020172
  66.5466385  42.3855247  85.3405304  36.6687965  10.0081348  47.7200165
  36.9150314   9.1587820  48.0863533  37.4543991  10.3087788  47.2632027
  41.3905334  55.2903481  68.9159470  42.1680679  55.7722092  68.6340179
  40.6844063  55.6336403  68.3684311  20.5541630   3.5305076  42.2662621
  19.6090698   3.5291736  42.1145020  20.6944733   2.8354511  42.9092560
  76.3535385  33.4890480  49.1696396  76.1465302  32.7817917  48.5587654
  75.6691132  33.4372749  49.8368111  67.7613449  36.2374153  58.3610268
  68.3202820  36.0531998  57.6061249  68.3730545  36.3710899  59.0850258
  32.5645676  59.2684212  53.8346405  31.7551594  58.7579536  53.8572235
  33.1541023  58.7581978  53.2793465   2.4562757  41.3387299  56.7039070
   1.6016849  40.9099007  56.6590233   2.3019314  42.1263428  57.2255096
  34.2317162  55.2188835  34.0501862  34.9773140  54.7683182  33.6535645
  34.3913460  56.1462440  33.8748131  78.0169983  24.3874645  46.5925217
  78.3498688  23.9267731  47.3627129  78.4986572  25.2145748  46.5814209
  77.6248779  61.7203369   2.8578153  76.8545151  61.3499222   2.4270391
  78.0967712  60.9607582   3.1992676  23.6110954  49.0252609  41.5432739
  23.2651253  49.4194908  42.3439751  24.4511681  48.6486626  41.8053551
  16.3153934  57.9510880  31.6780987  16.6380444  57.7478600  32.5560646
  16.4868298  57.1579552  31.1703777   8.3922606  64.4494934  83.6117554
   8.9080133  63.9861221  84.2716904   9.0438900  64.8451157  83.0328827
   4.6672025  42.8293343  55.4772873   3.9079115  42.2518120  55.5558739
   4.7545800  43.2291756  56.3425751  10.2692461  10.2142715  43.0300102
  10.8377657  10.7590199  43.5743141   9.4634066  10.1258745  43.5389709
  16.5787010  47.7327995  49.6159554  16.6498260  47.6516457  50.5670547
  15.7653074  48.2179260  49.4771271  12.2054348  68.2093887  68.0803757
  12.6371183  68.2229233  68.9346008  12.9117975  68.3617096  67.4526215
  48.3863258  57.7174797   9.7994614  48.9394302  58.3318100  10.2820654
  47.5231934  58.1311035   9.7871180  30.3212719  63.9786568  82.8499374
  29.8750095  63.3802757  82.2507477  29.6768684  64.1563187  83.5350723
  44.9194870  71.2379532  19.8871136  44.3160973  71.9675903  19.7464867
  45.2648430  71.3792267  20.7685909  42.7327652  44.4313965   1.2681124
  42.1642342  44.4839859   2.0363836  42.3010368  44.9793777   0.6127061
  11.2710371  68.3002548  17.9490814  11.0475426  69.1143875  17.4980087
  11.4216547  67.6697769  17.2447739  13.5534773   7.4906478  65.0578918
  13.8066835   8.3436022  65.4108582  12.6687336   7.6250772  64.7182007
  25.4924030  55.0599174  58.0720444  26.3055496  54.9021530  57.5923233
  25.0498581  55.7470665  57.5738411  39.9149742  62.8700638  48.9906158
  40.6220627  62.5990601  49.5761185  40.0470123  63.8110542  48.8751411
  47.2292747  26.1043530  79.8915634  47.7222939  26.1678181  80.7095642
  47.8666954  26.3189278  79.2104645   9.1184130   3.7344089  26.4598083
   8.6568880   3.7985499  25.6236782   9.4502792   2.8368535  26.4819641
  46.4200096  22.2870312  23.6744289  45.8844795  23.0629082  23.5087433
  47.1287117  22.3438492  23.0335350  55.3488884  36.9049072  49.5271072
  55.2324753  36.6450348  48.6132431  54.4651375  37.1102486  49.8321609
  66.7816925  19.4798946  43.3295975  66.8700409  18.9451294  44.1185532
  67.5895615  19.3215504  42.8412209  58.0225143  34.6904831  21.2880325
  57.9854164  33.7389069  21.3847694  58.2808723  35.0092545  22.1528263
   7.2863755  61.5140648  85.7112274   6.6995120  61.7484932  84.9922943
   8.0624542  61.1563644  85.2799683  55.0802078  54.9191246  76.2720032
  55.7160797  54.7496185  76.9671021  55.2926712  55.7996521  75.9625473
  79.7016907  57.3912048  80.0828018  78.9159622  57.0588570  79.6487350
  79.4700851  58.2810287  80.3488998   6.8621888  45.0615845  71.2256927
   7.0620604  44.3144836  70.6616592   6.0746441  45.4473801  70.8420639
  21.6441116  56.1485291  58.7163010  21.5945816  55.1933022  58.6798897
  21.3224983  56.4377594  57.8624039  37.7851448   3.5794241  70.1072693
  38.4764938   3.7999690  69.4830704  37.1704597   3.0446951  69.6048203
  52.0375557  69.0473785   8.3058691  51.3909492  69.7282867   8.1201506
  51.6565285  68.2490845   7.9401135  72.6754150  22.8806133   4.3145890
  72.1940079  22.0702820   4.4814482  72.7381516  23.3026962   5.1714096
  42.7222824   5.1892309  77.0627136  41.9478912   5.4963503  77.5341263
  43.1269646   5.9867792  76.7215729  85.1225128  10.0920668  77.1132965
  84.3335648   9.6120710  77.3650665  84.8203506  10.7243385  76.4612503
  49.0409660  48.3923378  20.5297489  49.5303688  48.9568291  19.9313641
  49.7120895  47.8698654  20.9688969  43.9088326  64.0354843  32.9437332
  43.0012054  64.0434036  32.6397896  44.3970451  63.6259499  32.2294807
  75.5990677   0.3965461  53.5227509  75.4277878   0.3091749  52.5850601
  76.4261551  -0.0655438  53.6592255  84.9923935  71.0088577  54.3966751
  85.0648117  71.9498978  54.2372169  85.1541824  70.9117966  55.3350945
  43.1670876   1.9421378  21.3076534  43.6625633   2.7601097  21.2669220
  43.6533165   1.3981881  21.9272766  28.5507641  40.7993126  15.3567505
  28.3554173  40.8292961  14.4201746  28.0814114  40.0280647  15.6747408
  38.0142555  24.6457100   5.5438256  38.4625359  25.4700603   5.3548226
  37.5363579  24.8136902   6.3560019  53.2647209  56.1778145  13.0165520
  53.3782005  56.0919113  12.0699930  53.1457748  57.1168098  13.1592808
  51.4214668  56.3602066  62.4592972  51.5369415  56.8494301  61.6447067
  52.2952003  56.3349113  62.8494072  43.7874870  62.9924469  28.5624619
  43.9377289  62.6903229  29.4582176  42.9156227  63.3868370  28.5857754
  83.4532700  19.2607479   6.5165181  84.2422104  18.9931126   6.0451636
  83.2226639  20.1081486   6.1357741  66.5403519  60.0635223  31.0415096
  67.2781677  60.0405693  31.6508808  65.7664566  59.9852867  31.5993595
  61.2283287  62.2802200  87.7922592  61.6259918  63.0911255  88.1093216
  61.0510826  61.7743454  88.5852966  15.0403976  49.8769035  29.2666950
  15.0742731  50.2256775  30.1574497  14.2789240  50.3017998  28.8719101
  80.7224808  21.4365292  68.3992615  80.3446808  20.8062401  69.0126343
  79.9891434  21.6978741  67.8423538   1.9571297  35.5186081   4.9893398
   2.3508062  34.6461525   4.9978418   1.1948583  35.4318504   4.4169354
  21.3804760  63.0528908   3.1948948  21.4110794  64.0080338   3.1401708
  21.3236618  62.8684006   4.1324267  10.7829599  50.3591957  37.7149925
  11.6625824  50.5868759  37.4138985  10.8673840  49.4654922  38.0472565
  50.8762856  54.7275810  22.1679306  50.0104294  54.3212280  22.1304989
  50.9480019  55.0564194  23.0640068   8.4165697  28.0357723  26.6400204
   8.0855894  27.1837025  26.9240284   7.9380975  28.2213783  25.8320312
  63.3697433  54.0005569  69.7467346  63.2680817  54.6577263  70.4352341
  63.5082130  54.5097809  68.9481430  80.1378555  42.2197876  46.6824837
  79.5325623  42.8720169  46.3297119  80.2288437  41.5738411  45.9819832
  82.3268509  71.8500519   1.5199188  82.4242401  71.1515579   2.1671128
  83.1239777  71.8005524   0.9923105  33.5008125  21.5806389   5.3383965
  32.6187439  21.8798161   5.1177678  34.0632858  22.3309021   5.1461406
  60.8683395  55.0488815  72.5103149  60.5102272  55.5183067  71.7569046
  60.0989189  54.7235985  72.9776611  59.7439537  20.4853649  83.5442657
  59.1047974  21.1853924  83.4113235  60.4731102  20.7141571  82.9678802
  47.6946373  41.9340820  32.9718857  47.5844803  41.9746017  33.9218636
  47.9176521  42.8297081  32.7182121  75.9329834  28.4594879  26.7098808
  75.8409653  28.5523834  27.6581078  76.6706161  27.8597260  26.5984402
  17.7372837  47.2121162   9.8161306  17.3533764  46.9277077   8.9866982
  18.6271381  46.8597260   9.8014936  63.3289185  33.0326347  13.9471579
  63.5953712  32.1406174  14.1697359  63.1130371  33.4350700  14.7883911
  20.4856300   4.0335908  51.5278549  20.3854694   4.4662547  52.3757973
  20.6842861   3.1229081  51.7456284  41.1084404  24.1705513  77.0344009
  40.6788483  24.0145111  76.1933746  40.7981834  25.0346489  77.3051529
  23.7265854  36.0025826   4.6206536  24.6331196  35.9045906   4.3294048
  23.2056313  35.6180878   3.9156699  32.4785995  25.8056965  76.0674286
  31.8882351  25.4314117  75.4135056  31.9001904  26.2591248  76.6806793
  25.8561115  67.5379181  29.6532040  25.9070301  67.5192642  28.6975403
  25.7632484  66.6194077  29.9060841  32.5562134  20.5165558  79.3016663
  32.1503983  21.0531483  79.9825592  32.6072121  19.6410789  79.6852951
  76.7788849   2.1407633  74.5707397  76.2172241   2.9103608  74.6629028
  77.6130371   2.4051731  74.9586868  13.3490887  59.1711922   5.2975278
  13.1444960  58.2441635   5.4199586  14.1384468  59.1727829   4.7561011
  31.0015888  29.8263016  21.9117298  31.3063984  28.9708004  21.6093407
  30.3946514  30.1184254  21.2316380  28.5709114  52.8687935  61.5648155
  28.6935329  52.7219887  62.5027084  27.6220512  52.8458710  61.4408379
   1.8772148  34.1188354   0.1423350   1.2052827  33.9869652   0.8111767
   2.5040765  34.7181168   0.5474764  67.5965118   2.1741633   7.2758141
  67.1560745   1.6914848   7.9752932  68.4557724   2.3901169   7.6381187
  71.5965881  64.1481247  58.3307877  72.5479507  64.0776291  58.2522354
  71.3813095  64.9752121  57.8997383  25.3286743  50.6705093  45.1910248
  25.1091995  50.6569443  44.2594261  24.9764633  49.8483963  45.5320663
  66.8822632  28.3939476  41.9978218  66.2611542  28.9091282  41.4829979
  67.5658951  28.1496887  41.3739471   1.9112670  48.9801025  73.3563843
   2.7127173  48.5842323  73.0140457   1.6562210  48.4133415  74.0843735
  66.6020584  68.5788269  43.1889191  66.8833313  68.8279419  44.0692940
  66.3823547  69.4079666  42.7640839  47.1063499  48.2463036  70.8316803
  46.8528252  48.3867645  71.7439423  46.4803238  48.7650871  70.3265152
  68.2011795  12.3385468  24.2241497  68.7936096  13.0324526  23.9347553
  67.3281479  12.7250452  24.1558704   4.2206230  41.0014725  88.5875397
   3.9004724  41.0080986  89.4895859   4.3187313  41.9263878  88.3614044
  71.1724167  67.8882141   4.9205718  70.5601273  67.4961853   4.2979579
  71.9502258  68.0864334   4.3990765  63.4382896  36.0138206  81.0171127
  63.6810532  35.0918541  81.1023941  64.1578293  36.4062042  80.5226135
  67.2718658   3.1820476  28.3395710  67.6763763   3.2684410  27.4763565
  67.9964676   2.9537466  28.9218655  29.4709492  56.3768654  17.7013149
  29.9489689  56.4894409  18.5229340  30.0815239  55.9097099  17.1310558
  52.5116577  36.2939720  61.6265335  52.0961761  35.4765892  61.9012985
  52.7882652  36.7085571  62.4437485   1.6557680  12.9132853  11.5681276
   1.6266978  13.8432264  11.7930622   2.1335404  12.5068064  12.2911348
  76.4339676  33.3162003  33.0334244  77.3524094  33.3609543  33.2993088
  76.4372787  33.5844040  32.1145706  62.6507530   0.5354610  18.7051697
  63.1030273  -0.1120958  18.1644783  63.1387177   0.5427583  19.5286179
   7.6305199  63.9968719  63.7051125   8.3679724  63.4375458  63.9491425
   7.9524560  64.5069504  62.9618721   2.9101748  43.7509537  51.0533104
   3.2590394  43.6163139  50.1721764   2.9554160  44.6977272  51.1867409
   7.1443682  39.7519646  25.9460831   7.8312163  40.4097557  25.8375359
   7.5283756  38.9456329  25.6016979  61.5388374  52.3006935  55.6994400
  62.4482765  52.2443352  55.9926605  61.1911240  51.4179573  55.8263550
  44.4432106   4.1956983  17.6405277  44.0055313   5.0198975  17.4275322
  44.9804306   4.0041595  16.8718014  61.6109505  32.1813545  82.2309570
  60.9698601  31.6499500  82.7030258  61.1046524  32.6113243  81.5417404
  10.8304243  33.7321358  17.9088058  11.1939278  33.1205788  17.2684174
  11.2390642  34.5714645  17.6972198  73.3028107  11.4717655  17.6972618
  74.2280350  11.3851614  17.9268341  73.2899017  11.4449139  16.7405262
  29.4274921  71.2300339  48.0510712  28.4747448  71.2942657  47.9849052
  29.6108131  71.3409729  48.9839821  32.7011108  54.4815521  57.5868340
  32.8793716  55.3261642  58.0004501  32.7150002  54.6669998  56.6478729
  23.8568478  53.5846786  21.0203495  22.9882050  53.6847382  20.6308880
  23.7617931  53.9273262  21.9090500  48.9931755  38.2463036   1.9826384
  49.0281906  37.6727409   2.7481649  48.5283318  39.0253143   2.2880850
  78.1122055  55.9168243  25.3905659  78.8150558  56.0125694  24.7478580
  77.3250580  55.7735367  24.8651257  82.7608795  46.4160042  50.4235649
  83.2361832  45.6099968  50.6252441  82.7860947  46.4763565  49.4686012
  40.8744240  21.5936527  16.7309933  41.0840149  22.3447857  17.2860661
  41.6721191  21.0645866  16.7327003  45.4655228  29.4112930  32.5511093
  45.6599503  30.1033459  33.1831627  44.9211769  29.8375473  31.8891220
  82.8944702  56.0219116  75.2152023  82.2118988  56.3701210  75.7888565
  82.6820450  55.0927773  75.1267776  75.0226517  26.4572678  12.3935146
  74.5689926  25.8773136  11.7818966  75.8380432  25.9993782  12.5977383
  35.3000183  15.7514153  11.8380070  34.4489479  16.1694107  11.7068930
  35.3482819  15.0859299  11.1516895  76.0897827   0.4979372  81.8853836
  76.2789688   0.2001875  82.7752075  75.3107910   1.0465951  81.9769516
  50.2030067  21.3775997  85.3600769  49.3172417  21.2748203  85.7080536
  50.2928619  22.3183327  85.2078171  67.8334198  40.9709740   6.7930932
  66.8907089  40.8629951   6.9190717  68.0733414  41.6865044   7.3818936
  48.0423584  27.7067471  24.5843697  47.3496742  27.0647202  24.7400036
  48.5442924  27.7198448  25.3993073  39.0873489  48.8067131  22.1848145
  38.3520126  48.2697563  22.4800930  39.8134193  48.1895752  22.0942841
  26.6559772  54.3365250  10.0135593  26.7614384  55.1717110   9.5579576
  26.7961082  53.6748428   9.3362331  67.0402527  39.1985245  34.3022461
  67.1388168  39.8528061  33.6105576  66.3074036  38.6541977  34.0143776
   9.4927979  29.5455399  85.0079269   9.3498669  28.6016388  84.9382706
   9.1257200  29.7811337  85.8599701  58.3416405  26.5620766  28.7203808
  58.2191658  26.0385036  27.9284801  57.5862579  27.1497040  28.7381992
  21.4049358  48.3212967   0.7547524  20.9158287  47.5175438   0.5787308
  21.2770939  48.8559418  -0.0288575  14.8127480  10.8598814  76.0644379
  14.3878593  10.9478903  75.2112350  14.1115246  10.5817938  76.6536636
  72.5220642  56.8519173  55.4636421  73.3884354  56.4595757  55.3554344
  72.6679916  57.5981293  56.0451126  84.3125381  13.5540047  50.0495529
  84.5866928  12.6505651  49.8918610  84.7782211  13.8101301  50.8456497
   7.8619456  42.1070709  84.4274826   7.0595274  41.7850189  84.0168228
   8.4346991  42.3282661  83.6931381  34.1444092  42.8712196  79.4769440
  34.2380371  41.9593315  79.2014008  34.5218239  42.8956833  80.3562546
  32.9995079  58.8372765   9.5954351  33.7781944  58.3311386   9.8271646
  32.5929909  59.0494919  10.4356384  57.9619789  24.4188919  60.1410980
  57.5818329  25.1806145  60.5787048  58.9032059  24.4987354  60.2958641
  82.5511703  61.5933990  10.3612108  81.9858322  62.1209984  10.9253550
  83.2288589  61.2576561  10.9479408  42.0223236  71.1151733  23.1950378
  42.2693901  70.6807785  24.0114269  42.6577911  70.7981720  22.5532265
  67.0798416  58.2423477  28.6870079  66.8573303  58.7373657  29.4754753
  67.9718094  57.9319496  28.8428326  86.2359695   7.8195748  22.8919277
  86.1981125   8.1900997  23.7736931  86.4783478   6.9035130  23.0272675
  67.6547470  40.7696190  36.6464958  68.4609604  41.1529083  36.3010292
  67.2392654  40.3609848  35.8871384  46.2088699  42.6691895   6.6870856
  46.9871826  42.6119728   6.1328402  46.3113976  41.9568939   7.3182387
  40.1592369  61.0592346  19.3366222  40.7086716  60.9440079  20.1119137
  39.8670349  61.9695473  19.3832836  26.0290794  69.9168472  66.5397339
  26.4082069  69.0381622  66.5196991  25.2376671  69.8484726  66.0056763
  76.8136215   9.8688135  63.2577438  77.3046875  10.6367960  62.9657021
  76.2160721   9.6774855  62.5348625  26.8502083  71.6302109  76.1116028
  27.5522366  72.0938797  75.6550903  26.5989189  70.9268417  75.5129700
  49.5604477  35.5133667  15.7933989  49.0830498  36.3064041  15.5496550
  50.4690247  35.7998238  15.8864527  24.9898701  43.9366760  11.9199543
  25.5247726  44.2994270  12.6260147  25.3676815  44.3034363  11.1205940
  46.1546974  36.8400612  81.1316681  46.2404213  37.0899048  80.2116394
  46.5637856  35.9762955  81.1844101  73.8874207   1.2395809  83.8790283
  74.3239059   1.5327667  84.6788712  73.7759323   2.0367517  83.3610306
  43.1596985  22.1950054  60.3680191  42.9944992  21.2783356  60.5886002
  44.0283852  22.3750515  60.7274666  14.9576826   7.0713511   0.6219314
  14.7738962   6.6330299  -0.2089291  14.8973894   8.0047951   0.4187606
  76.4673233  25.9735832   5.1705236  76.2039108  25.2366276   4.6193962
  76.1396790  25.7502575   6.0417333  75.2749710  24.2140350  32.8166580
  75.1013336  25.1543465  32.8601990  74.5938721  23.8712482  32.2380066
  53.4471054  65.0306473  86.8453293  54.2784081  64.6578979  86.5516815
  52.9311447  65.1257172  86.0447159  31.7676907  20.2796326  24.9481678
  31.8564701  20.6685791  24.0780697  32.3535156  20.7956047  25.5020771
  67.3747482  38.6219521  61.9575081  66.6661987  38.5366135  62.5954018
  67.7494965  37.7432556  61.8968048  63.4029503   7.3031859  61.3362503
  63.6697807   7.2468476  60.4187202  63.4774857   8.2330723  61.5506973
  15.4299297  42.6238747  12.3772383  14.4745159  42.6800423  12.3933620
  15.6266479  42.1139183  11.5914392  69.0583572  52.6873131  46.7447395
  69.9601822  52.9441757  46.5524635  68.8237839  52.0879745  46.0362206
   3.6121593  18.1327915  85.4756241   2.9905405  17.8343563  86.1395187
   4.4559398  17.7846737  85.7638550  38.8579979  67.0074463  30.5488930
  39.1935272  67.4761047  29.7846870  39.2418442  67.4640961  31.2974682
  31.4561424  51.9953690  75.6122742  31.3698578  51.3791008  74.8849487
  32.1766281  51.6468468  76.1373138  12.3786163  59.5832214  20.1807175
  12.4248257  60.3922768  20.6901569  11.4801455  59.2756538  20.3006458
  50.7267799  15.1981268  87.2472916  50.9487190  14.2737064  87.1358414
  51.5714455  15.6365318  87.3500977  43.8458061  47.0902824  31.5408554
  42.9686394  47.4730835  31.5243149  44.2636490  47.4819832  32.3078041
  45.4753647  17.8186016   0.2910894  46.3240242  18.1696663   0.5608387
  45.5482826  17.7185993  -0.6580756  39.3639183   3.5722282  72.4322510
  38.6775856   3.6608057  71.7709351  40.1459503   3.9345195  72.0158310
   5.7404385  63.2216682  79.4371872   6.3583913  63.9136124  79.2014313
   6.2890382  62.4520798  79.5888596   6.3231158  33.4836960  36.6199608
   6.1724339  32.9766502  37.4177322   6.8061347  34.2557983  36.9145470
  25.8525677  15.2534924  20.1521435  26.7382374  15.1866179  19.7952881
  25.3432064  14.6177254  19.6495667  75.3599625  21.4459610  68.0717773
  76.1440659  21.0251274  68.4243546  75.6686096  21.9176826  67.2981796
  52.0557327  55.1666908  16.0937958  52.4109764  54.3681984  15.7033567
  51.1067352  55.0444183  16.0675983  -0.0766398   4.2188311  31.8759251
   0.4279717   3.9806745  32.6536674  -0.1434105   5.1728330  31.9166012
  17.0088291  69.7480927  80.1470566  17.1858654  70.0658264  81.0324554
  16.3254662  69.0877151  80.2617416  23.3315678  49.4206696  30.6803989
  23.7796612  50.2535553  30.5329380  23.4375896  48.9427376  29.8578587
  67.9368820  22.3800259  61.4355736  68.1939926  21.5468998  61.8305740
  66.9831543  22.3302784  61.3710403  46.7596054  -0.2447698  73.4660797
  47.4034843   0.2662690  72.9756851  46.8502884   0.0590377  74.3692474
   4.9184995   4.8212547  60.9167557   5.2241120   4.2230172  61.5986252
   3.9643905   4.7500424  60.9456863   1.5211974   9.9426098  12.5137882
   1.0467597   9.8977528  11.6836500   0.8711447   9.7033434  13.1744051
  37.1614723  45.5415344  20.0156975  36.9635963  45.5206490  19.0794067
  37.0276718  46.4550133  20.2684593  54.7432060  61.2097588  24.0837708
  53.8762283  61.4012794  23.7261353  54.5676613  60.7978897  24.9298077
   5.7086711  28.9064884  46.0520439   5.9363027  29.4912052  45.3291893
   5.8752556  28.0277977  45.7108917  77.1808472  15.2692556   5.6003056
  76.3574371  15.2554102   5.1124134  77.8586273  15.3045626   4.9253244
  76.2913208  14.6048975  72.7797852  76.3754654  15.3642921  72.2031784
  76.3817139  13.8507166  72.1973114  84.5938721  56.1913643  52.2488670
  84.5867462  56.5533257  51.3627739  83.8707809  56.6332855  52.6939316
  85.8643494  12.6482077  71.5066452  85.4263840  13.1080818  70.7904587
  86.3406372  13.3334522  71.9754944  34.3487587  65.5047913  24.3024521
  34.5418587  64.6775742  23.8612614  33.3950958  65.5786209  24.2662716
   6.8922105  54.8688049  84.5448074   7.5310287  54.5576248  85.1861420
   7.0123286  55.8182983  84.5283966  46.1935654  58.1892624  52.2369041
  46.5708351  58.0072823  51.3762169  46.2670135  59.1386108  52.3347435
  15.1706858  43.6629677  57.8527794  15.1611319  43.8910599  56.9231987
  15.3958597  42.7327690  57.8688469   9.5174036  15.8375463  25.1965675
   9.6658678  16.1219158  26.0984135   9.2102776  14.9345884  25.2776356
  46.6207962  37.0619774   0.9168637  46.2320442  37.9124298   1.1214173
  47.5058746  37.2691193   0.6169406  27.6920567  51.0040169  74.4214020
  28.2471905  50.4024620  74.9175797  26.8307915  50.5863686  74.4166031
  46.3833084  25.7646427  15.0261803  46.7186852  25.0018425  15.4972334
  45.4387245  25.6183929  14.9751682  78.5167618  61.9725266  45.4043961
  78.3457870  62.7965851  45.8603859  79.0551605  61.4684181  46.0145035
  67.6098099  28.9285221   0.0490365  67.6128616  29.5301418  -0.6954597
  67.3248062  29.4646301   0.7890315  51.1700020  44.7309418  73.9003983
  50.9102554  43.8256340  74.0712051  51.9728432  44.8495979  74.4079361
  53.7699356  61.2131042  16.9102840  54.3443947  61.1559448  17.6738014
  54.0209961  60.4673271  16.3652916   5.6935558  45.9969063  31.9244671
   5.9705706  46.8662720  32.2137680   6.5001178  45.4817238  31.9078560
   5.2410121  14.8489075  88.8366165   5.0324168  14.3238029  89.6092606
   5.1989489  14.2298126  88.1077881  67.7403717  61.1129799  76.5619354
  67.9875793  60.2146225  76.7812042  68.5340500  61.4951820  76.1874695
  19.2774086  12.7542105  28.7347488  19.1502686  11.9024963  28.3168392
  18.8943043  13.3814573  28.1215401  40.3322983  53.2676620  58.6415215
  40.5404587  52.6093559  59.3044930  40.4015579  54.1031113  59.1035385
  11.2843990   2.3552210  69.4961853  11.7434988   2.1545537  70.3117828
  11.9749765   2.3867271  68.8341141  67.0770035  51.9405556  75.7757492
  67.7852631  51.8775673  76.4165497  66.3671875  51.4196396  76.1513062
  40.4514847   1.1777711  81.0499191  39.5099564   1.2745054  81.1927261
  40.6969109   0.4177149  81.5774689  81.5344696  34.6810989  18.8624306
  81.0091858  35.3008156  19.3686581  82.3458176  34.5906258  19.3621922
  22.3300686  61.7971840  11.3164444  22.5965652  60.9464226  11.6648922
  21.8147602  62.1930962  12.0192556  18.0375996   1.6628441  72.9377365
  18.1505394   0.8690708  72.4148636  17.9554253   1.3471843  73.8376465
  75.3150177  35.1299820   9.3538094  74.6027451  34.5768623   9.6746836
  75.4420242  34.8542900   8.4460135  69.9595261  13.6585655  88.0239944
  69.2337494  13.0502081  87.8847656  70.6364441  13.3676987  87.4129257
  62.5047569  51.3200951  21.7725449  62.8574638  51.1555862  22.6470528
  61.5998497  51.5915718  21.9264240  67.5594177  31.1748829  58.8467407
  66.8939514  31.1517277  58.1590996  67.9919128  32.0212059  58.7330894
  43.1473618  41.2907219  10.5224199  42.5950813  41.3232002  11.3035498
  43.5546532  42.1559525  10.4809132  77.6655655  53.3734970  13.8128586
  77.2124405  52.5622864  14.0427427  78.2630768  53.5296021  14.5441914
  67.0680542  55.0654449  85.4608612  66.2598724  54.5893707  85.2699966
  67.2460709  54.8755112  86.3819809   0.8337819  46.5464821  49.1809235
   0.6195408  46.0063477  48.4202728   0.4984151  47.4153175  48.9598236
  56.5886040  27.4314671  83.3287582  56.0892143  26.9919147  84.0169754
  57.3365364  27.8173008  83.7847900  44.6863098  54.2407722   9.3860073
  45.5782051  54.4741859   9.1285686  44.4059830  54.9574852   9.9551897
  84.7643127  71.7254410  75.2231140  85.0676346  71.5918121  74.3251266
  85.5120163  71.4791107  75.7676239  51.0104637  40.5393028  44.1490173
  51.3719711  39.9214973  44.7845192  50.4312401  41.1011009  44.6639099
  59.9518700  35.2349434  35.6848793  59.9980965  35.4138985  36.6240654
  59.7189865  34.3081970  35.6288223  80.4341965  10.0119944   6.3238688
  79.8644714  10.3882513   5.6529951  80.7122345   9.1721163   5.9584460
  36.6752777  16.3918552  27.8569298  36.6236420  17.3189278  27.6243343
  37.4060059  16.0551567  27.3383713  79.5431519   6.8169470  88.9311066
  78.7524033   7.1282086  88.4905853  80.2614822   7.2415671  88.4621353
  61.7939377  44.5877838  11.8080502  61.3805237  45.4199257  11.5781422
  61.1467781  44.1416893  12.3543215  47.0225792  48.8955269  57.1188011
  46.1736794  48.8273430  57.5557823  47.1853447  49.8367767  57.0572243
  48.9538345   1.1739510  53.1283073  48.5120735   0.3320012  53.2387657
  49.7141228   1.1233412  53.7076416  59.7436905  30.6084175  55.7935333
  59.6152458  30.3703041  54.8753624  60.0552635  29.8039589  56.2082634
  66.8631210  19.5830345  77.8896179  66.1427994  19.9498940  78.4022369
  67.6219177  20.1159534  78.1272278  11.0730953   0.2553197  71.8203812
  11.4134951  -0.6377305  71.8734970  11.8444309   0.8122948  71.9255219
  37.3155556  38.5045700  17.4635963  37.3584328  38.0461922  16.6243801
  37.1726913  39.4214325  17.2286949  17.9408207  63.7816811  53.6515121
  18.1798344  63.9819374  54.5564995  17.2379684  64.3985519  53.4473076
  84.3815155  56.9678802  35.8352814  83.9319153  56.9249649  36.6792297
  85.2261200  56.5456543  35.9921036  57.2432976  33.2545624  78.1546860
  56.2945213  33.1283569  78.1661377  57.4484634  33.4456863  77.2394714
  46.3269463  50.0091438  80.6518021  45.9492531  50.5614853  79.9673309
  46.6327629  50.6265793  81.3162460  42.3078003   7.2285280   3.4815016
  43.2626762   7.2714944   3.4305744  42.0079079   8.0128841   3.0220649
  18.1820431  59.4645004  29.7345695  17.5445652  58.8289604  29.4090824
  18.1737251  59.3470764  30.6845016  48.6389580  59.5607071  45.4615974
  48.1761093  60.0831337  44.8065643  49.0108147  60.2056732  46.0632401
  12.5952549  64.8246078  31.8030434  12.2898216  64.0083084  31.4073238
  12.7766905  65.3984146  31.0586910   4.7080135  24.9903946  19.1900501
   5.5256052  24.4929829  19.1711483   4.8311219  25.6785030  18.5361500
  76.9681473  42.6921654  84.3676147  76.5015335  43.4865532  84.1079025
  77.4605789  42.4376793  83.5872421  67.7782669  42.9540291  30.6158314
  67.1354446  43.2755203  29.9836502  68.5997391  43.3703499  30.3548927
   8.1906433  13.6285620  14.5125923   8.4021921  14.3594866  13.9318781
   7.4644952  13.9497795  15.0471582  60.9997826  68.9305191  77.9070435
  60.3393593  68.9144211  77.2143631  60.9698372  69.8252792  78.2457733
  67.6953049  12.5557556  29.1174278  66.9332428  11.9943647  29.2600536
  68.2251587  12.0820036  28.4763012  -0.2036392  23.5840950   8.2979136
   0.5327239  23.3186607   8.8488636   0.1636557  23.6350861   7.4154592
  80.4628525  68.0604172   0.3832476  81.1838837  67.8435822   0.9742894
  80.8857346  68.2284851  -0.4588684  40.4463730  66.8404007  13.8840456
  39.7296181  67.4422836  14.0846348  40.4079933  66.7304230  12.9339600
  14.1667118  21.2834473  56.5988655  14.8311729  20.6050968  56.7195549
  13.7835350  21.0937176  55.7424736   4.9055924  69.7693253  83.8001022
   5.1191144  69.2600555  84.5819473   5.5988679  70.4271088  83.7460022
  35.4084396  65.2348099  12.9195967  35.2094231  65.8292465  12.1962223
  36.3608513  65.1416855  12.8979759  83.9218216  24.5732784   0.7586091
  84.4667206  25.2788410   0.4100367  83.0898590  24.9960461   0.9715244
  42.6710434  12.7828388  19.1417599  43.3732376  12.1388712  19.0497742
  42.0568771  12.5695009  18.4392509  73.1356964  30.6663532  59.2242317
  73.2885818  31.3898907  58.6164894  73.1844864  29.8811665  58.6789474
  52.4849930  43.5032997  30.1672115  53.4159050  43.5616264  30.3822212
  52.2906380  44.3265038  29.7191067  77.8592834  25.7253857  86.5440674
  77.4959869  26.3490257  87.1728134  77.6543427  26.1014366  85.6880188
  86.2954712  63.1786194  62.4109802  87.2116852  63.3512878  62.1942520
  85.8285065  63.2891045  61.5827484  51.8836403  38.0120659  68.9153595
  51.2671585  38.7141228  69.1234436  51.6819382  37.3213120  69.5465622
  65.5837708  17.3131351  82.1763763  64.7152252  16.9123421  82.2112427
  66.1619797  16.6674767  82.5826263  85.1533356  47.6245232  88.7087708
  84.3645096  47.5308075  89.2428055  85.8686829  47.3692284  89.2912979
  12.8627253  64.4389801  11.7233305  12.4622841  63.8108063  11.1222677
  13.8046474  64.3216629  11.5998392  64.9045258  44.6374168  17.1681919
  64.4661713  44.5977631  16.3181896  64.9705124  43.7239494  17.4464931
  59.5293579  22.1719189  24.4309387  58.6138306  22.4493351  24.3980370
  59.5963860  21.6624832  25.2385368  39.3517799  19.4300747  78.6280441
  40.0758095  19.8124752  78.1322784  39.5657043  18.4988022  78.6845856
  67.7965469  14.6340151   0.4389170  68.4251022  14.2801208  -0.1903019
  67.1023636  15.0105619  -0.1019584  57.4329414  12.1778946  34.0029602
  58.0118713  12.6371193  33.3945312  57.0799217  11.4485569  33.4933777
  10.1362133  40.2188454  68.1390457   9.6756926  40.9696693  67.7643280
  10.5823164  39.8154755  67.3943863  57.3650703   3.3807290  50.2904778
  56.9842377   3.2356281  49.4243698  57.9894676   2.6636510  50.4007645
  38.9383698  50.1898727  19.9502125  39.4254684  50.8458900  20.4488182
  38.6040916  49.5851402  20.6126232  85.8089371  25.9564877  12.1061869
  86.5869370  25.8257618  12.6482658  85.1531448  25.3698025  12.4829817
   1.4799430  26.8147011  10.7334461   0.6827385  26.3367157  10.5049124
   1.6438529  26.5837936  11.6478024  53.5934906  16.7192688  68.4176636
  52.6840630  16.9129715  68.6449356  53.8151894  15.9540472  68.9482498
  12.3392611  51.1386414   9.2144527  13.1086464  50.9988289   9.7664766
  12.5865679  51.8612595   8.6374807  31.2879314  48.2714653  88.6617126
  31.8737068  47.9556236  87.9737167  31.5486584  47.7817574  89.4417419
  51.2654953  44.3246651  78.2556686  51.5080261  45.2449646  78.3579407
  52.0997810  43.8554192  78.2580719  49.5108604  28.4494705  36.4789963
  48.6877670  28.0338421  36.7359123  50.1290741  27.7237434  36.3931847
  63.9224663   1.5275292  47.7816772  63.9260826   2.0545812  46.9826546
  64.2106857   2.1300452  48.4673386  78.3487091  17.7803669  57.1492157
  77.5697250  18.3351898  57.1093674  78.7049179  17.9301720  58.0249481
  11.3534937  43.3532600  22.1319141  10.8277416  42.7215996  22.6226482
  12.1498041  43.4579659  22.6526432  74.1810760   8.9116192  59.0693970
  74.1432037   9.7830648  58.6752129  73.5078354   8.9269829  59.7496529
  77.5139313  44.2977982  37.6889381  78.3241501  43.9937668  38.0980110
  77.1369400  44.9045372  38.3261032  62.8992538  16.2371292   9.1903639
  62.4500961  15.8367243   9.9347868  63.3104401  17.0219402   9.5526171
  43.6765213  37.2680893  16.5722065  44.0930519  37.6296234  15.7898855
  42.8122025  37.6787910  16.5948696  12.3155193  41.1125183  49.4763298
  12.2350893  40.7390480  48.5986710  11.4137096  41.2856026  49.7465401
  76.3204117  45.1445847   7.9889612  76.0758896  46.0204010   7.6899891
  76.7231903  45.2876396   8.8454313  81.2224274  10.9722242  76.3147354
  80.7341995  11.6500225  75.8473434  81.0289841  11.1316624  77.2385254
  84.6841049  35.6530991  17.3567753  84.6019440  35.6231842  18.3099728
  83.8626709  36.0430069  17.0576935  67.7868652  38.2102852   1.8962978
  67.7753372  38.1822853   0.9395770  68.6521912  37.8780746   2.1352222
  68.8478012  26.4963684  79.5440369  68.8027344  27.3344936  79.0838776
  67.9601974  26.3561535  79.8737946  12.6566238   3.5315022  37.5056953
  13.4267435   3.5915606  36.9404182  12.0851288   2.9021175  37.0658112
  82.1965179  11.8442106   3.3529842  82.9874954  11.6445818   2.8522508
  82.2630157  11.2956371   4.1345711  37.4138527  71.3720703  60.0662651
  38.1234779  71.4004898  59.4245071  37.0391502  70.4964905  59.9704056
  82.7374725  64.2079163  86.4035339  82.2297745  63.6110229  85.8538208
  82.2835999  64.2019348  87.2462692   7.1980901  59.1618042  50.7104111
   7.4627981  58.2437172  50.6531868   6.2546682  59.1296234  50.8690033
  38.7657051  53.2340355  35.7313728  38.6571693  52.8213921  36.5882149
  38.8135872  54.1710205  35.9211159  55.8510361  44.8424416   7.1479163
  55.8332100  43.8860092   7.1140585  56.2715492  45.0447235   7.9836688
  78.4425278  53.9237480  71.5202103  79.1927795  53.9535179  72.1138992
  77.8211823  54.5523109  71.8877335  61.0295410  12.8907785  23.2221336
  60.6454163  12.0179796  23.1390533  61.5746460  12.8388138  24.0072384
  46.1900635  51.8594437  43.5669594  47.1237717  52.0685768  43.5407448
  46.1536560  50.9105988  43.4461441  31.9358215  30.4809246  16.4540329
  32.1382484  31.1752148  17.0811043  30.9846592  30.3848381  16.5018578
  31.4991245  66.5443649   6.4632120  31.8364162  67.3352203   6.0424800
  31.8682594  65.8247070   5.9512935  19.6715527  41.4323807  11.4605579
  19.6952896  41.5344505  10.5091114  19.2537708  42.2333450  11.7770195
   7.0519629  15.2259073  73.5530701   6.3111134  15.5601788  74.0586777
   6.6511512  14.7833433  72.8049316  61.0438652  32.0969391  31.5751553
  61.4882240  31.4867916  30.9865131  61.1322861  31.7007656  32.4420242
  74.5322723  65.0036392  72.3677139  73.6978531  65.4696579  72.4207001
  74.3466263  64.1379242  72.7314606  44.8847694  46.1977997  86.6642761
  44.1130104  46.0017014  87.1954651  44.5736771  46.8261871  86.0126801
  79.3541336  17.3190651  18.1166821  79.4507523  16.3703861  18.1997700
  78.4172668  17.4756737  18.2349472  80.2603378  37.7294846  32.2521133
  79.3607635  38.0296860  32.1222038  80.8021011  38.4588890  31.9509487
  11.9355173  35.1258430  44.3251686  12.0056515  36.0789337  44.3793106
  11.2512922  34.8998566  44.9552498  43.6740723   0.3337172  75.9915314
  44.4552116   0.3927554  76.5415955  43.7986832   1.0095611  75.3252411
  77.7380295   8.0923338  87.3876114  77.4900513   8.1013737  86.4631348
  78.2159882   8.9117537  87.5154114  79.9536972  33.7939110  66.2890396
  79.4383698  33.5338669  65.5254669  79.4557724  34.5113106  66.6810074
  29.0350399  21.5472164  17.6725807  29.6734791  21.0709686  17.1417179
  29.0225258  22.4283714  17.2988949  67.0128021  28.6981544  59.4983139
  66.8336182  29.6004181  59.2336540  67.7036362  28.7743206  60.1564827
  75.3291779  41.4119949   7.7155147  76.1148300  41.9345360   7.8765450
  74.8094940  41.5086975   8.5135174  82.4200134  22.2793732  35.6683006
  82.7779388  23.1110401  35.9788628  81.5587311  22.2200089  36.0816917
  12.8284273  44.7941284  64.6679916  12.8945732  43.8938904  64.3495102
  13.7106113  45.0055695  64.9733963  53.3746872  54.0330620  74.3456650
  54.0754662  53.5289268  73.9321594  53.8181305  54.5570755  75.0127487
  84.0935059  55.8976898  29.1968594  84.7821655  55.3191032  28.8694305
  84.5476456  56.5024261  29.7836132  72.0136871  23.5927868  23.3708534
  71.3587036  23.9587173  23.9652634  72.8464355  23.7173519  23.8260880
   5.0816102   9.3331089  29.5117111   5.3005009  10.2086830  29.8305969
   5.2801242   9.3625078  28.5757828  70.6905823  68.5485077  15.9958820
  70.0366745  68.4736023  15.3008776  71.3380280  69.1630554  15.6503649
  54.6698151  11.4354477  74.6747513  54.5380287  11.7219849  73.7710037
  53.8557739  11.6686268  75.1210709  58.8302193  55.1572762  37.7640343
  59.2454033  55.4567184  36.9552116  59.3287086  54.3797836  38.0155182
  59.3109093  44.6271896  21.2996826  59.3913956  43.7927895  20.8375931
  59.6334648  44.4443512  22.1821575  44.9730148  23.4424210  71.5755386
  44.2920952  22.7744141  71.4958496  44.9254417  23.7251644  72.4887924
  46.3425446  63.0437202  59.0441933  45.7230453  63.0459671  59.7738838
  47.1725349  62.7712669  59.4354935  79.7905884  12.5578337  87.4214325
  79.8705826  11.7007017  87.8399506  79.6481400  13.1661167  88.1466446
  72.8048248  52.9215546  64.2137299  73.4566269  53.4378891  63.7396202
  72.3846893  53.5485153  64.8024979  56.4620247  67.1496429  64.8622055
  55.9338417  67.9458237  64.8042603  56.8976173  67.0887909  64.0120392
  39.5990486  14.5787525  23.8131676  39.4419975  14.0706816  23.0172825
  40.4626236  14.2942867  24.1124115  42.2068672  44.9814148   4.1099863
  42.9347382  44.8658447   4.7207861  41.7545586  45.7652092   4.4219456
   2.0277882  27.2499981  39.8573380   1.2314837  26.7376118  39.7173729
   1.7548616  27.9643173  40.4330902  43.5213356  20.4578247  17.0589161
  43.8543587  21.3480797  16.9459076  44.3006020  19.9035244  17.0173759
   6.3527427   3.5070717  24.9015751   6.5057726   2.9921589  25.6938362
   7.0926938   3.2961352  24.3321800  20.8723412  63.9605408  17.2362309
  21.4341354  64.7288666  17.1348038  20.0174274  64.3187790  17.4750233
  40.8906784   3.1720109  75.5880051  40.5818825   2.6598425  76.3353729
  41.5749168   3.7351310  75.9498672   8.6856489   2.6556404  34.6525383
   9.0363159   3.5293777  34.4797745   8.0690718   2.4992769  33.9372635
  80.9068985   3.7286370   6.1416111  81.1142883   2.8156543   6.3408146
  80.2009735   3.6787608   5.4970822  76.0337448  54.7998810  21.5362892
  75.7121964  55.4189758  22.1917000  76.3149185  55.3497887  20.8050022
  58.4433250  14.5677586  57.0705032  58.5584869  14.4859362  56.1237831
  57.5797081  14.9676094  57.1730537  52.7826538   4.6655850  36.2509270
  52.2605553   5.0935822  35.5723495  52.3198776   4.8582602  37.0663681
  18.2959461  20.5315666  82.8116608  17.5972977  20.1489220  83.3424225
  18.3234043  21.4504623  83.0783234  24.1849613  64.0550156  82.3561554
  24.0361309  63.2564507  82.8624878  24.6511116  64.6362457  82.9570770
  23.8904419  43.3371391  84.2335968  23.3031502  43.6085892  84.9390335
  23.3068104  43.1154289  83.5080338   9.4599142  52.3432617  28.4889946
   9.9431915  52.9263916  27.9036465   9.0693398  51.6905327  27.9079342
  53.1924438  66.1486740  61.4826050  52.5782700  65.4156570  61.4412994
  53.5243111  66.1327896  62.3802948  64.5124588   2.6422212  87.5317764
  64.3937759   3.5916727  87.5055542  63.6251793   2.2920401  87.6113739
  78.8662491  63.2903175  23.6028652  78.5447159  64.1581497  23.8472462
  78.0799332  62.7458992  23.5634823  74.6586304  17.2681274  49.9660835
  75.0554199  17.7507248  50.6912651  73.8355865  16.9339352  50.3226700
  26.2646160   4.0516686  15.1946344  25.4111977   4.1727395  15.6108685
  26.8923016   4.3933640  15.8314133  66.5800781  34.3343277  32.7198029
  66.3087006  35.2032509  32.4238968  67.3962860  34.4874954  33.1957932
  70.9747009   4.3894868   9.3239307  71.5991211   4.5547328   8.6175127
  71.1548843   5.0743394   9.9679365  85.4304428  58.5737724  55.2134399
  85.3070145  57.7739868  55.7246552  85.9938812  58.3087692  54.4864235
  66.5203552  57.1806564   9.0603037  66.5685654  57.4396057   8.1400566
  65.5839920  57.1752014   9.2588501  70.9755402  61.8815956   7.5262790
  71.2335205  62.7200012   7.9093618  71.8032684  61.4371414   7.3431053
  82.5164871   2.8191240  36.7404709  83.2273636   3.2723591  36.2871857
  81.7824478   3.4326355  36.7085152  61.3415756  14.7194662  51.0907402
  61.7920151  15.1918879  51.7908478  61.5744781  15.1943798  50.2929649
  20.9276161  17.5455093  87.3389206  20.6987038  17.6862907  88.2576218
  20.5756359  18.3108482  86.8843842  33.9677734  70.9494400  62.8517952
  34.0563545  71.3126373  63.7329750  33.9765015  70.0011292  62.9816132
   8.9299536  26.0611763   5.5004559   8.5631914  25.3136768   5.9726453
   8.6544256  25.9299660   4.5932074  29.1176529  45.0406075  60.3952026
  28.2711239  45.4866219  60.3689537  29.1052704  44.5515022  61.2179146
   1.6056499  65.3748093  15.5093441   2.5495658  65.5329208  15.4933491
   1.2157936  66.2480316  15.4677572  51.6516418  32.9660301  12.8901520
  52.4598274  33.3854332  13.1854029  51.6274490  32.1336861  13.3622217
  12.7708063  10.8707628   0.3870504  13.0462837  10.6115856   1.2663518
  11.8900757  10.5073156   0.2951184  77.3808594  30.3406563  18.1920128
  76.7380600  29.6389923  18.2954674  77.1007996  30.8079166  17.4049530
  35.9983902   4.5620518  74.8396912  36.4729500   3.7309041  74.8249588
  35.3485260   4.4545231  75.5342026  16.9092121  33.0722771   9.5217304
  16.1873283  32.9231796   8.9110870  17.5850887  33.4979286   8.9942408
  75.2656403   6.0368361  26.3311386  74.8801041   6.6729393  26.9336014
  74.8495026   6.2216368  25.4891720  49.2369385  16.4676170   9.7365828
  49.5205498  15.8216839  10.3835497  48.2821770  16.4715767   9.8047132
  84.7483215  62.7994385  15.3972988  84.6021881  63.5499535  14.8214455
  85.4719467  63.0688934  15.9629755  38.0072517  48.8087387  10.1589193
  38.9116745  48.6093216  10.4007473  37.5713501  47.9567947  10.1385994
  62.5421333   0.9687605  58.5339394  62.2840004   1.7186487  57.9979668
  61.8464584   0.8901045  59.1866837  59.6371498   4.7774725  28.3376141
  59.3583527   4.5156937  29.2150955  60.2279701   4.0791173  28.0557194
  81.4109344   3.5387280   0.9275476  81.4598618   2.6133871   1.1675097
  80.5112000   3.6602764   0.6243252  19.9758682  52.2739410  27.7718239
  19.4515209  52.0967865  26.9908581  19.6851978  51.6210899  28.4086361
  38.8722076  65.0367050  22.9012203  39.5450783  64.3982468  22.6648979
  39.2332878  65.8788300  22.6243172   7.2247715  17.0489693  23.6620502
   6.8473110  16.4859829  22.9861813   7.8205166  16.4765167  24.1453896
  38.5374641  54.0289612  81.9032898  37.7417870  54.2327919  82.3947983
  38.5135918  53.0785103  81.7923584  72.2755508  67.0999298  17.9887295
  72.5652161  67.5549011  18.7795105  71.9672165  67.7975540  17.4103851
   1.8635204  34.3683052  86.3488007   2.6591737  34.8064079  86.6508484
   1.5172684  33.9357185  87.1293182  20.8433971  35.9818344  18.4056759
  21.6321621  36.5230026  18.4405975  21.0905590  35.1694412  18.8474464
  70.9064789   1.7863176  83.5930252  71.5894394   1.1562387  83.3632584
  70.8181000   2.3378439  82.8156967   3.2825794   4.6947112  66.9045868
   3.3810847   3.9640954  67.5150986   2.3459828   4.7183514  66.7084732
   2.7633429   3.6570480   6.7927833   2.0207684   3.1839154   7.1682305
   2.6636949   3.5475700   5.8471003  74.8554382  65.2013779  35.9684143
  75.0365753  66.0930481  36.2656364  73.9208450  65.2030487  35.7616158
  77.2644196  48.1637115  40.4854698  77.8147736  48.4700127  41.2062492
  76.7982178  47.4086189  40.8442535  86.2595291  27.9966049  35.6481209
  86.9045410  27.5924530  35.0677261  85.7541046  27.2608681  35.9937592
  70.2296219  16.7946987  88.6836853  71.1423264  16.9074402  88.9491959
  70.1194153  15.8474407  88.6012878  49.6651154  34.7708321  12.6641836
  50.3702621  34.1364899  12.7930565  49.0958252  34.6539307  13.4247570
  48.6550865  63.4562836  20.3687878  49.2834473  63.6486053  21.0647831
  48.1311569  64.2536774  20.2920609  26.0165977   8.3616400  51.3143578
  26.1544399   9.2048826  50.8828812  26.2118587   8.5295668  52.2362633
  41.7924728  66.9032669  50.6377525  42.4826775  66.9650269  49.9774208
  41.9791527  67.6176453  51.2468834  45.9535179   3.2198071  15.6956434
  45.2373009   2.6443322  15.4271421  46.5697937   2.6414986  16.1450787
  41.7210159  45.4903717  19.0840931  41.4316483  45.6314507  18.1826534
  41.4226570  44.6058350  19.2957630  12.7476978  33.1295509  36.0013084
  12.6081228  32.2381783  35.6816177  13.2354412  33.5618134  35.3002472
  58.1846008  31.6297512  23.5921841  58.9100342  31.5653553  24.2133389
  57.6750412  32.3809052  23.8960705  10.6431122   4.9861646  18.8224010
  11.1421728   5.6839314  18.3977947  11.2439575   4.2413669  18.8445969
  67.8346710  33.3999138  71.3820648  68.4846725  34.0813789  71.5533524
  67.1669159  33.5312195  72.0551834  68.8305206  66.1351013  70.4565887
  68.8017273  67.0615311  70.6956100  69.1121368  65.6901627  71.2559357
  22.7569180  15.9290667  20.3560734  23.0769119  16.8154202  20.1881065
  23.1531925  15.6859045  21.1927757  22.6037922  11.9149475  15.0799904
  23.1650944  12.6266785  15.3875809  22.0794220  11.6760502  15.8443165
  80.7132950  64.9409714  80.8655624  80.4508286  65.5310669  80.1590729
  79.9447174  64.8910522  81.4339142  38.7585526  15.3985577  26.2355614
  39.6679764  15.4820089  26.5222931  38.7978821  14.8083000  25.4830456
   3.1485872  11.4258556   1.8273891   3.8529568  12.0130806   1.5530492
   2.4097831  11.6589890   1.2652062  28.9587574  70.9921188   1.6156013
  28.9978809  71.8762970   1.9801968  29.7952805  70.5955124   1.8588370
  66.2157288   8.8488293  40.7818832  65.3697128   9.2607222  40.9575005
  66.0011215   7.9387507  40.5771065  11.4607506  24.4696293  33.1009865
  12.1357508  24.1945477  33.7214203  11.6920424  24.0278263  32.2839508
  18.7139988  20.6188011  75.1354752  18.0542946  20.5149117  74.4497375
  18.4137726  20.0504379  75.8447418  70.6362457  11.3864717  77.6667480
  70.9088287  11.8078308  78.4818497  70.0393143  12.0147448  77.2603226
  51.5507164   9.7871695  71.8941650  51.5897751   9.0579147  71.2753830
  52.3574448   9.7122536  72.4038773   4.5795612  21.0078449  87.9241409
   4.7143087  20.2305355  88.4662323   4.1107316  20.6848736  87.1546478
  57.9745407  15.1880703  70.7852936  57.4647865  15.0598726  71.5852661
  58.2189903  16.1133652  70.8027573  25.6593971  35.8986664   2.5933154
  26.3488255  36.5587692   2.6653080  25.0764198  36.2344894   1.9124386
  62.3573570  67.2362976  24.4040871  62.1046143  66.3165817  24.4845734
  62.5954514  67.4979782  25.2935066  16.4853210  23.0809422  18.4329929
  16.4048042  23.7968388  19.0632648  17.2933826  23.2711296  17.9564476
  80.9511871  64.5808487  47.6652069  80.1013641  64.2530899  47.9595184
  80.7408524  65.3492889  47.1346512  81.1234055  10.1308355  58.3970718
  81.9990768  10.1991005  58.7775688  80.7223206  10.9836512  58.5645981
  26.8940811  40.5794716  87.1076202  26.4716339  40.9822769  86.3489914
  27.4861412  39.9269066  86.7336426  84.7166138  52.1037102  35.4343643
  84.8631973  51.6610451  36.2702980  83.9287415  52.6284790  35.5761566
  38.5527802  21.0187225  82.9001389  37.8970604  21.6697445  82.6502686
  38.7753525  21.2380085  83.8049088  85.2762299  14.1133299  76.9840012
  84.8258286  14.0164804  77.8230362  86.2043076  14.1576185  77.2140732
  28.5487080  46.4477196  63.9796944  29.3023853  46.3032227  63.4075737
  28.3830528  45.5932350  64.3780060  30.8325806  69.3768921  77.6782608
  30.9357624  69.3205338  76.7283096  31.1990776  70.2305756  77.9087601
  38.3846054  13.8226795  11.8793383  38.7513962  14.3257198  11.1522589
  38.0026398  14.4823008  12.4583330  33.1674347  46.5037041  87.5432968
  33.3495712  45.9460297  86.7869492  32.5391769  46.0033531  88.0640411
  45.8453865  63.1525917  71.1869736  46.1268806  63.0569191  70.2771225
  46.6606331  63.1920738  71.6870270  47.2736588  55.2217941   9.7300825
  47.8327255  54.5681458   9.3100576  47.7608376  56.0416832   9.6484413
  18.7430840  64.2571487  47.6364059  18.9174919  63.7012329  46.8769493
  19.4039402  64.9476624  47.5845947  80.0985489   7.4849248  37.0215607
  79.9556961   7.7594147  37.9273643  79.4709854   7.9991589  36.5136566
  83.4243011  58.9247551  30.7634411  83.3061371  59.3414307  31.6170521
  83.8885651  59.5781364  30.2401943  72.5089798  52.8784180  85.8316269
  71.6192856  53.0602226  86.1343079  72.9373016  52.4652824  86.5813522
  49.1750984  16.6618214  89.1865845  49.6490173  16.3980446  88.3978806
  49.3082352  15.9384756  89.7991791   2.0099978   9.2335711  26.7820091
   1.7554637   9.5337210  27.6545658   2.9528537   9.3930769  26.7394352
   6.3867345   4.0355535  12.0879850   6.4294906   4.0268350  11.1317797
   7.2827382   3.8507268  12.3694954  56.9585075  13.0750923  21.5774651
  57.4770660  13.8480511  21.8007698  56.0629730  13.4029865  21.4954109
  24.2815990  57.8110657   4.5904894  24.0100517  58.7265472   4.5242252
  24.1690998  57.4632378   3.7058475  48.6722221  61.3172073  32.0711670
  49.1448708  60.5066757  31.8817577  48.5838394  61.7472839  31.2206039
  73.4207306  20.7497082  40.1341820  73.7680664  19.8608608  40.0597763
  73.0728683  20.9445477  39.2639694  56.0536232  32.9898949  48.8282204
  55.9433212  32.3662758  48.1104698  55.2354698  32.9340134  49.3219185
  59.9077072  32.4698486  36.5132370  59.5108795  32.3817139  37.3798370
  60.8460541  32.5462761  36.6861420   8.5226841  10.4082117  86.5680008
   9.1934853  10.1842604  85.9229355   7.6949110  10.3040066  86.0987778
  29.4612961  26.3698292   8.1258783  28.8958569  26.4291763   7.3558207
  29.2943020  25.4959030   8.4788647  39.9827843  43.3659859  16.9243717
  39.4864693  43.0959854  17.6970291  40.6025162  42.6517105  16.7761383
  10.7906055  44.0460854  60.1323204  11.3808241  44.6773796  60.5438309
  11.2060814  43.1968575  60.2820778  70.2084808  37.7599602   2.4491463
  70.7829514  37.1424141   1.9965366  70.6719818  37.9677505   3.2604554
  75.3971176  46.8327332  50.5619469  74.7863388  47.4398880  50.1441612
  76.0904465  46.7068367  49.9141235  13.8886747   6.9836679  69.6167984
  12.9672575   6.9669652  69.3580627  14.0907879   7.9132280  69.7230988
  57.6762924  18.8231239  87.3283920  56.7269440  18.9251919  87.3958664
  58.0267372  19.6831093  87.5604401   8.7682829  41.5828018  72.4097061
   8.2438517  41.5057678  73.2067490   9.5180893  42.1191673  72.6672592
  76.8387833  52.8147850  19.3594646  76.3138885  53.2071190  20.0571728
  77.0546570  51.9408112  19.6847305  48.6484337   1.8470742  26.8689938
  48.0310173   2.5276012  27.1371632  48.4297791   1.0949799  27.4192448
  55.0498428  52.4854927  28.6582279  55.3429718  51.6383324  28.3226280
  54.2033653  52.6306572  28.2355747   6.2908335  22.5058002  48.3093300
   6.7117777  22.0228291  49.0205116   6.5448079  22.0339394  47.5161896
  13.4741554  10.8661995  17.1498661  14.2467909  10.5737123  16.6664219
  13.7570267  10.8861570  18.0640965  73.3197784  65.0267639  20.6340427
  73.9436035  65.1414719  19.9171600  72.8014832  65.8314972  20.6315861
  64.9360123  41.5853767  63.7654648  64.9215240  41.6335907  62.8095894
  64.6615753  40.6901779  63.9643135   9.0840893   1.1670256  15.7348700
   9.0310993   2.1001644  15.9414520   8.8129807   1.1087639  14.8187160
  73.0832443  71.0790100  34.5321350  72.3858948  71.7335739  34.5707321
  73.8768616  71.5604782  34.7657738  62.1564980  63.1854019  60.7093201
  63.0804405  63.3169708  60.4966011  62.1554794  62.9501801  61.6371689
  39.0164795  52.9335632  66.5531387  39.9178658  53.2348061  66.6670761
  38.5286751  53.3673439  67.2532196  32.6856384  13.1713896  23.0121841
  32.5918922  13.8104296  23.7186337  31.9271832  12.5953798  23.1080570
  83.2502975  55.9183311  38.4595947  83.5698090  56.5138702  39.1374474
  84.0047760  55.3681564  38.2491188  79.4769821  13.1920071   6.0116315
  78.5717087  13.2480412   6.3175254  79.5622025  12.2989035   5.6779642
  56.8528557  70.6002045  69.0221634  56.0656013  70.4930496  68.4883270
  57.4095535  69.8604355  68.7791443  78.3557129  40.2101212  85.4566422
  77.7679901  40.5305443  86.1408539  78.1430130  40.7420158  84.6897736
  17.3034420   8.7281542  50.0538521  17.7624226   8.0421534  50.5385895
  17.4885883   9.5307741  50.5414505  31.1134701  22.9742527   4.9834957
  31.6035786  22.8841000   4.1662450  30.7152786  23.8430138   4.9293895
  50.9797516  16.9752827  13.3991556  51.5615501  16.2643490  13.1302423
  50.9683037  16.9268188  14.3550587  14.5963964  58.7933807  29.8601151
  14.1268082  59.4270706  30.4024734  15.1973534  58.3589134  30.4653587
  26.0378113  36.8910561  22.8665619  25.7076836  36.2300720  22.2579975
  26.8229351  36.4963570  23.2460709  64.0963135  59.6890373  25.0266476
  64.2562790  59.8294868  24.0934200  64.6569214  58.9481354  25.2569027
  15.7834320  63.0118370  38.9228172  16.3999557  63.2148018  39.6263351
  15.9859352  62.1083298  38.6801376  28.8887920   7.2424922  26.0094795
  28.6431637   6.5570965  26.6308746  29.3705807   7.8809943  26.5352440
  45.4782524  21.6204720  85.4064178  45.4562416  21.4768085  84.4603119
  44.5572548  21.6609077  85.6640244  69.5007477  61.1230087  51.7403221
  69.4498444  61.4657822  50.8480530  70.4071884  61.2789268  52.0054512
  29.4263439  69.6538773  55.0429001  29.5122604  69.2346725  55.8991241
  28.8998070  69.0420609  54.5284348  12.1599474  52.8891716  70.7189026
  12.1800356  53.2443886  71.6075287  12.9460163  53.2421074  70.3020554
   6.9780116  51.2392578  66.6590195   6.4923630  52.0134888  66.9435272
   6.4848499  50.5017586  67.0183487  60.8856430  25.4512997  46.0383224
  60.2184143  24.8853645  46.4265938  60.6229935  25.5373249  45.1218910
  19.5908661  29.3179512  77.7310791  20.5375042  29.1912861  77.6673508
  19.3769722  29.8973351  76.9997864  62.6320648  70.5666046  65.6766129
  62.0017967  71.2676849  65.8423920  63.0854378  70.8360672  64.8778152
  18.5059071  14.8897533   2.9088466  18.7489319  14.5236902   3.7592402
  17.8751373  15.5791941   3.1162915  76.0488586  28.0607376  67.5996857
  76.6527786  28.3877182  68.2664642  75.1802902  28.1810246  67.9835510
  22.4301586  57.4700317   8.9907494  22.2769012  58.3866806   8.7616224
  23.3354549  57.3053589   8.7270203  45.9218369  44.9557533  89.2083969
  45.6111069  45.6304054  88.6046371  46.8699608  44.9362488  89.0783615
  50.5224457  66.9457626  11.2877293  49.7764244  66.7524643  10.7199945
  50.6297417  66.1568909  11.8191442  69.1486053  47.5954971   7.9382877
  69.4710922  47.1268425   8.7080898  69.7318039  47.3226051   7.2300191
  52.8589516  54.0116615  87.8413544  53.1687927  54.3806381  88.6684570
  52.8782196  54.7470207  87.2288971  62.1005440  48.4145470   0.7716388
  61.7186623  48.2249222  -0.0853557  61.8388710  47.6745415   1.3194984
  74.7964706  29.5887623  24.1464787  73.8453369  29.6332722  24.0485573
  74.9497910  29.7588654  25.0758820  81.4356003  13.5198202  71.1739731
  81.5735016  12.5984344  71.3936615  80.5008698  13.5818567  70.9773254
  45.4746513  13.8546734   9.7059460  44.9959450  13.9851933   8.8873863
  44.8070869  13.9276085  10.3880539  61.9819908  46.2482986  54.4321518
  62.3840370  45.4407349  54.1121063  62.1149864  46.8788872  53.7244072
  76.9687576  62.7334290  86.4881439  76.7677689  63.6196213  86.1873169
  76.4060287  62.1676483  85.9595032  33.5729866  64.6679993  87.5294876
  33.5141182  64.1670837  86.7159424  32.9958191  65.4188995  87.3907166
  51.2310295  57.6992683   4.5406833  51.9919968  57.1601410   4.3250408
  51.5460510  58.2984924   5.2173834  20.7589512   7.0576115   9.1554317
  20.8981380   7.2224197   8.2228565  21.1771603   6.2113571   9.3141327
  71.7319717  38.8888779  39.9926987  71.3668900  38.8751831  39.1079636
  72.1970291  39.7237473  40.0470047  75.6620636  57.1085892   8.6133451
  76.3035049  56.6982117   8.0333691  75.8524094  58.0449562   8.5566111
  47.5376167  41.6259270  19.1380291  48.2810631  41.8346062  18.5723686
  46.8573418  41.3220100  18.5371227  19.2441120  11.3761549   6.2451625
  19.6293545  10.9912844   5.4579549  18.8617096  12.2010632   5.9459538
  67.0640640  67.6370239  72.5374069  66.3905411  68.1998901  72.1555939
  66.7937775  66.7486649  72.3050232  25.7876015  62.0586548  70.9202423
  26.5615788  61.5740547  70.6332626  25.4842472  61.5876350  71.6963577
  58.0734901  23.8010635  67.4446945  57.6682243  23.0522442  67.8820267
  57.6857224  23.8059978  66.5695724   5.4290795  23.6158543   1.9446176
   4.5780764  23.7982635   1.5461814   5.2872977  22.8211765   2.4590282
  38.9298248  11.7506189   3.2270482  38.4789963  11.9671516   4.0431991
  38.2409439  11.7621517   2.5625606  44.6283569  56.7379036  62.5264473
  45.3018227  56.3430138  63.0802841  44.0848808  56.0008507  62.2478447
  19.1948872  68.4302597   4.5139170  20.1394920  68.4887314   4.3706164
  19.0931950  68.4814072   5.4643245  80.6443329   9.2413406  19.3050060
  80.9641953   8.4181690  18.9358101  80.1565170   9.6507874  18.5904274
  38.3037033  64.8275223  32.5947952  38.8251610  65.2422714  31.9075603
  38.6834183  65.1510162  33.4117432  41.2324791  66.1119843  84.5930710
  41.1506195  66.7895660  83.9219360  40.5047760  65.5146255  84.4203339
  17.8202496  22.7868843  61.0617142  17.5731697  23.0084820  60.1638985
  18.0892067  23.6200390  61.4486885  25.3950787  63.1212158  46.7518845
  24.7208328  63.0573082  47.4283028  24.9106846  63.0879745  45.9269676
  22.9981461  20.0623512  25.6003246  22.6501942  19.3770218  26.1708374
  23.9183102  20.1395798  25.8524494  22.1161804  61.3968163  33.9039841
  22.4066200  61.0941048  33.0436096  21.9864407  62.3389206  33.7951851
  33.4580383  55.1863632   8.5792065  32.8377647  55.0816422   9.3006830
  34.1978722  54.6272163   8.8163347  46.4373665   5.9453206  57.4259949
  45.7633781   5.5897875  56.8467140  47.2122650   5.4126248  57.2471123
  52.4883575  69.8719940  65.8471603  51.7549362  69.3045731  66.0845642
  52.0776138  70.6909180  65.5698700  79.8073578  70.2044907  13.7804499
  80.3646088  69.8119583  13.1084251  79.2663956  69.4805527  14.0958815
  20.1394539  12.6235533  13.7774162  20.7328377  13.1515341  14.3116093
  20.3672066  12.8465557  12.8748474  12.6477871  68.3017731  25.6255779
  12.8928537  68.6338196  24.7619133  12.4905910  67.3677444  25.4873257
  78.0018768  33.4452400  64.4253464  77.1014786  33.7660484  64.3744507
  78.3169479  33.4715729  63.5218697  40.4325333  51.7144585  27.1084976
  39.8783836  51.3711853  26.4075584  40.2644234  51.1355209  27.8520031
  54.8389282  65.5909042  36.9578018  53.9818192  66.0169525  36.9485168
  55.4604568  66.3061295  37.0934067  36.6749382  69.2400513   4.2698617
  37.0551453  70.0308228   3.8873096  37.3763580  68.8732758   4.8081169
  48.6831932   8.0737495  26.9105034  48.3387680   7.2897463  27.3382206
  48.9679489   7.7707195  26.0483437  39.1500740  59.0653000  79.3767853
  39.1358948  58.2840652  79.9296875  38.3301888  59.5162888  79.5783463
  57.4616547  61.2636833  55.5971146  57.4924927  61.7063599  56.4452400
  57.9770699  60.4671135  55.7238312  32.8214989  23.1056061  16.8691978
  32.4324570  23.4315681  16.0576401  33.7639580  23.2176399  16.7448978
  26.1118622   5.2015352  12.7291393  26.2449417   6.1274371  12.5260925
  26.4403877   5.1026726  13.6227436  66.3616409  69.4775391  63.2996407
  66.7638626  70.2323685  62.8698959  66.9201431  69.3081589  64.0583344
  32.1726685  50.4603958   1.0217927  31.8585339  51.2531815   0.5870014
  31.9714642  49.7545242   0.4073879   9.9799843  57.6676369   6.5540342
   9.1705637  57.3205566   6.9290094  10.6156397  57.6170197   7.2679057
  12.3263769  57.7777443  58.2478218  12.3010902  57.9629593  57.3090553
  12.2180290  58.6330452  58.6637039  36.6075592  11.7928467  81.0691528
  36.7050056  11.6985788  82.0167084  36.8535080  12.7008352  80.8922424
   7.1981106  42.0147057  30.8699112   6.9135604  42.1398315  29.9645901
   6.6769471  41.2761841  31.1848812  71.7609100  56.0922852  30.9784241
  71.7016220  56.2888565  31.9133434  72.6914597  55.9268417  30.8269997
   9.3129616  63.8924294  61.3223190   9.6464891  63.3443565  60.6119614
  10.0980577  64.2145844  61.7651215   8.4926863  58.9149475  25.6839008
   9.3044538  58.4078598  25.6727180   8.7012091  59.6893501  26.2064476
  40.3909836  48.3720589  71.4028549  40.7671013  48.6165352  72.2484360
  39.8661041  47.5938339  71.5902023  70.2391434  47.0468178   5.5936680
  70.1802597  46.2534485   5.0613780  71.0521545  47.4653244   5.3106585
  30.5464420  14.7493315  25.0499363  31.2679615  15.3739252  24.9756107
  29.9557648  15.1411638  25.6932068  36.9002190  63.5170937  30.7690048
  37.2790260  63.9292107  31.5454693  36.3807449  64.2091675  30.3598480
  75.0462418   2.4830890   1.6678585  74.3592224   1.9243320   1.3045131
  74.5762329   3.1259761   2.1989083  40.8577156  44.9075851  30.1884499
  40.3719673  45.5748482  29.7036419  40.3555832  44.7836685  30.9938927
   3.5392225  50.3736038  31.3294716   3.9139197  51.0083542  31.9401512
   2.6216817  50.6334801  31.2469139  79.7599182  39.9886742  53.1956406
  80.6747208  39.7974281  53.4025040  79.3897400  40.3072395  54.0188789
  37.9982529  62.1404572  45.5441093  38.0284119  62.4255142  44.6308365
  38.6036835  62.7266197  45.9980888  76.0705261  54.0626030  28.8974113
  76.6308975  54.0606689  29.6734333  76.6646805  53.8685608  28.1724529
  53.0658646  17.8603191  83.5527039  53.2681808  18.4675617  84.2644348
  52.4099770  17.2688122  83.9216995  86.4878998  34.0539207  58.7238121
  85.9211273  33.3736801  59.0875130  87.3564758  33.6525993  58.6963997
  81.2927475  17.8493614   7.8623815  81.4849701  17.0909996   7.3108668
  81.7357407  18.5789852   7.4292030  42.7582512  67.3613892  60.7328262
  43.6578217  67.1734848  60.4650536  42.8437004  68.0480270  61.3942299
  79.3513260  23.0475216  74.4414062  79.6681747  23.8863869  74.7762833
  78.8754425  23.2730579  73.6420975  25.5470047  19.8755531  51.7131767
  25.9653873  19.4031696  52.4329300  24.7079315  19.4314365  51.5909157
   6.4017992  41.6420975  53.6588326   5.9055958  42.0454597  54.3710899
   7.3170443  41.8257408  53.8705711  31.8470669  40.0914574   9.3589678
  32.0279655  39.2773514   9.8287935  32.7118492  40.4457207   9.1518869
  22.8922749  52.4580879  41.8292809  22.2613354  51.7402153  41.7763252
  23.7468815  52.0302773  41.7758408  85.8183289  11.8505440  18.8950462
  85.8015442  11.7697773  19.8486843  85.0187836  11.4124451  18.6034622
  29.0322437  29.7315502   6.3490181  28.1854706  29.4982090   6.7294879
  29.1639996  30.6457233   6.6003366  60.7361450  50.5431175   8.4795580
  60.6331253  49.6247444   8.2301388  60.9605141  50.5149803   9.4096642
  84.2434311   2.4373572  16.3683529  84.4860001   2.6772203  17.2626991
  84.4872665   1.5147841  16.2933044  46.3825989  38.2829475  83.6073074
  45.8789902  37.8494225  82.9183502  46.2907486  37.7093964  84.3681183
  58.8423386  62.9578590  79.4731598  59.0115013  63.8706398  79.2398071
  59.5398445  62.7350311  80.0896530  85.5821457  27.1961517  82.8115463
  84.8186569  27.4071636  82.2741623  85.6734772  27.9439507  83.4020462
  67.1012344  26.7380791  31.9455910  67.2857666  27.6752548  32.0078659
  66.3343887  26.6823311  31.3754463  12.6593637  37.1847878  59.4152031
  13.2951145  37.8233414  59.7381668  12.7024250  37.2648277  58.4623260
  42.1698456  68.2204590  38.4633141  43.0557671  68.4760284  38.7203331
  41.6037521  68.6240768  39.1212349  13.0288706  43.7290688  48.1684189
  12.7478170  43.1220703  48.8531036  13.5589437  43.1944962  47.5772438
   9.8804264  51.0332642  60.5320244  10.4619551  51.7742920  60.7021179
   8.9990482  51.3910522  60.6387520  22.8098316  32.4332581  20.8730717
  23.5591087  31.8379345  20.8528976  22.3525429  32.2152901  21.6852360
   5.0673413  44.0997849   8.1722317   5.3648367  43.4104996   8.7660427
   5.8576250  44.3712578   7.7053418  54.7364502  68.5896301  83.4572296
  54.6473961  67.6623459  83.2371292  55.3242378  68.6011124  84.2126160
  16.7114353  20.2299690  87.2464752  17.3171387  19.9528484  87.9339066
  17.2355099  20.7953987  86.6791458  57.8872910  34.2806892   1.1939754
  58.5058365  33.5508041   1.1639931  58.4382515  35.0628929   1.1651965
  80.6667862  25.4519844  76.0441055  80.1259537  26.2173634  76.2388458
  81.1372223  25.2774601  76.8592529   1.6763985   2.3392649  83.4519196
   2.5053217   2.0854490  83.8577499   1.1308731   2.6296573  84.1828842
  41.1807175  53.0006714   3.8598745  40.3340759  53.3842888   4.0884962
  41.3053436  53.2273254   2.9382837  32.7429428  44.4422569  61.4500427
  31.8131351  44.5108566  61.6667900  32.9482269  45.2680054  61.0115967
  80.6847610  40.6729774  44.5568619  80.2801056  39.8869057  44.1900063
  81.5871735  40.6486206  44.2385979  71.7772598  66.6347885  64.7212372
  72.6422043  67.0091476  64.8884430  71.9542770  65.8335114  64.2284393
  11.9962149  16.1193237  16.3170662  12.8606415  16.1353035  16.7278500
  11.5000639  15.4797115  16.8279095  62.1113014   8.7028551   0.0111309
  62.8206596   8.4467382   0.6005756  61.3117409   8.5134964   0.5021296
  23.5613613   6.6522846  72.4794617  23.9514980   7.3079638  73.0574799
  22.7243729   6.4376025  72.8912811   1.3107328  23.5188675  89.1818542
   2.1706100  23.6981030  88.8014374   0.7349462  23.3991508  88.4266281
  41.9318771   7.9469647  62.7300949  42.8153763   7.5975184  62.6137009
  41.7337189   7.7942834  63.6540298  67.4523392  53.3609734  53.4569969
  67.8830948  54.0221443  52.9152031  67.8477249  53.4657784  54.3223953
  72.9896240  35.4977913  41.2120934  72.7648392  34.7156792  41.7160797
  72.4960785  36.2028046  41.6311378  80.7930908  33.9620972  28.5610771
  79.8542328  34.1103630  28.6741714  80.9049988  33.0211525  28.6964664
  76.9312515   6.3458290   7.0887461  77.4639587   7.1130219   6.8792973
  77.3231964   5.9929204   7.8875356  43.6575546   3.3646474  26.3818493
  44.2196198   3.5975487  25.6428833  43.5338173   4.1863489  26.8569565
  35.2959442   7.2140841  30.2269840  35.8564682   7.9136162  29.8912754
  35.8508224   6.7383623  30.8450737  84.0046463  13.2196751  36.9342270
  84.2575073  13.6658440  37.7424507  83.5815048  12.4130011  37.2282677
  62.8523560  23.1043530  72.0044632  63.1157837  22.8469906  72.8879776
  63.6739349  23.3182392  71.5623169  52.3430405  23.4498158  12.1822205
  52.5642662  23.4349327  11.2510548  51.4819145  23.0346432  12.2304773
  16.1572456   3.9077673  79.7575607  16.6381721   3.4758048  80.4634933
  16.1957111   4.8388405  79.9763107   3.2596667  30.3285770  46.2177467
   3.2830389  29.5568352  46.7835197   4.1616535  30.4302101  45.9139023
  36.7926216  64.5696869  87.8894958  36.3825302  64.6342545  88.7519836
  36.0586014  64.4847183  87.2810364  16.5227909  15.8223763  19.2719097
  16.8447971  16.4917183  19.8756676  16.0790787  15.1867743  19.8334808
  22.9474487   3.4169955  40.7622032  22.0309772   3.4221160  41.0384026
  23.1343899   4.3279939  40.5355644  73.5176697  60.0122604  74.9535294
  73.0022736  59.5518684  75.6158295  72.9556274  60.0249634  74.1788177
  12.8966417  21.0525551  39.2564316  13.2201223  20.4804287  38.5605431
  13.6551447  21.1927204  39.8232307   8.4051208   3.6220152  72.8201828
   8.5815744   2.7155769  73.0721054   7.4702787   3.6359255  72.6149826
  82.2581558  62.6259422  63.5099220  83.1688156  62.4057922  63.7060623
  82.3143387  63.2745247  62.8081970  38.3786316  23.9155598  36.8071632
  38.0134621  23.9354477  37.6917458  39.2625961  24.2695045  36.9049454
  66.3179703  47.6184769  46.3016357  67.2127304  47.3131752  46.1518784
  65.9516525  46.9904366  46.9242210  14.2677727  27.1124611  39.2560005
  14.1496239  27.2789078  38.3208160  13.4741316  26.6460857  39.5184097
  54.8516312  42.8238373  31.4311199  54.9046021  41.8970222  31.6644497
  55.3622017  43.2704086  32.1064911  63.6766472  39.5570869  65.5269165
  62.7462807  39.6713295  65.7208176  63.8106689  38.6095047  65.5459061
  38.8978767  31.6140575  82.8705444  39.5991669  32.0207291  82.3615799
  38.6041527  32.3029366  83.4666977   7.4419861  27.7883816  82.9769058
   6.7926841  27.3442402  82.4315872   7.3505464  28.7142982  82.7520752
   3.9095085  41.4087296  60.1593895   4.4932737  40.6597366  60.0391502
   3.4657466  41.2356682  60.9896660  43.9485359  36.9960327  71.9589920
  44.7530746  36.4778595  71.9802399  44.1729889  37.7655182  71.4357834
   8.9121656  10.5013018  40.4373741   9.4171686  10.2157764  41.1987419
   8.0167189  10.2195606  40.6245346  79.2579803   7.3246450  68.1328964
  78.4889374   7.8661461  67.9551773  79.2313766   6.6430721  67.4613495
  84.5411148  62.0321350  39.8979759  85.1101456  62.7993889  39.8366470
  83.7672577  62.3447189  40.3666573  18.8515434  60.3773651  74.9520721
  19.1658859  60.3342896  74.0489883  18.9043827  61.3055153  75.1800537
  44.4675598  40.4023590   4.3222933  44.3577614  40.5992546   5.2525673
  44.1078682  41.1664314   3.8716803  14.7652311  46.9572220   5.0124187
  15.3408260  47.1070824   4.2624435  14.2180052  46.2169418   4.7501965
  80.9888229  39.1595726  27.2526474  81.0449066  39.6634026  28.0645828
  80.7405548  39.8025551  26.5884438  36.5039444  39.0710220  43.7132263
  36.0924797  38.2676125  44.0317497  35.8132248  39.5151367  43.2213936
  85.0056000  28.9067173  25.7855473  85.8076401  29.1184940  25.3079319
  84.3552399  29.5215359  25.4460487  53.0328979  64.1560669  57.4636078
  53.3415871  64.9190063  57.9523544  53.6059151  63.4430771  57.7456055
  75.2677689  32.8843498  11.9783792  74.5410690  33.2159042  11.4509296
  75.2609100  33.4294739  12.7651596  12.1481724  19.6165123   0.3899342
  11.8258286  20.0547733  -0.3976268  11.4103184  19.0837784   0.6865790
  80.1513748  64.6852341   6.1916862  79.7084656  64.1440735   5.5380726
  80.7389908  64.0806046   6.6448603  11.3571463  46.7552986  41.7174797
  11.8646812  47.0461731  42.4751282  11.6114111  47.3535652  41.0148735
  85.5375443  48.4637985  48.0880890  85.1380005  47.6381302  47.8144722
  85.9847412  48.7845955  47.3049316  52.6312637  30.6303158   4.9681005
  52.9450645  30.8038902   4.0806141  53.4278870  30.5558128   5.4935284
  35.2343559   4.9768820   7.4507804  35.9078598   4.7677317   6.8035707
  35.6329994   5.6500220   8.0023203  85.5414200  30.9908543  30.1115303
  86.1734009  30.6367588  29.4858723  86.0511322  31.1414013  30.9076233
  33.7006760  32.3226357  24.3343582  33.5802803  31.3784904  24.4359703
  32.8403587  32.6958199  24.5262489  27.9124756  59.6440468  74.9807663
  27.4375305  60.3260040  75.4557343  28.7381744  59.5518494  75.4561081
  47.6040955  23.8645725  16.2908096  48.2705650  24.0932388  16.9387035
  47.9597359  23.0976734  15.8417883  28.1459084   6.7641730  39.7571564
  28.8002014   6.0663805  39.7222328  27.3901386   6.3626118  40.1858635
  82.2863388  34.8287086  12.8340960  82.0166321  34.5146561  11.9710426
  82.0374985  35.7529716  12.8411751  60.6286507  62.9265976  21.5889301
  61.4911270  63.3415680  21.6016998  60.2194824  63.1992683  22.4101887
  61.4266167  12.8095646   7.9160867  62.0257607  12.8619413   8.6607428
  60.5544777  12.8017426   8.3104792  30.4312038  28.0354500   5.1783781
  29.8079872  28.7130413   5.4404893  30.8273582  27.7438316   5.9995074
  17.2088966   5.9369302  87.5931320  16.9554787   5.0592918  87.3071899
  17.0506840   5.9362655  88.5371704  63.7594795  60.5261688  51.8218498
  64.5941620  60.4698868  52.2870102  63.1872368  61.0132484  52.4147453
  14.4170008  24.0781422  57.8857384  13.7824087  24.7639084  57.6777763
  14.4484320  23.5342426  57.0987091  82.1769562   3.4755771  53.1557121
  82.4088058   2.5840106  52.8957405  81.9607773   3.9161444  52.3338852
  85.7615433   3.6017733  58.1177826  85.9146423   4.2676477  57.4474068
  86.1792984   2.8130991  57.7718010  69.1372833   8.1902294  20.3347301
  69.1883469   9.0106392  20.8251915  69.6245651   8.3621531  19.5289783
  85.0996399  49.6284409   8.9740915  85.2511673  50.0444450   9.8227425
  85.4869843  48.7575073   9.0617094  77.1619492   8.9331341  65.8500977
  77.0149765   9.3836432  65.0184250  76.6685791   8.1167307  65.7707062
   8.3645821  35.5554466   6.7032890   8.8756313  34.9137306   7.1965036
   8.9732141  35.8918915   6.0455627  58.9129791  42.0834732  19.8850899
  58.9354134  41.5140762  19.1159897  57.9808846  42.2089844  20.0630684
  46.7510872  57.0764847  57.0142136  46.7508888  56.9198990  56.0699081
  45.8244972  57.1299248  57.2483292  57.5798073  19.5348568  58.3484802
  56.7515526  19.1119251  58.5750847  57.4296417  20.4641018  58.5222206
  14.6527128  52.4849510  43.7483864  14.4557762  53.0966339  44.4578209
  13.9158669  51.8739777  43.7474670   6.1171007  55.7736015  65.8861008
   6.0648494  56.4327431  66.5782242   6.8272862  56.0762978  65.3201981
  25.7738819  13.4543610  32.2975769  26.3366680  13.4319305  33.0715294
  25.3654804  12.5890007  32.2732506  74.1947250  68.5345001  64.1611481
  74.4532013  67.8493423  63.5447197  74.1859055  69.3362122  63.6382599
   7.6763806  28.8763924  87.8551788   7.2377400  28.7459030  88.6958923
   7.0610909  29.4009857  87.3428802  59.1425438   6.0081339   7.6875920
  58.7247925   5.4560108   8.3485556  58.6797562   6.8439555   7.7464213
  72.5073242  32.6072044  77.9151611  72.2065964  32.9863358  77.0892944
  73.4261856  32.3896713  77.7583160  49.7918434  54.4117508   9.0680246
  50.1452980  55.1471176   8.5674896  50.4763336  54.2038918   9.7040291
   7.5810385  66.4215469  11.1092653   7.3077927  65.6295090  11.5721312
   6.7931042  66.7157898  10.6523018  32.7351646  54.5539207  80.6511459
  31.8778343  54.6613731  81.0630493  32.5377312  54.3452377  79.7380676
  47.2467613  65.8593369  88.2096252  47.2176285  65.4066086  89.0524902
  48.1706390  66.0774307  88.0867004   0.6632717  11.6942081  41.5292854
   0.6545572  11.5164051  40.5887833   1.1289297  10.9493628  41.9095497
   2.6098523  55.0474892  11.4722919   3.1658854  55.8237724  11.4056330
   3.0775523  54.4688721  12.0745277  48.6047287   1.8749379  63.1728363
  48.5167122   2.2380936  64.0540848  48.3234215   0.9641597  63.2599106
   6.4449654  71.0144730  18.6249561   6.6567607  71.7620773  19.1839390
   6.3959889  71.3816299  17.7423286  19.7513390   1.9584755  85.9021149
  19.7506847   2.8387809  85.5262222  20.2252522   1.4257145  85.2635193
  60.4205933  30.8705826  25.3182468  60.2076454  30.9148045  26.2504101
  61.3484268  31.1015282  25.2733059  20.3203697   0.4525424  49.4330902
  20.8172131   0.2031104  48.6538849  20.9881592   0.6557828  50.0880585
  26.4420300   6.1150241  32.1345253  26.4272366   5.8227520  33.0458908
  27.1815567   6.7210684  32.0893288  22.8515167  63.1234779  30.1421871
  23.1830444  62.6241913  30.8885345  21.9605465  62.7982559  30.0132160
  77.2491150  47.2834396  77.5031509  77.2836151  48.1640854  77.8766556
  76.3920517  46.9461555  77.7637558   6.6666436  60.9656830  81.7861176
   6.2956023  60.3128891  81.1924667   6.3542457  60.7061958  82.6528931
  15.2171707  16.9156475  71.9899216  15.9759941  16.4172764  72.2933121
  15.2220440  17.7090549  72.5253830  57.6090775  51.8663177   1.1414479
  57.7912483  52.4998550   1.8354757  58.2691536  51.1835251   1.2611353
  59.3896751  49.8086090  70.8407059  58.9961586  49.1635208  71.4282761
  59.3568306  50.6302719  71.3306274  20.8078213  22.4514160  12.1477165
  21.1257439  23.3190784  11.8980837  21.5472088  21.8675652  11.9784403
  11.8511333  57.4859390  42.7090988  12.5994339  57.0062637  42.3538704
  11.1286869  56.8586960  42.6796188  72.8356628  12.6212053  72.7613907
  73.5657196  13.1024094  72.3719101  73.0437851  11.7004976  72.6026001
  56.8935394  40.1397934  74.7593307  56.6728325  39.8415260  73.8769760
  57.2685356  39.3692665  75.1858215  18.5822182  51.2286148  84.7328796
  18.9686069  51.6946983  85.4742966  18.2261982  50.4258881  85.1138229
  49.4839249  56.1285858  16.4099903  48.6727638  56.4737206  16.0369873
  49.8070068  56.8320847  16.9729633  18.5501919  46.7043076  36.6003418
  18.5478783  47.5105019  37.1163635  17.8585510  46.8333588  35.9513359
  10.1088495  54.9127312  45.9537582   9.4359207  54.6318665  45.3336678
   9.9684219  55.8547554  46.0491905   5.3417730  13.4270868  46.0546265
   4.6737170  12.9523325  46.5491371   4.9246426  13.6231165  45.2156944
  49.3315697  34.6726990  21.6957970  48.8818779  34.1679916  22.3734989
  48.6498337  35.2296333  21.3199100  63.8355713  12.2672892  79.6036835
  63.8725853  11.3168440  79.7109909  62.9031944  12.4778938  79.6541824
  77.8183823  29.4333019  69.5002975  78.1979218  29.5925198  70.3644867
  78.5741196  29.3150501  68.9248810  74.0199127  13.1621838  83.8507156
  74.9563904  13.1934090  83.6551056  73.6862717  12.4454641  83.3110580
  42.3673553  33.9767570  74.9621658  42.2565231  34.8407974  75.3588791
  41.4756355  33.6817627  74.7776413  71.7907715  29.3045502  67.9707794
  72.3288727  29.1101055  68.7381592  71.1544876  29.9486656  68.2814026
   0.7531765  28.1592827  61.9548035   1.2684972  27.9408264  62.7313042
   1.1479422  27.6427441  61.2522507  16.5937786  32.8053207  37.6504211
  15.7812424  32.3097343  37.7524338  17.2581253  32.2673492  38.0810699
  80.6029587  61.0590515  23.7574005  81.4560547  61.1080284  23.3260555
  80.3662415  61.9713745  23.9243221  44.4619217  27.3214302  34.0061111
  44.7984161  27.9281998  33.3466949  43.9277458  26.7009392  33.5102463
  67.5701218   3.7338173  86.6470795  68.4739761   3.6068630  86.3587036
  67.0389633   3.3956070  85.9261703  62.2218475  37.4208832   4.4306288
  62.6551399  38.2719498   4.4952393  61.3799744  37.6115227   4.0169377
   9.5353594   6.4511786  32.2643280   9.0617161   6.7781258  31.4994774
  10.4381495   6.7385368  32.1278496  64.0342026  11.0904474  65.5097275
  63.6032410  10.3314114  65.1168365  64.8266830  11.2130814  64.9870758
  81.7223663   5.0306139  47.2881737  82.0809097   5.2655840  46.4323273
  80.9635391   4.4826827  47.0877190  86.3899689  68.5441895  67.1857834
  86.3129272  68.4350662  66.2379532  87.1833801  68.0620270  67.4186859
  16.0395317  61.4758301  12.2902174  16.7440872  60.8513298  12.4629478
  15.2532082  61.0503998  12.6321764   7.0124102  66.0801544  48.7049408
   6.8413143  65.2361603  48.2870560   7.9665012  66.1287537  48.7647705
  48.2242813  62.8962860  77.8124084  48.9071503  63.2172394  77.2234192
  47.5269585  63.5489159  77.7488174   2.5390556  44.0148964   9.8768482
   3.2519875  44.0497513   9.2390823   1.9543616  43.3333168   9.5454664
  50.0967102  41.5707397  18.1236610  50.6358566  40.9151726  17.6811867
  50.6337891  41.8658485  18.8589802  79.2959671  46.5005531  86.3129044
  78.4983597  46.5560188  86.8391953  79.6013870  47.4051628  86.2448349
  50.6404800  37.5244255  28.2160683  50.4066620  36.6417580  27.9289169
  49.8238182  37.8897858  28.5563717  38.4523354  71.0694885  42.1396561
  37.7905045  71.7580795  42.2033463  38.6928253  70.8837357  43.0473404
  34.6718254   9.0445309  11.7297354  34.7188110   9.7931643  12.3243542
  35.5674324   8.9362402  11.4097481  79.0694885  47.2593079  32.5309753
  78.1687775  46.9364395  32.5573235  79.0628052  48.0339165  33.0932617
   3.0020854  56.0983887   0.4921212   3.0026956  56.5088005   1.3568720
   2.4013755  56.6335182  -0.0265456  63.6829109  22.9380226  74.4692078
  63.9683800  23.8486271  74.3947906  63.8051491  22.7235146  75.3940201
   5.8068714  11.7092505  75.3103180   5.2473297  11.4529009  74.5772247
   5.2527637  12.2748241  75.8482056  58.8300018   8.6809483  41.5960846
  59.2926140   7.9254560  41.2335167  58.2251740   8.9465008  40.9033394
  70.5187683  55.0732346  19.4161224  71.3716507  54.8134079  19.7644176
  70.2590942  55.8222694  19.9525433  79.8975830  53.0835342  28.0534286
  80.4215851  53.8214798  28.3650188  80.4976959  52.3380966  28.0738697
  77.5331192  50.2245369  71.9681931  78.1421509  50.9544678  72.0800476
  78.0837631  49.4942970  71.6857452  12.6443081  20.8470917  33.3435287
  13.4066849  21.2767429  33.7313614  13.0090847  20.2779465  32.6658554
  36.2105713  22.4963894  82.4156113  36.1361275  23.4320469  82.6033249
  35.6964226  22.3704567  81.6181030  37.2995186  55.0527306  54.7211113
  36.9699287  54.8034554  53.8577080  37.5220032  55.9796410  54.6341019
  56.0610085  15.3492537  79.2484131  56.7078934  15.7392635  78.6604767
  56.1253853  14.4083052  79.0849991  37.3450012  66.5295029   3.0407774
  37.3732262  66.1465149   2.1639881  37.0520020  67.4297485   2.8995936
  32.0371056   4.0810585  56.8828545  32.2096481   4.6558309  56.1371346
  32.1753807   4.6362715  57.6502190  77.9866104  11.5004921  85.3615112
  78.4955673  11.6213264  86.1631317  77.5161514  10.6781664  85.4981689
  13.6047325  53.5845718  20.9583263  13.6513882  53.5092201  20.0052376
  13.0835457  54.3727798  21.1110420   8.9133673  34.1715202  21.5931244
   9.3080444  33.4787064  21.0635300   9.0350180  34.9674301  21.0754738
  56.6424141  26.6093159  19.7958202  56.3547173  26.0390625  20.5087528
  56.1901970  27.4378986  19.9545155  70.0049820  45.9677277  72.8844681
  69.7929688  46.0813789  71.9579926  69.8510208  46.8289566  73.2728119
  16.4625378  55.2068710  47.9730072  17.3713913  54.9972191  48.1880951
  16.5187511  55.7118378  47.1617851  38.8421516  23.9711056  18.3354282
  38.7982254  23.7295017  19.2605934  39.0030365  24.9146671  18.3416691
  32.0477448  62.2434273  54.1398392  32.2542915  61.3179398  54.2703857
  31.6788330  62.2843590  53.2575340  16.6975403  26.9076138  40.8690376
  17.1489697  27.7378235  40.7167397  16.0503273  26.8543892  40.1658211
  15.0669899  22.2043934  33.6764870  15.9640675  21.8749409  33.6222115
  14.9984989  22.8322659  32.9572372  55.4208221   6.7647395  41.4299164
  56.0172310   6.6053252  40.6984024  55.0030441   5.9180117  41.5872307
  50.5884666  27.1788502  15.6855125  49.6966667  27.1419907  15.3397284
  50.8660202  26.2638664  15.7302351  14.1925230  56.3902092  81.3896332
  13.6894770  55.8763657  80.7578583  14.1851292  55.8621025  82.1879349
  51.5543633   6.3979506  34.2125664  50.7379341   5.9417253  34.4163513
  51.2757111   7.2547455  33.8893242  12.7795019  45.5569000  61.6476135
  12.8270550  45.5010719  62.6020012  13.4105911  44.9072342  61.3379478
   9.8816166   5.1848140  34.8651505   9.5315418   5.5425582  34.0492439
  10.8277493   5.1490250  34.7244949  66.1730576  42.3561096  45.2089577
  66.0745163  43.2929344  45.0390167  66.9907913  42.2867775  45.7016449
  28.4845524  58.9548912  20.3799858  29.2196751  58.7185783  20.9456558
  28.4914799  59.9119568  20.3655148  80.3471069  48.3287163  25.7242184
  80.1564941  47.4862289  26.1366711  79.8017578  48.9563789  26.1984158
  83.4654312  52.6620560  10.7525473  82.7618484  52.5052528  11.3823252
  83.5185928  53.6154060  10.6852760  15.4154358  67.4742279  32.2480888
  16.0115337  67.8873215  31.6233826  15.5639763  67.9450531  33.0681458
  53.9938126  71.4114227  60.5661964  53.6222496  70.6053391  60.9245338
  53.7648163  72.0857315  61.2058105  16.3451538  59.2561569  75.4869385
  15.9951038  59.8758469  74.8468781  17.2863388  59.4301186  75.4988098
   6.4245491  34.9398956  58.1407623   6.8448467  34.5702171  58.9172401
   7.1012053  35.4844704  57.7385101  54.0974770  55.1660767   0.9434242
  55.0495491  55.0856934   0.8857154  53.8879051  54.8944244   1.8370221
  69.9620132   8.5321398  17.8118324  70.7576294   8.4861155  17.2816315
  69.2633133   8.2532520  17.2199879  75.5198746   4.8688273  74.3716965
  74.8040619   4.7248902  73.7527237  75.6388550   5.8185287  74.3836365
  58.4812317  24.9860973  26.4548664  57.7993546  24.4168377  26.0981922
  58.7884979  25.4920750  25.7026653  36.8783188  12.9860849  39.1896324
  37.3661003  12.2225170  38.8809853  36.0624275  12.6250010  39.5362892
  57.4725647  17.2427521   0.3698984  57.6769600  17.6708622  -0.4614728
  57.4866028  17.9508972   1.0137659  40.7496223  44.0432472  44.3343887
  40.8481636  44.1148796  43.3849754  39.8480644  44.3171196  44.5029602
  65.7585144  57.7285118  26.3885937  66.3228455  57.0211182  26.0765724
  66.2268372  58.0954781  27.1384201  77.9139099  18.4881058  72.8004150
  77.2832718  18.7830696  73.4573212  78.6815338  18.2233009  73.3072281
  78.8832932  57.7698402  13.3500233  79.1593399  57.0220947  12.8200150
  77.9854584  57.9448357  13.0680723  50.3473892  51.4038734  85.5734940
  49.9988022  50.7572060  84.9598618  49.6723289  51.4827080  86.2475128
  72.8564758  21.4288406   8.4052782  73.2311935  22.1821518   7.9488363
  73.5264053  20.7487621   8.3351393  34.2566338  52.8834419  37.2868767
  34.1315842  53.8318787  37.2543297  33.5318184  52.5284920  36.7722015
  11.4650612   4.8514237  42.4429741  11.0180302   4.0755959  42.1046143
  11.4585085   4.7362866  43.3931999  36.0821571  13.9979210   9.9223166
  35.8790970  13.0625172   9.9266205  37.0099030  14.0426788  10.1536407
  35.4457092   7.5787377   0.0853862  35.0416107   7.4914079   0.9487005
  35.6872597   8.5030785   0.0263938  30.3597260  37.1249695  79.6393585
  31.0009384  37.8102798  79.8275757  29.9262581  36.9657326  80.4777985
  72.4584503  32.5499687  49.6456146  72.9031372  31.7210827  49.8229218
  72.5337296  32.6642952  48.6982536  44.2234802  65.8601837  67.7956772
  44.3401794  64.9973984  67.3979187  44.1949997  65.6881485  68.7368622
  51.2388763  46.1855316  50.6964188  50.4693031  46.3861313  50.1637421
  50.8806152  45.8996544  51.5367470  45.9297371  50.0813713  54.0513840
  45.0761833  49.7929649  54.3746529  46.2633858  50.6586456  54.7381630
  64.8490829  40.9749184   2.4737065  64.6557770  40.0528183   2.3046162
  64.6593323  41.4152451   1.6452515   5.4470358   6.2968221  47.9742050
   4.8044333   6.8249331  47.5005035   6.1525116   6.9089427  48.1835938
  67.0143661  64.4063034  52.2518425  67.3671417  63.6058197  52.6404457
  66.9149017  64.1979141  51.3229141  32.3553734   2.6448553   3.8569291
  32.4969025   3.5193477   3.4943495  32.5244827   2.7437904   4.7938628
  43.0423775  51.5166817  57.2420082  42.3315964  51.2332878  57.8170776
  42.5995293  51.8873253  56.4786339  53.7854080  31.7993469  15.9798288
  53.1447372  32.1805229  15.3794355  54.0130196  30.9578209  15.5845308
  78.0440140  54.1518021  55.7372475  78.4032669  54.6004105  54.9717903
  78.8049622  53.7553787  56.1615562  65.5436325   9.3072872  24.2229710
  65.5360870   9.8763313  23.4533195  64.6229324   9.0902996  24.3694401
  80.8379059  54.3760681  76.5765457  81.3714371  53.5966072  76.4215698
  80.5831604  54.3128052  77.4970551  61.1050758  12.2641249  52.6304550
  61.6350594  13.0340614  52.4241867  61.4502678  11.5762701  52.0613060
  27.7317867  50.4997559  86.0623932  27.9934273  49.7449989  86.5897675
  28.0593090  50.3037071  85.1846008   6.8946772  30.7502956  30.3483944
   6.3247509  30.1163311  30.7837124   6.3599124  31.1049652  29.6381340
  49.6427498  19.3345547  79.9113159  49.1231041  18.5398540  79.7902832
  49.0653572  19.9273205  80.3924408  33.9581757  45.0279083  77.8283691
  33.0354271  45.1142693  78.0677643  34.2172928  44.1750069  78.1771469
  10.1574583  59.3368187  72.4404221   9.9830818  59.1515198  73.3631821
   9.8186026  58.5724411  71.9744415  58.7591629  27.8640652  59.6570435
  58.9703255  27.1925220  59.0084534  58.7170792  28.6776237  59.1544685
  45.0465088  26.8256340  89.1309433  45.8783646  26.5142670  88.7741547
  44.4220848  26.7153721  88.4138870  83.4677811  37.5044098  80.8428497
  83.4167480  38.3626289  80.4220352  83.4152069  36.8795395  80.1196594
  43.9773636  42.8444252   3.0403302  43.5092773  43.3739166   2.3947542
  44.4223175  43.4834785   3.5969765  45.7301598  47.6418228  33.6678696
  45.7702370  46.8065414  34.1336288  46.4061203  48.1790771  34.0809860
  71.5814972  18.5622406  63.6242065  71.4478607  19.4221973  63.2256508
  71.8533325  18.7538700  64.5217667  27.7138996  57.3495522  87.9861298
  28.0361061  56.7063103  88.6175232  27.5772171  56.8483543  87.1821747
  51.0975952  54.3166389  77.6098633  50.9878616  55.0239410  76.9743195
  50.2941513  54.3350677  78.1298294   4.8622503   6.2208300  12.5802689
   4.1508994   6.1847711  11.9408073   5.3958020   5.4495492  12.3887482
  22.6963558  28.7098560  16.6746941  21.9229393  29.2644100  16.5720825
  23.1414490  28.7606773  15.8287964   7.3326988   5.2383075  88.5956573
   6.8698850   6.0742817  88.5392456   8.0348501   5.3091516  87.9489746
   1.9872617  52.3910637  48.7575302   1.4599034  53.0001984  49.2743263
   2.6466951  52.9426575  48.3366699  64.3196640  36.7017517  25.5116634
  63.8571434  37.3500938  26.0426636  64.9665604  37.2102165  25.0225582
  77.5800858  42.3869781  62.1902351  77.2263489  43.2582817  62.0115433
  78.3815155  42.3422737  61.6687584   2.5852377  42.6098289   6.3397937
   3.4245164  42.9353752   6.6651587   2.1906943  42.1700630   7.0929027
  59.9460526  31.8437729  28.0751286  59.7480049  31.3603706  28.8772087
  59.1119308  32.2389183  27.8214874  50.1690025  71.3815689  35.5718689
  50.9902649  71.1815186  35.1227188  50.3625183  72.1645050  36.0874290
  83.3746262  56.2322464  59.6265793  82.5990829  56.6679192  59.2730904
  84.0967331  56.5531502  59.0863800   3.1954947   4.6663370  30.7882061
   2.5037878   4.1647277  31.2196712   3.3209205   4.2269526  29.9471111
  52.2477379  18.4882488  78.5722885  52.4559212  17.8056583  79.2102280
  51.3355331  18.7149582  78.7531738  14.7912674  60.4363670  60.2495155
  15.4575205  60.2014198  60.8953781  13.9852381  60.5247574  60.7581787
  13.4517164  59.5257607   9.7702608  13.2048531  58.6399918   9.5043507
  14.2273102  59.4040375  10.3178644   8.5594425  55.7935715  74.0046616
   8.9967899  56.4611282  73.4761505   7.7478523  55.6079102  73.5323486
  65.3841171  47.2762566  53.4687195  64.7663040  47.8742256  53.8893929
  65.2201309  47.3826332  52.5316887  21.5268517  54.8079300  27.1459103
  21.0091877  54.0150681  27.0058174  22.4112129  54.4881363  27.3244324
  58.4148979   7.1659193  71.2895508  57.9940224   6.5300651  71.8681564
  58.6748123   7.8819199  71.8692245   8.5109367  53.1848831   2.3336806
   8.0670824  52.4315338   1.9442036   9.3159676  53.2782326   1.8243266
  36.4883194  45.4060631  52.6462631  37.2542992  45.9785233  52.6038895
  36.1840668  45.3456612  51.7407150  49.9837646  21.2546024   7.3609915
  49.3326988  20.5529766   7.3690758  49.8460808  21.7186375   8.1867914
  74.2277679  14.8035192  22.6395130  74.4226837  15.2827892  23.4448318
  73.5392838  14.1868763  22.8884487  42.6958427  31.2971478  23.9179726
  42.1274376  31.7838764  24.5148354  42.0932922  30.7929897  23.3711739
  40.8811226  33.6839714  16.3350048  40.8008804  32.8659706  16.8255825
  40.0997543  34.1832886  16.5724468  -0.1358540  44.5507622  34.3585396
   0.5339631  44.1831932  34.9351425   0.2611732  44.5320015  33.4877663
  77.6447372  53.2870674  37.7518387  77.0968246  52.5424843  37.5035934
  77.4916153  53.3946686  38.6905670  85.5102844  62.0299034  22.5401573
  85.3341293  61.5028801  23.3195457  85.6833420  62.9082222  22.8790359
   9.3435535  61.6094627  22.3760605   9.6506052  62.4726219  22.0987453
   9.9915571  61.3196449  23.0181904  76.4477921  45.5021248  24.8704205
  76.0748825  44.6520729  24.6368046  77.3522568  45.3075523  25.1160088
  82.5726166   6.3709898  50.9459801  82.7122803   6.7076092  50.0608749
  82.1702957   5.5123835  50.8149757  53.6937027   1.0183305  22.9924660
  53.2787666   0.3434965  22.4551983  52.9674187   1.5628719  23.2961330
  51.0713654   1.5867032  25.6296978  51.3894463   0.7572743  25.9862137
  50.3621292   1.8442767  26.2186584   0.2547975  52.7638283  69.6638870
   0.3777222  53.3023911  68.8821716   1.1221659  52.7251015  70.0668793
  44.9133377  46.8622322  65.5579300  45.5690956  46.1650848  65.5437393
  44.0788231  46.4040833  65.6575241  61.6307678  23.5327473  31.0186481
  61.7507439  23.0755081  30.1863194  61.3371964  24.4092979  30.7702427
   7.7927837  28.9630585   4.0401564   7.5284157  28.0777607   3.7899792
   8.3839922  28.8358040   4.7821202  81.4336777  32.9668159  86.9103470
  81.4043198  33.9235001  86.8990021  81.1664734  32.7085190  86.0282364
  69.1207199   5.0649552  11.9032440  68.8330383   5.9765267  11.8531761
  68.7937012   4.6659646  11.0969591  47.5449829  10.7629251   2.8918240
  48.2282829  10.1225166   3.0898426  47.1527634  10.9650764   3.7412531
  26.4769726  64.6296616  50.1597366  25.6431103  64.9009857  50.5435143
  26.4667072  63.6741486  50.2155952  80.2048340  25.2236290  87.5491867
  79.9621429  25.6975956  88.3446045  79.4874268  25.3959618  86.9393845
  22.1246586  42.6543198  60.9950180  22.9427528  43.1271210  61.1480293
  21.4484711  43.3313560  61.0199814   1.0483462  32.5018311  55.0688362
   1.1492144  31.6835518  54.5825462   0.1242359  32.5202179  55.3176613
  80.1378403  54.0590019  79.0900345  80.6867447  54.6164780  79.6415405
  79.9567947  53.2905617  79.6312866  63.2474747  33.6025658  66.7176743
  62.8809166  33.5619240  67.6009750  63.5799141  34.4965668  66.6372147
  16.1523647  67.1875458  84.2267685  17.0121994  67.3410263  83.8351593
  15.9639482  67.9901886  84.7130814  39.6334991  54.5259094  15.4624577
  39.5551224  54.4618797  14.5106230  40.0766640  53.7178917  15.7211857
  16.6425018  55.0546570  34.9912949  17.3267307  54.4080582  35.1644173
  16.0358257  54.6089516  34.4000931  40.2307396  43.8469162  68.0745773
  41.0533905  43.4886093  67.7412720  39.5896568  43.1514320  67.9277802
  27.9596043  55.4241600  36.5935211  27.8270588  55.2835045  37.5310059
  27.7796211  56.3552132  36.4632187  39.9310036  34.1926727  42.9337845
  40.0504570  34.0834732  41.9903641  40.7041321  33.7831345  43.3220863
  85.6303787  46.4685326   6.5544395  84.7141495  46.3837776   6.8182192
  86.0872803  46.7261963   7.3551154  54.7907448  10.2863455  69.6745529
  53.9610634   9.8833685  69.4186707  55.4543762   9.6373711  69.4407730
  69.6884003  55.3973732  88.0423508  70.1876221  56.1783142  87.8032990
  68.7750626  55.6420784  87.8934708   6.7832017  27.2177963   8.9555387
   7.2908525  28.0238819   8.8620062   6.0614591  27.4554615   9.5376339
   1.0269260  15.4512568  77.4465637   0.8592008  16.2682552  76.9768753
   1.3180348  14.8409224  76.7690887  71.6797104  25.7038288  55.5202293
  70.9379501  25.2230778  55.1529388  71.3824692  25.9760075  56.3884468
  63.1510506  31.2511806  79.3609238  62.7725601  30.3729305  79.3202820
  63.5160484  31.3140850  80.2435608   6.7926092  45.7928505  14.7872419
   7.4752593  46.4635162  14.8079748   5.9740081  46.2816086  14.8723259
  73.4079208   7.9590650  20.8732052  73.1598206   8.8299360  20.5629444
  74.3487244   8.0224752  21.0378151  56.1023293  41.7957726  64.7766342
  55.5546227  41.0166206  64.6808853  56.3371887  42.0350990  63.8800888
  21.2468033  10.3989143  10.2750340  20.8282413  11.2367382  10.0773239
  21.9251194  10.6151352  10.9148502  10.5434265  18.4074306  32.0508232
  11.4812393  18.3109474  32.2164459  10.3239155  19.2669888  32.4102745
  56.8753471  24.5811825  13.1581898  55.9281616  24.6313915  13.2868385
  57.2094231  25.4043865  13.5145035  36.2111359  50.3119011  47.9471474
  36.5731087  50.9929123  48.5140953  36.3312950  50.6501198  47.0597878
  77.5707779  36.5442924  70.5876694  77.3010712  35.6937599  70.9341965
  76.7847977  36.8910942  70.1655426  20.0577259  44.8505363  26.6798058
  20.4584999  45.0552864  25.8350048  20.7265587  45.0814705  27.3244495
  61.9462357  33.5029526  72.1380310  62.8592834  33.6919937  72.3544617
  61.6025009  34.3318481  71.8048477  78.2838593  14.6565771  75.9642258
  78.9066238  14.5109863  76.6763992  78.8164139  14.6222458  75.1695938
  19.5623264   5.4987092  22.2570896  19.7936783   4.7209215  22.7647839
  18.7396755   5.8003182  22.6424580  59.5957642  49.4654770  68.1334915
  58.6442528  49.3866539  68.0653229  59.7871208  49.2706375  69.0509033
  46.2157593  54.0858994  56.1125565  46.9878654  54.4783974  56.5200233
  46.1760330  54.4831085  55.2425690  83.0073700  17.4774723  40.5286942
  83.7935028  18.0129070  40.4213104  82.3696060  18.0665207  40.9318199
  29.2898331  48.9022179  10.5745792  30.2068043  48.6320839  10.6238117
  28.8265648  48.2806854  11.1361036  40.6487617  44.5304298  70.6039734
  39.9458008  45.1619720  70.7563858  40.5416527  44.2688942  69.6894455
  73.7129974  13.2694550  69.9340210  72.8279266  13.3348818  70.2926407
  73.6029663  13.4216585  68.9954224  78.9159546  33.7277069  71.2906799
  78.3834991  33.2516632  71.9279404  79.8119888  33.4390182  71.4639359
  48.5702972  20.4079742  62.1933212  49.4952774  20.1664944  62.2416115
  48.3713646  20.7681961  63.0575562  51.2721863  70.7222443  26.9704018
  52.0610619  70.2118225  27.1531086  50.9219208  70.9393158  27.8343620
  19.8059177  56.5419655  52.0957870  19.8981094  55.6326447  51.8114204
  20.4053822  56.6228752  52.8376274  83.4914169  38.4725151  13.4730501
  83.5506439  38.6204796  12.5292120  83.9621658  39.2100983  13.8611231
  66.8665848  17.1609783  38.3836060  67.6865387  17.6534462  38.3465195
  66.1867599  17.8319950  38.4453468  20.0268364   2.9551113  45.8630829
  20.5565834   2.2167280  46.1637306  19.3760490   2.5619364  45.2816010
  67.4529648   4.5375285  83.2936783  67.8957825   3.7687626  82.9343109
  66.5603104   4.4809184  82.9527969  81.2026672  28.0349464  30.3466244
  81.3091660  27.1777210  30.7590027  81.5200882  27.9114914  29.4520664
  62.4731789  29.9848385  30.5129375  62.6497841  29.9992676  29.5722809
  61.7061539  29.4194927  30.6039829  46.9267960  47.7027702   3.1158569
  47.5577660  47.4727249   2.4338100  46.0720367  47.5719452   2.7053673
  72.7544556  51.3280754  88.1692047  73.4000473  51.9675903  88.4699631
  71.9582291  51.5453758  88.6540070  41.5306664  37.8287697  78.4913635
  42.0907402  38.5800667  78.2961655  41.9251747  37.4311867  79.2675858
  36.7906685  10.2073832  59.5991173  36.6429138   9.7161808  58.7909584
  36.4541168   9.6375532  60.2906799  78.5297089  60.9629402  34.9560814
  77.9558563  60.8799362  34.1944771  78.8331528  61.8703804  34.9295731
  31.2014561   2.7704723  87.3966980  30.4492722   2.6844532  86.8109894
  31.0564899   2.1074293  88.0716705  13.5874710  33.8658447  50.6688385
  13.4561319  34.1254044  51.5807686  13.3030148  34.6252670  50.1603165
  62.7860527  25.6458473  14.2379980  62.9170303  25.1647224  15.0550623
  63.5853195  25.4871025  13.7358036  10.1886244  45.9769096  19.7781296
  10.3018303  46.7815018  19.2721195   9.5676737  46.2127838  20.4673424
  19.8126602  41.7312279   8.7401552  19.1562748  41.6404495   8.0493956
  20.3870754  40.9741402   8.6257143  60.5412064  14.4851770  64.8418274
  61.0777588  13.7068825  64.9921722  60.5114136  14.9234800  65.6922607
  68.2080002   9.7180233   2.6180787  68.2271347  10.3674889   3.3209729
  68.2128448  10.2360153   1.8131613  66.8474579  54.5406227  41.5686684
  67.1911774  55.0097580  42.3289299  66.9250259  53.6157379  41.8027573
  19.7392616  27.1976414  31.7037907  19.2080002  26.6778622  31.1006126
  19.1588821  27.9046440  31.9858131  63.5604782  56.4272881  67.7771683
  64.3752441  56.9260788  67.7172470  63.3069077  56.2725410  66.8672333
  67.3601685  52.7857666  82.6544800  66.9043732  53.6268005  82.6883163
  66.6954880  52.1429901  82.9020233  -0.0647574  70.8237305  76.8439713
  -0.1044777  71.1130829  77.7555237   0.8635749  70.8755035  76.6164780
  65.2277298  32.7498703  68.8192749  64.4671097  32.8792419  68.2527466
  65.0746841  33.3331642  69.5626297   5.1299138  16.5161514  44.6835785
   5.5165348  16.5702801  45.5575523   4.6948185  17.3599606  44.5614738
  32.8836670  53.9014473  51.5179787  32.1780624  53.2837334  51.7097740
  32.4455605  54.6438255  51.1018486  74.9519348  69.3981094  66.6049042
  75.8402328  69.0439377  66.6463013  74.5489349  68.9479065  65.8625183
  64.2320175  52.8923721  55.6104126  64.6552048  52.0841064  55.3208427
  64.8652039  53.2945023  56.2050552  22.6570625  65.8135834  22.1030350
  22.0709438  66.0853806  21.3967590  22.2230721  66.1115646  22.9024677
  17.5858612  27.4492779   2.2751670  17.3150120  26.8517437   2.9721782
  17.8832207  28.2344284   2.7348928  60.2243385  56.3781776  82.0195007
  61.1401939  56.4855003  81.7627487  59.9793282  57.2250061  82.3924332
  32.6806908  50.7097130  60.0691109  31.7809830  50.4762573  59.8405228
  32.6148834  51.5951347  60.4267883  82.5350723   0.8119713  52.1088905
  83.2015152   0.4284720  51.5387955  82.0637283   0.0594118  52.4662704
  72.2792511  36.4441833  77.9255981  72.9595566  37.0081673  78.2934799
  72.6912766  36.0381088  77.1629944  40.6723022  47.9434242  11.4670963
  41.4318848  47.6755638  10.9498720  41.0015945  48.6426086  12.0318441
  19.0660915  59.0285873  44.7960510  18.2036400  59.2155571  45.1667976
  18.8906517  58.4256058  44.0736465  66.1266174   8.7590227  74.6702728
  65.8791428   8.6025763  73.7589493  65.3429413   8.5365210  75.1728439
   8.1224403   8.4407930  10.8876390   9.0124340   8.6624126  10.6137257
   7.9692078   8.9803495  11.6632872  33.1815834  17.9290638   9.0962925
  33.7352982  18.6637497   9.3606176  33.6852798  17.4821396   8.4160137
   5.7415171  17.0234776  28.7122879   5.6211476  17.4776840  29.5462189
   5.8566108  16.1045990  28.9544601  20.1786633  56.8458023  10.1705656
  20.5856514  56.6908150  11.0229578  20.9048748  57.0997391   9.6010361
  54.7920799  52.7140007  79.4521255  53.9770317  52.4742622  79.0111542
  55.1797829  51.8777161  79.7100983  79.2644501  58.4567719  49.7639656
  79.8185349  59.1906090  49.4980659  79.8479843  57.8841286  50.2617607
  12.6350489  50.5305214  66.9946060  12.9458876  49.7130470  66.6055679
  12.4330645  50.3023376  67.9020004  38.8582993  59.6637459  59.5298996
  39.4211807  60.4257088  59.6670341  38.3762360  59.5710869  60.3516426
  64.6306534  22.0844994  23.6477013  64.3940125  22.2013321  22.7276020
  64.7278824  21.1379433  23.7516747  44.5324097  40.8075333  35.1591072
  44.9335289  40.5024185  34.3453255  43.8173485  40.1916885  35.3192711
  14.3921309  41.3335152   6.1897521  14.5379581  40.4829941   6.6039724
  15.0890903  41.8910332   6.5356631  31.8556938  34.7777634  16.7951260
  32.6294861  35.2922173  16.5653095  32.1721649  33.8754272  16.8383484
  25.6924381  22.2241039  10.9980536  26.1923752  22.6890907  11.6689339
  26.3535061  21.7556229  10.4884014   3.5447631  29.3164711   3.1607683
   2.8403084  29.3587055   2.5140908   3.2316182  28.6925449   3.8156631
  56.7054825  38.3037186  67.3118820  57.2280960  37.8976593  66.6203461
  55.8448792  37.8918037  67.2348938  28.7818565  36.5018730  25.0893536
  28.9112720  36.0354843  25.9151630  28.4758492  37.3705025  25.3502636
   9.8480444  64.1033478  74.0882416   8.9450369  64.3050156  73.8430099
  10.3796854  64.5296402  73.4160309  58.6064186   6.9918742  27.1032639
  59.2269592   7.6522126  26.7948589  59.1497955   6.2326655  27.3143940
   5.9220719  28.1501865  63.5805702   6.0906734  27.7915497  64.4518814
   5.9426417  27.3892365  63.0002556   9.9724855  44.4378853  88.2768021
   9.1348095  44.0172615  88.4707260  10.0918436  44.3112793  87.3355484
   8.2931995  33.6586800  41.7856293   8.3272619  32.8930588  41.2121353
   8.1744490  33.2954636  42.6632385  82.6511993   6.0636759  59.1202774
  81.8234329   6.4813819  59.3581123  82.6556396   6.0686164  58.1631012
  32.8375320  51.1334915  14.1401262  33.2386703  51.8450165  13.6410732
  31.9023304  51.3375168  14.1386909  63.9670753  23.4010048  37.1770897
  63.7572670  23.4733524  36.2459717  63.1481209  23.6141968  37.6244087
  21.6395702  59.6446915   7.6314297  21.2465820  59.8731003   8.4738197
  21.8905392  60.4852676   7.2484403  42.1250420  63.7503319  73.4254227
  41.5973358  64.4685516  73.7745895  42.9458466  63.7958221  73.9157715
  82.0005341  20.5901699  87.5156021  82.6020737  21.0094948  86.9003372
  82.1629715  19.6529751  87.4083023  84.5920486   3.3596940  41.5982780
  84.7651367   3.8235674  40.7790756  85.0781555   3.8521156  42.2596779
  52.1749306  46.8944016  78.0852814  52.5384064  47.7613335  77.9048691
  51.3855667  46.8486366  77.5457993  76.4017181  56.2478638  42.0847321
  76.4668045  57.1340904  41.7289238  75.8752365  56.3463440  42.8780518
  85.3860779  35.1445160  27.6394882  85.8192978  35.3391914  26.8084316
  85.0712891  34.2459641  27.5407734  59.9967270   0.6230963  72.6361008
  59.4370728  -0.0981674  72.3483505  60.0938644   1.1751311  71.8601761
  41.3281555  59.8220062  77.9754639  41.9033585  59.0791779  78.1587143
  40.5412064  59.6487198  78.4921036  53.6405029  11.0664101  80.1376953
  53.5872917  10.5586653  79.3280106  53.5485229  10.4165268  80.8344193
   7.0259352  11.1932955  65.6694107   7.6137171  11.4587135  64.9620972
   6.8149047  10.2800131  65.4754639  81.9106064  68.6590118  69.2860489
  81.1366501  68.0996933  69.3522797  82.6320648  68.0513229  69.1234436
  19.0713978  44.8599854  32.0108223  18.8528709  45.7487411  32.2911682
  20.0163689  44.8819847  31.8599033  67.5686569  58.4875793  49.1708221
  67.9360352  57.6521683  48.8821144  67.7361984  58.5100861  50.1129761
  16.4206696  31.0884399  22.4619522  17.3038769  30.9086456  22.7842102
  16.4820385  30.9668350  21.5144939  49.2914619  42.6685410  77.1967926
  49.8037567  43.3792267  77.5824203  49.6781158  42.5369720  76.3311005
  34.8018036   9.3644619   5.4842000  34.4456711   9.9048204   6.1894760
  34.2692642   8.5692272   5.4995074  66.1190033  55.7099457  71.3906250
  66.2860489  56.6309433  71.1904068  65.2099304  55.6909180  71.6897049
  83.8328705  35.8400459   6.7807250  84.3630066  36.6367607   6.7598486
  84.1994705  35.2902069   6.0882578  69.6648026  11.2667150  83.6995010
  70.2029037  10.5207157  83.4346237  68.7967682  11.0736895  83.3452606
  35.3416901  64.5687943   1.0089283  34.9657288  63.7300072   0.7418788
  34.7579689  65.2249680   0.6282102  16.0744495  63.8882751  24.3967304
  15.1390276  63.6979828  24.3259907  16.1120262  64.7932892  24.7062016
  60.4753799  61.6107941   9.2031431  60.5514221  60.7294884   9.5688620
  61.3039970  61.7524605   8.7453699  24.0907784  27.7517204   0.2536090
  24.0240803  26.9561920   0.7817357  24.3796844  27.4450874  -0.6058917
  21.5284939  66.7957458  12.0871782  20.6350727  66.5393295  12.3158236
  22.0834160  66.1632004  12.5434389  33.6636696   4.4142551  23.1393967
  34.5590286   4.7455235  23.2088680  33.2068558   5.0679040  22.6099701
  61.3994255   8.7620296  31.8617897  61.5272446   8.7960024  30.9137707
  60.4544640   8.8588781  31.9796848  25.7022228  61.1347809  16.6588440
  26.5103264  60.6422272  16.8023529  25.4892387  60.9825516  15.7381401
  57.7446022  23.2777290   1.1800188  56.9374771  23.7894077   1.1255546
  57.6695938  22.7992344   2.0056386  17.2006817  61.5953941  52.1415787
  17.8794994  61.1278152  51.6549492  17.6703320  62.2951126  52.5955048
  14.4841814  16.9327316  64.1988144  14.3375120  16.1728745  64.7621384
  14.8152142  16.5635605  63.3800545  11.1794672  63.5453644  17.1303940
  10.3475914  63.1811790  17.4330215  11.5141029  62.8962784  16.5115719
  37.5798874  48.0915031  13.2756567  37.1711311  47.9370461  14.1272974
  38.4082565  47.6137009  13.3173895  16.8547955  64.6341095  73.5526352
  16.2578773  63.9618988  73.8813477  17.2952194  64.2209244  72.8099823
  34.6082039  43.9655991  69.6044922  35.0330620  44.7542419  69.9417877
  35.3005676  43.5043869  69.1310501  85.8278732   5.5619774  39.9634933
  85.8977585   5.6616797  40.9129181  86.6668854   5.8769102  39.6271896
  42.9195213  52.9468079  40.8999443  43.2824821  53.3785515  41.6733055
  42.8174667  52.0318985  41.1621590  77.2100601  28.2679253  33.0132294
  77.8562012  28.8316231  33.4386368  77.7274246  27.5656548  32.6190491
  10.8545399  20.5639572  13.8866434  10.8043156  19.7290382  14.3520679
  10.6577139  21.2220192  14.5533104  31.2891216  56.5294037   3.9346523
  31.1178474  55.6158714   3.7058504  31.7127228  56.4862328   4.7919335
   4.3658810  45.3741837  81.9447861   4.2060628  46.1802788  82.4356003
   4.0614367  44.6762466  82.5248032  60.4041595  22.3892822  75.8812485
  60.1786499  23.2640266  76.1977921  61.3053894  22.2536430  76.1738586
  29.6054115  14.7708521  22.2242031  30.1402092  15.0679922  22.9603634
  28.7272472  14.6699514  22.5914612  45.8286934  62.8234177  31.1038113
  45.7099724  62.1725655  30.4120560  46.3577919  63.5102654  30.6981926
  57.7086220  17.5258064  45.9055519  57.9170418  17.0293140  46.6969337
  58.1361160  17.0413284  45.1993217  23.5573826  59.9794884  31.9288540
  24.1448040  59.3326302  31.5380268  24.0796261  60.7803459  31.9749069
  65.3109665  23.7017651  29.9908085  65.3229828  22.9915543  29.3491783
  65.9751434  23.4545212  30.6342182  65.7753677  64.5732880  23.6818962
  65.2671509  64.4383011  22.8820686  65.7112122  65.5133057  23.8506508
  32.8265076  53.4259071  60.8337555  32.2886505  53.6452065  61.5945740
  32.8787537  54.2408867  60.3344460  83.1587982  19.8992252  20.6308060
  82.6469955  19.3455772  20.0410976  82.7814789  20.7727642  20.5269318
  73.0752411   9.8476334  72.3045120  73.7394409   9.3477955  71.8299179
  72.3247299   9.8726139  71.7109222  38.4425621  56.8671265  86.0213165
  38.4678726  55.9306107  85.8250351  39.2540474  57.2119522  85.6487350
  81.3904724  33.9787254  52.9450340  82.0419922  33.5343819  52.4025230
  81.6289978  34.9044266  52.8958778   4.3168583  39.3616219  39.0677338
   4.0868540  38.6695175  39.6876717   4.9908237  39.8715019  39.5172043
  80.7727356  67.8301315  52.7758217  80.4708176  67.6298828  53.6618118
  81.3627777  68.5756454  52.8866272  37.0186386  61.8812485   2.8083475
  36.7349548  61.9200134   1.8949734  36.8927002  60.9662476   3.0596352
  77.1774597   4.1282468  51.8760834  77.0496674   3.8925390  52.7949638
  77.2556305   5.0822306  51.8821678   6.2922020  39.6966667  20.8057480
   5.3728232  39.6514320  21.0682907   6.5344515  38.7885666  20.6243629
   2.5180035  63.3560486  42.9709702   3.3559036  63.3715630  43.4334793
   2.1898711  64.2526169  43.0396614   2.6105919  43.5008736  28.8811665
   3.1709378  43.9629745  29.5046291   1.7726073  43.4091301  29.3345947
  73.6911469   6.0182390  45.8125191  73.2600479   5.2015057  45.5608635
  74.6236801   5.8027077  45.8255501  85.3538589  54.8951416  32.8358459
  84.6134644  55.3508644  33.2363091  85.6357651  55.4731102  32.1268234
  74.5190125  41.0300903  26.5970936  73.9165955  40.7106895  25.9253025
  73.9960480  41.6401176  27.1172924  13.9743872   4.4012589  82.3701324
  13.3814268   3.8438282  82.8740234  14.3533459   3.8163362  81.7140198
  81.2216339  59.3766022  63.3178368  81.3700943  58.8921165  62.5057602
  82.0433807  59.8425179  63.4724121  40.0903816  43.1884575  81.3409958
  40.1950912  44.0154152  80.8704529  40.1121864  42.5192451  80.6569595
   5.7132254   4.6662154  18.0383339   5.0999703   5.3874474  17.8970032
   6.5367823   5.0944066  18.2720814  75.9724808  68.6695709  84.3945007
  75.0991211  68.3526840  84.1641846  76.1636505  68.2547760  85.2357101
  52.4587975  28.0142517   3.1844537  52.9309196  27.6457882   3.9311581
  52.9222412  28.8279018   2.9858978  64.9659576  30.0563526  69.9298096
  65.3113403  30.0801010  70.8222122  65.0365372  30.9598064  69.6215515
  17.8704491  42.0875740  62.9798126  17.4018059  41.9890900  62.1510124
  17.5155258  41.3966866  63.5392151  33.5471268  51.8293800  57.3142509
  33.5504494  51.4251938  58.1819229  33.3609467  52.7533455  57.4811440
  48.0882607  61.8258362  34.7860413  48.8995857  62.1283798  35.1940269
  48.3631516  61.4709244  33.9406395  16.0914440  43.9413757  35.0442200
  16.2846699  44.8733253  35.1460419  15.5233784  43.8971901  34.2750778
  30.8280449  58.6470642  21.9229488  30.5202999  59.4176598  22.4001312
  31.5616131  58.3200493  22.4436893  51.5221825  49.0280151  29.8710365
  51.8980827  48.6313133  30.6568851  52.0008812  49.8501511  29.7653427
  74.9733887  46.5588493  17.3458614  74.5664597  45.8587112  16.8355198
  75.6332779  46.9297829  16.7600365  63.1757622  32.6225510   7.1831694
  63.4343987  31.7276249   6.9630690  62.7225533  32.9398613   6.4020491
  62.1792107  11.6845837  10.9781446  61.8703308  12.2183561  11.7102051
  61.4682236  11.0642099  10.8173218  25.0176773  41.9363937  49.3981552
  24.2363472  41.5677261  49.8102684  24.6890144  42.6629524  48.8686981
  22.6400204  17.9709721   7.8726783  22.1170921  17.2337456   8.1877604
  23.3352718  17.5668907   7.3534727  60.8789101  46.9642067   4.3286190
  60.4576607  47.7538071   3.9890418  60.6635361  46.9600525   5.2612653
  34.7902069  33.5337296  20.2530003  34.1128960  33.0116310  20.6829910
  35.5651665  32.9719086  20.2583542  28.8631935  48.7452965  87.9456100
  29.7493706  48.5399475  88.2435226  28.3106289  48.5878716  88.7111893
  31.4271545  54.1097603  63.2547073  31.2897511  53.6958046  64.1067581
  30.5944786  54.5400200  63.0603943  48.2425346  14.7129583   4.9765167
  48.0680122  15.6335468   5.1721983  47.8072739  14.5596638   4.1378984
  20.8614883   9.6477232  34.4223328  21.6329479   9.8315210  34.9583359
  20.3097019  10.4233971  34.5228043   6.4297643   0.2280465  80.0690536
   5.5988088  -0.1992057  79.8612061   6.5328226   0.8946123  79.3898621
  22.1014061  29.5067844  24.8166866  22.5800724  29.1397724  24.0734425
  21.6349773  28.7605419  25.1932468  76.8224945  15.5586500  52.0740395
  76.9590454  16.1752777  52.7933121  77.6906204  15.1930952  51.9038696
   5.8286009  21.4332333  23.7050247   6.6629419  21.3586864  23.2418289
   5.6422729  20.5443687  24.0074043   1.0902761  44.7055817  31.9788837
   1.8239425  44.8098984  31.3730087   0.6067082  45.5290604  31.9134979
  82.5172119   1.5066131  28.7369633  83.2117767   0.9266956  29.0492249
  81.9749527   0.9510036  28.1770668   6.3233118  66.7348328  77.4350662
   6.8133025  66.1321259  77.9944229   6.0309672  67.4274368  78.0275726
  19.1873989  30.3080921  26.5828743  19.3090172  29.7642384  27.3611183
  19.7742443  31.0523605  26.7166882  63.9887466   5.5748820  26.9398556
  64.4382019   6.3927841  26.7271214  63.1501732   5.6364198  26.4824314
  39.2890472  43.9727821  56.1649666  39.6144981  44.4750481  55.4179420
  38.4325218  43.6517982  55.8828926  52.7463493  35.9798508  81.2632141
  53.0968781  36.8174934  81.5660553  51.8071098  36.0355835  81.4391632
  22.0135193  62.6856079  66.6102295  22.0483990  63.6335030  66.4817429
  22.6751480  62.5100937  67.2793198  31.8557224   9.8737373   8.0640497
  32.0938110   9.1641388   8.6607199  32.5380363  10.5328674   8.1914330
  54.1480217  24.9486256  13.6544189  53.5879555  24.3513794  13.1585817
  53.7969971  25.8187923  13.4651527   9.5655279  54.2708626  70.9867477
  10.0653744  53.4805984  70.7821350   8.8707418  54.2919006  70.3286743
   0.0917632  51.2136383  34.4812698  -0.7234154  51.6013298  34.7997169
   0.7577662  51.8783112  34.6569977  57.3393021  11.2144384  31.0587807
  57.7195930  10.3488827  31.2085285  58.0447617  11.8258505  31.2702847
  34.4399910  67.5388260  48.9705391  34.0594749  67.8380432  48.1447639
  34.5245628  66.5911407  48.8658142  47.3644447  26.0091953  29.0552025
  46.4133530  25.9456043  29.1424522  47.5531540  26.9412842  29.1639881
  12.8563299   4.2131624  75.6224747  12.3955822   3.4356842  75.9378662
  13.7384777   4.1323786  75.9851303  69.6761856  34.2489243  81.5193863
  70.5241699  34.4324150  81.1150436  69.1068420  34.0151901  80.7862778
  38.5450706   4.0514393  29.1963387  38.9643135   3.4486370  28.5822544
  37.6958466   4.2453585  28.7995453  35.5076866  63.2560272  85.2836533
  35.9236870  62.6675491  84.6536789  34.6890182  63.5178528  84.8623962
  48.9641495  22.6863670  78.9700851  49.3936615  23.5165386  78.7637634
  49.5153427  22.0221786  78.5562363  21.0711212  62.4669113  87.8244324
  20.9264336  63.1253967  88.5039062  21.4303436  62.9592857  87.0863571
  78.2805023  18.6237526  25.6595631  78.8082199  18.3094883  24.9254093
  78.6904449  19.4509411  25.9124241  59.1577835  54.4328613  10.4954653
  58.9352417  55.3571129  10.6071043  58.6147804  54.1425896   9.7625799
  52.2294006  56.7797623  21.0168037  51.7455940  56.0136566  21.3254280
  53.1500893  56.5342369  21.1077824  46.1467705  57.0065002  29.9696140
  45.4277153  56.4606972  29.6513481  46.5242958  57.3906059  29.1783066
   1.7776852  30.1439877  75.2293396   2.7149940  29.9582195  75.2856827
   1.6467650  30.4448261  74.3301239  39.4142494  46.1200905  87.4257584
  38.4989281  46.1243439  87.7057571  39.3808708  46.3389473  86.4945145
  48.7318344   6.2463131  75.8754654  49.6154327   6.3324261  76.2333374
  48.8077888   6.5557523  74.9728470   0.8055538  40.1772194  29.8884563
   1.0693901  39.5708580  29.1963959   0.1979405  40.7800407  29.4599152
  31.3121414  37.1285095  18.1086540  31.5993500  36.3489532  17.6332207
  31.0847073  36.8067818  18.9810047  22.8565331  36.4896317  56.8032341
  22.7391891  35.8957520  57.5447006  22.5269928  37.3319359  57.1165314
  69.0749741   4.0375204  69.4286118  69.3196411   3.1241345  69.2799606
  69.6477585   4.5367036  68.8464050  72.3962173  16.2348938  42.9836807
  71.8409271  16.9153347  43.3643188  71.8049164  15.7253494  42.4296379
  66.9306870  20.9858589  21.1414356  67.8075180  20.6188869  21.2542477
  66.3405457  20.2486572  21.2979584   0.3707791   6.6552472  11.2946367
   0.0358225   7.4884152  10.9631748   0.1603388   6.0223384  10.6080704
  62.3945198  34.1416779  37.5441246  62.7135811  34.7565498  36.8835487
  61.6045723  34.5541267  37.8935509   8.0500994  55.0177650  24.1366405
   7.8696899  55.9096184  23.8395157   8.2059317  54.5240097  23.3315601
  57.1404495  37.3673630  17.6251831  56.7775688  37.5489655  16.7582512
  56.4400177  37.6052742  18.2326584  25.7834549   2.0771790  48.9245872
  26.5635834   2.5767319  48.6835899  25.0886059   2.7327061  48.9854164
  46.4467392  24.2018852  20.5465965  46.0413208  24.3735657  21.3965340
  47.3604507  24.4636936  20.6598129  83.0203552  36.5033722  72.5542145
  83.8625259  36.0559731  72.4716797  82.7693634  36.3746033  73.4689026
  55.7692070  71.0173416  26.8008709  55.1131248  71.6165390  26.4448395
  56.3677025  71.5811920  27.2908745  35.7903442   2.4701376  88.0645218
  36.1993065   2.7889767  87.2599564  34.9802780   2.0523558  87.7721481
   4.7620587  25.5027676  14.2567472   4.8835573  24.7989006  13.6195335
   5.3949766  25.3112068  14.9488096  47.0790520  30.4105015  24.5955334
  46.2552795  29.9730129  24.8105621  47.5810127  29.7527905  24.1141968
  25.2125530  19.5156536  16.8858471  24.6406231  19.9453068  16.2498245
  25.2864399  20.1438789  17.6042538  67.0962143  13.0928326   7.3875837
  66.3018494  13.6131601   7.5079327  67.4438248  13.3783331   6.5426660
  52.9456902  39.2791367  40.2457047  53.7912292  39.3772736  40.6835022
  52.3762398  39.9146538  40.6793823  82.1251297  36.5915337   2.6308103
  81.9143143  37.5013733   2.4210913  81.3151932  36.2362671   2.9968886
  79.7207794  42.2473717  57.8214417  80.4714737  42.5987396  58.3002281
  79.3549576  41.5821152  58.4043999  39.9932213  24.6227894  84.6326904
  39.6661110  23.7618084  84.8933411  40.6306686  24.4380665  83.9429321
  31.6618862  48.9996948  79.9591904  31.3558979  48.8212051  79.0699539
  32.5318756  48.6023369  79.9974060  41.1881561  45.3651543  73.6250534
  42.0760727  45.6183205  73.3725891  40.9144554  44.7452965  72.9489670
  65.0944672  40.5563164  82.4685211  64.5297089  40.9409103  83.1388702
  65.1262817  39.6250687  82.6875992   4.8060713  58.5153084  84.3295517
   4.5979519  59.1412468  83.6359253   4.7295709  59.0205383  85.1389542
  46.2145195   3.1789405   0.9921860  45.3469315   3.0428007   0.6114078
  46.3742485   2.3911967   1.5119721  63.1540146   8.5608416   6.8278146
  63.7740479   8.4637909   7.5505648  62.6581001   7.7421227   6.8261056
  38.0391960  68.3710022  19.8538418  37.2839813  68.8535767  20.1900063
  38.2954674  68.8471756  19.0640221  72.3227158  55.8730812   6.4608440
  72.0367203  55.3804359   7.2300906  71.6762466  55.6619453   5.7872481
  39.6014824  63.9386330   5.9659805  39.3034439  64.8325195   5.7975521
  38.9789925  63.5953979   6.6070175  33.5611076  49.5019989  39.9908409
  32.7836952  49.2067642  39.5168190  34.0934029  48.7130280  40.0928993
  33.5516396  47.0801125   4.6256428  33.4754753  48.0115700   4.4187231
  33.3917847  47.0302696   5.5680833  79.1399765  10.8582611  23.2370014
  79.1344299  11.4426050  22.4788837  79.7916412  10.1913710  23.0206146
  68.7023163  56.9289017  82.1850281  67.9067230  56.4000206  82.2445908
  69.1856918  56.5524254  81.4496078   3.2786267  25.9247837  86.6241379
   3.3662405  25.0087795  86.3605194   4.1709275  26.2697239  86.5917892
  81.3722992  18.4684067  51.0199928  81.3740921  17.9427795  50.2200279
  81.1487885  17.8479519  51.7137604  24.8338718  54.4427109  30.8997784
  24.6696568  54.8461685  30.0474358  25.7747078  54.5510597  31.0387764
  21.0677109  47.8262100   3.9467967  21.7117538  47.6618881   3.2580011
  20.4837875  47.0684357   3.9144304   9.0917425  47.1231880  28.6938648
   8.3451481  47.4656792  29.1853199   8.7016687  46.7046471  27.9264679
  15.9159498  39.7001877  67.5449295  16.5268803  39.4327087  68.2315521
  15.0682001  39.3623123  67.8337097  61.6730232  69.6292801  20.7734489
  62.1455269  70.3811188  21.1308117  61.0630569  70.0084534  20.1406784
   9.3619509  21.7114620  24.0241261   8.7932425  21.0492363  24.4168854
  10.1563005  21.6920300  24.5578499  11.9992456  57.5690498  65.4692154
  12.2941990  56.7910652  64.9959488  12.7080069  58.2021179  65.3546829
  72.2578430  43.6392632  18.2287388  71.8472824  44.3499680  18.7212543
  72.9027023  44.0752487  17.6716805  34.2688026  67.3758240   4.1359382
  34.8045158  67.8352585   4.7825947  33.4485779  67.8685989   4.1108031
  28.2498417  14.0750065  16.2778301  28.9791775  13.8498945  15.7002277
  27.5055847  13.5872889  15.9250612  78.7289963  54.5582275  18.5374393
  78.0436325  53.9550896  18.8250751  79.4419098  54.4262848  19.1624012
   9.0495663  60.3649406  87.4209366   8.3559227  60.9437714  87.1046371
   8.5891237  59.6884270  87.9174805  55.6138115  31.4766941  32.9762726
  55.8960457  30.9636307  33.7334671  54.8790436  30.9826336  32.6126060
  81.6548004  13.0830297  66.8273163  81.2370911  12.2244034  66.8945160
  82.4324036  12.9297447  66.2905960  47.4812660  13.8411016   2.3976617
  48.2862396  14.0194798   1.9114225  47.2963066  12.9180717   2.2243454
  54.6558418  45.7390442  55.3273926  53.8965416  45.4926491  55.8555794
  54.6581764  45.1119919  54.6041794  21.1477528  69.6840439  43.2265778
  20.4789162  69.0015640  43.2823906  21.1433563  69.9490509  42.3068047
   2.2956645  27.9271717  23.0895576   1.4558227  28.3752441  22.9889202
   2.3154652  27.2918758  22.3738499  24.1818810   2.7872643  63.1100502
  24.5866776   2.9058642  62.2508011  23.2454624   2.7141893  62.9256287
  25.4690552   1.0189810  82.4901886  25.6698189   1.6065621  81.7617188
  24.7340641   1.4366084  82.9392014  82.1253052  23.1587505  25.9110794
  82.8000107  23.2949295  25.2459030  82.4770432  23.5753593  26.6978111
  12.2081680  44.9175797  39.7674599  12.0145493  45.3199120  40.6141434
  11.7875528  44.0587311  39.8086128  38.4073830  47.0424767  80.4199066
  37.8201485  46.4154396  79.9977570  37.9853935  47.2404404  81.2559509
  11.2242403  40.1384239  70.6881485  11.9967356  40.6756744  70.5125198
  10.7281446  40.1574783  69.8697662  50.7188683  53.3247261  31.4300728
  49.8539276  52.9337273  31.5534763  50.7785835  53.9941063  32.1116867
  81.4422302  16.0292969  84.4188232  80.6703720  16.5896473  84.4992905
  81.3012009  15.3336744  85.0610428  25.4440994  70.9432678  23.3043461
  26.1557980  71.2068863  22.7210598  25.5633640  70.0001984  23.4166889
  67.1653671   1.0292730  38.4734573  67.9940338   0.8592135  38.9213676
  66.9561844   0.2043040  38.0353928  30.2792892  51.4036598  13.1625004
  30.1788197  50.5248032  12.7967834  30.1110287  51.9905357  12.4252787
  59.1901627   1.3419099  49.7966194  59.6611824   1.7068379  49.0474892
  58.8769417   0.4905996  49.4910126  67.8594666  71.0756149  22.4715500
  68.4167633  71.8131485  22.7199421  67.1356430  71.4743729  21.9885406
   3.4012597  32.9255638   5.0109444   3.9574721  32.7022095   4.2646379
   3.8710589  33.6299286   5.4574733  69.7823563  36.7561684  60.0769196
  69.7227936  37.6508713  59.7419777  70.7119370  36.6339989  60.2697487
  85.1043472  23.3478107  50.5694046  84.3670197  23.4160137  51.1759682
  85.5796661  22.5682831  50.8568802   1.9201946  52.8110008  28.2176781
   2.4380159  53.3690491  27.6374416   1.0406843  52.8237419  27.8401451
  19.4781570  20.7282066  23.3722115  18.6362057  20.2958622  23.5151348
  20.0030270  20.0807495  22.9015312  25.3394432  63.3575745  74.0138397
  24.8425388  63.8112450  74.6946564  24.8000584  62.5996056  73.7884979
  83.2274857  46.9611282  72.4943848  83.4827347  46.1544800  72.9420395
  83.9737625  47.1696053  71.9323959  78.6290588  10.8916063  40.9145851
  77.9981384  11.5222292  41.2617073  79.4149780  11.0223131  41.4451294
  57.5822525   2.2812328  54.7316818  57.8113403   1.6754405  55.4364967
  58.3540802   2.8390493  54.6349792  63.8430481  17.6226540  31.3429737
  64.1241684  16.7354221  31.5666332  64.5241165  18.1885052  31.7065525
  50.7600021  69.5924835  40.0377960  51.5252380  70.1239319  39.8182297
  50.3344345  69.4263611  39.1966515  60.1416435  69.0733643  56.0686798
  60.9293747  68.5791931  55.8417549  60.4540253  69.9652176  56.2211685
  62.4605713  18.0188274  19.8522816  61.7082405  17.5503674  20.2139130
  62.2023735  18.9402714  19.8748169  81.4210663  62.7890778  83.2442017
  81.0169220  63.5491219  82.8255844  82.3622818  62.9418106  83.1604919
  32.0979042  24.3799343  21.2892284  32.0060310  24.0959816  22.1987133
  31.9603710  23.5844574  20.7749023  26.5761070  44.5524635   9.7630901
  26.5034657  43.8594360   9.1068373  27.0926762  45.2349205   9.3345566
  58.6911812   3.3366978  12.0603085  58.7147713   2.8211565  11.2541494
  59.5649529   3.2323813  12.4369717  46.6307831  46.8086548  44.5239830
  46.4141617  47.4099922  45.2365112  47.4990883  46.4741783  44.7484932
  78.0586548  30.6964512  28.8261986  78.3508987  31.0588169  29.6625710
  77.9601288  29.7590008  28.9926701  69.9393005  28.9860802  70.8425446
  70.6913910  29.5519829  70.6683197  70.3122253  28.2192211  71.2773895
  85.6817551   1.6654526  26.4977455  86.3068771   1.5416188  27.2119732
  84.8279953   1.6967629  26.9294262  63.5180664  49.1432266  53.3871040
  63.4208488  48.7594490  52.5156136  62.6461601  49.4750977  53.6012878
  12.3738804  62.0917854  84.3561401  11.4479637  61.8512268  84.3884354
  12.8401079  61.2728195  84.5239563  45.1210632  67.4672928  84.7380753
  45.7028770  68.1385345  85.0946655  44.4278107  67.3791428  85.3921814
  73.4407883   7.9865165   1.7383323  72.7340469   7.5449915   1.2673699
  74.2295227   7.7766838   1.2382374  75.3872986  70.9105225  79.2874527
  75.1974182  71.4981537  80.0187988  75.0938492  70.0506516  79.5886841
  23.5539551  55.0527916  78.4333420  23.9032936  54.1963348  78.6796646
  23.3225117  55.4653969  79.2654572   3.9248395  29.9141254  42.6836395
   3.9951465  29.0923557  42.1978607   3.3079758  29.7227230  43.3900909
  85.7274704  63.3503265   3.2924898  84.7992859  63.5841827   3.2966864
  85.8329468  62.7750397   4.0502176  67.3035507  70.9184647  74.9585190
  67.8766556  70.3537903  74.4399338  66.5892181  71.1460266  74.3633957
  60.7510414  25.8332500  18.3019714  61.1184845  26.2215443  17.5079670
  61.1497383  26.3285847  19.0174541  52.2022247   0.3227236  13.9101076
  51.7686615  -0.2281745  14.5618496  52.9328346   0.7222880  14.3821106
  36.3640556  54.1549149  12.9888859  36.7633438  54.9047050  13.4300385
  37.0291367  53.4680367  13.0346594  73.9779358  44.6547356  22.4772682
  73.5153275  44.2203598  21.7606487  74.6659546  45.1614609  22.0458908
  23.3232517   4.9977970  12.6043959  24.2420254   4.9939728  12.3359385
  22.8696232   5.4596405  11.8993053  81.1412582  11.8895884  25.3443089
  80.6908951  12.6950865  25.5984287  80.6488876  11.5679388  24.5890923
  21.5929489  12.5911026  30.8194485  21.6900463  12.2939138  29.9147472
  21.4359303  11.7899513  31.3191795  42.0614090  66.1784134  28.3206043
  41.3015404  66.7566376  28.3876076  41.7429123  65.3282242  28.6238728
  21.2147331  62.7548409   8.8505898  21.0609016  61.8133278   8.9288225
  21.4107952  63.0404510   9.7428999   6.7801290  27.5969067  59.0031776
   6.8944263  26.9429665  58.3135910   7.5721502  27.5242920  59.5357780
  63.1591797  62.7176971  24.4902668  63.0978279  61.8790665  24.9476147
  63.0920715  62.4902420  23.5629082  53.3980789  15.4699144  13.3466415
  53.8382454  16.2537918  13.0179758  54.0917473  14.9667397  13.7731028
  54.2399673  37.6688957  38.0121231  54.0334129  38.3673019  38.6332474
  54.1376953  38.0756111  37.1516838   1.9790047   9.1416235  56.2745361
   2.3689888   9.7812767  56.8703461   2.4395959   8.3245392  56.4654846
  79.6883545  56.4222107  40.4431229  80.3040466  57.1511497  40.3669739
  78.9316025  56.6925545  39.9230499  71.8770142  33.7238846  54.3191681
  71.6306534  34.0424232  53.4507980  72.8339920  33.7082214  54.3059311
  43.3072510   9.5349903  78.1421890  44.0921021   9.9713640  78.4735794
  43.0353394   8.9571695  78.8552246  23.2909164  40.0325050   7.6687722
  24.0343647  39.4527168   7.5033517  23.2910290  40.6392860   6.9284716
  59.5397797  69.4351730  12.6191883  58.6846085  69.7705002  12.3499804
  59.4456978  68.4832611  12.5839663  14.4559059  64.3230972  15.8259459
  14.7629900  63.4165878  15.8388281  13.5086889  64.2534409  15.7069559
  79.9995117  43.0432587  60.7445831  80.7908325  42.5381966  60.5576401
  80.2669373  43.6659889  61.4205437  42.1905746  62.5568199  10.7419434
  42.9041557  63.1526413  10.9700508  42.1406403  62.5974731   9.7869120
  17.0934238  26.5559807  77.2931061  17.4843273  26.6620846  76.4258270
  16.2801456  27.0591259  77.2524414  24.9432545  49.7915421  48.5044670
  25.4958420  50.5679932  48.5939217  24.5669403  49.6637688  49.3752670
  85.3771210   2.3035574  67.1454239  84.6796265   1.9874331  67.7197037
  85.8521347   1.5133615  66.8881607  85.8081436  55.8259926  88.7708893
  86.7075424  55.9675789  88.4754868  85.6071167  54.9287415  88.5048752
  33.8656769  46.4914703  22.0291405  33.2607803  46.0286179  22.6088791
  33.3111343  47.1000862  21.5409832  50.2485771  68.1688461  66.6143188
  50.5507584  67.2717667  66.7563477  49.3683243  68.0704422  66.2514114
  47.7290154  15.8481569  62.8585815  47.0611115  15.9149446  62.1761780
  47.2324600  15.7895107  63.6748085  81.6805725  17.1820507  15.3506737
  81.0209045  17.6975002  15.8147631  81.2612381  16.9454670  14.5233793
  38.6981125  48.6602211   6.8813977  38.5089684  48.2578545   7.7290754
  38.0080147  49.3136177   6.7671032  69.7384186  68.0185699  42.8680534
  70.0902557  67.8392181  41.9961128  69.6624985  68.9720688  42.9042244
  50.4176598  68.2137375  14.6109591  50.6686668  68.7893677  15.3333693
  50.6757812  67.3388367  14.9010534  83.2907562   6.7609754  29.9978542
  83.8598785   6.6335168  29.2388496  83.0854263   5.8744740  30.2948208
  56.1341858  20.7373886   2.6098409  55.3753357  20.2216587   2.8826067
  56.0561447  21.5559292   3.0998762  52.8329887  14.1503448  89.1408920
  52.8040161  13.7411385  88.2760544  53.1378136  13.4555740  89.7245026
  63.9658585  19.9049721  42.2159920  64.8938751  19.9099255  42.4505005
  63.5931473  20.6434002  42.6976967  24.2050514  61.5208397  41.6149788
  24.8967514  62.0388184  41.2033005  23.6726875  61.2078819  40.8836250
  47.3604584  45.6623268  14.7848558  47.2303734  44.9245415  15.3806610
  46.8884659  45.4143181  13.9899044  70.6947403  13.4242926  43.8102646
  69.8941650  13.1017447  44.2241173  70.4018936  14.1429729  43.2499313
  26.9270859   2.5850360  12.8855419  26.3873806   3.1111510  13.4755869
  26.2977028   2.0713992  12.3792944   4.3608699  46.9608841  46.6995010
   4.5437546  46.0364037  46.5318069   4.3729224  47.0382080  47.6534958
  31.5248642  57.3273659  31.5541248  30.8439579  57.9426956  31.8260975
  32.2804565  57.5506477  32.0976868  16.2422504   8.6176014  29.3783741
  15.4355507   8.2838373  28.9858570  16.7553139   8.9372530  28.6362000
  81.7964554   8.1845818  48.6278114  81.0843658   8.5498524  49.1529121
  81.3837891   7.9455180  47.7978821  72.6751022  44.8944855  38.5154381
  71.8399811  45.1413689  38.9127426  72.4452515  44.2245789  37.8715248
  65.5378952  44.7827644  76.0278549  64.8458633  44.8063469  76.6887436
  65.0916214  44.9881134  75.2063293  63.5611153  50.7201500  17.8367081
  63.9850807  51.0049210  18.6462688  64.1704712  50.0870628  17.4570904
  71.7084885  31.1315746  32.5472527  72.1812592  30.5632095  31.9392376
  72.3933945  31.5307560  33.0837212  55.8956184  63.0315514  36.6568298
  56.8209381  63.2745514  36.6256714  55.4272003  63.8521729  36.5038795
  11.4593801  11.9910297  68.1652985  11.4355602  12.5761232  68.9224854
  12.3916798  11.8467674  68.0033188  81.6582336  40.8535385  17.5907688
  81.5935516  41.8015175  17.7064590  81.3900757  40.7040443  16.6841393
  76.1554718   8.8484468  27.3872986  76.6042480   8.0203657  27.5579338
  76.5236206   9.1539783  26.5582314  58.1948929  66.4661255  71.7839279
  57.9978676  67.1135559  72.4608688  57.9715691  66.9032593  70.9621811
  78.6499710  57.0200424  62.0227928  78.4814072  57.5382385  62.8097420
  77.8192978  56.5794449  61.8436584  51.9062004  48.8902435  38.5325508
  51.9788589  47.9421577  38.6424713  51.0183258  49.0977859  38.8238144
  57.3105469  45.7225838  61.5558205  58.0492020  46.1085854  62.0265884
  56.6399384  46.4055824  61.5610237   8.2482519  21.5156059  35.2660141
   8.7759342  21.7098045  34.4913712   7.3634405  21.7932606  35.0288467
   5.9771581  57.5167160  63.4498405   6.0919361  57.7641869  62.5323334
   6.8491445  57.2438850  63.7352104  85.4936371   1.5333486  63.9429398
  86.3994141   1.7895502  63.7692451  85.4890213   1.2807654  64.8662033
  63.0835114  66.6594162  40.5211182  63.3205605  66.9570618  39.6427994
  63.0854149  65.7042389  40.4589653  59.4499741   1.7356606  10.0825710
  59.9824448   2.0622277   9.3572693  59.2825699   0.8191260   9.8630915
  82.5314407  21.2701569  42.4558296  83.4187927  21.0592079  42.1654129
  82.0517349  20.4454460  42.3785858  35.8388786   2.0421453  30.6699924
  35.5146027   2.6460404  30.0018692  35.6025810   1.1740509  30.3431778
  27.5806255  57.2808037  83.8640060  28.2420235  57.5038071  83.2089844
  26.9969940  56.6683731  83.4161911  56.7562141   9.7492275  22.9539375
  56.2615280   9.3513508  23.6703281  56.2375641  10.5125055  22.6996918
  60.3147850  31.7758579  65.6983261  61.1967316  31.5242348  65.4243088
  59.9652710  30.9947929  66.1272888  46.6298485  27.5734863  64.3353043
  46.8624344  27.2206459  65.1941681  46.9100075  28.4881744  64.3682785
  36.6686668   6.0731173  87.1708832  36.1841507   6.4579620  87.9012070
  36.0447083   6.0693374  86.4450073  80.3881760   0.9653120  26.9935207
  79.5031662   1.3292444  26.9702568  80.3387070   0.1802008  26.4481907
  38.1476250  60.1626587  40.6712723  37.4366455  60.7931671  40.5563850
  37.7182617  59.3079948  40.6334381  65.5568924  34.1241913  72.7887573
  65.2891922  33.2482529  72.5107269  65.1265106  34.7139435  72.1697311
  14.6747961  36.5575905  35.8747215  14.5560665  36.0809898  35.0531425
  15.3692923  36.0812683  36.3297195  48.2085304  58.2162361  85.8645020
  47.9793015  57.3321571  86.1510086  47.5291481  58.7743416  86.2429047
  85.5169220  26.2049999  50.6251984  86.0659332  26.0719929  51.3979416
  85.1671906  25.3361988  50.4274483  52.7953339  15.4944077  60.7401772
  52.9355087  16.4381199  60.8175812  53.6770058  15.1234579  60.7043037
  37.9170341  58.9824791  69.8034897  37.3367271  59.0976028  69.0510101
  38.4146538  59.7988815  69.8493042  48.6468658  28.9752140  29.7955132
  48.1363907  29.4398155  29.1323471  49.4690170  28.7578983  29.3561172
  29.6049900  16.6617489  15.9568300  29.4516907  15.9251919  15.3650408
  28.7909088  17.1644917  15.9293880  20.9870396  65.5627136  30.8997746
  21.6861515  65.9309769  30.3595371  20.9437237  66.1403198  31.6618290
  55.0239639  52.1389236  47.5408173  54.3684387  52.3804893  46.8864746
  55.8391724  52.5207939  47.2154770  28.0807323  63.0989914  13.7067890
  28.1678410  64.0179596  13.9600410  27.8156033  63.1279869  12.7874975
  65.4999847  15.0549507  87.9769821  64.8628922  15.2959089  88.6495056
  65.2475357  15.5716619  87.2117996   3.4159615  45.5560036  30.3721428
   3.1620879  46.4568825  30.1716480   4.1341858  45.6433945  30.9988403
  65.4203186  16.0227470  35.1203880  66.3671799  16.1629562  35.1156044
  65.2964020  15.2429256  35.6614571  21.1704521  65.3612366  42.6162834
  20.8536110  64.8908997  43.3874016  20.6446857  66.1606979  42.5905685
  47.1525574  53.4091415  66.3629990  47.7567520  52.7429123  66.6905975
  47.5455399  54.2404366  66.6289749   7.1412420  16.8896084  37.2194862
   7.3427892  16.4716301  36.3822861   7.9052658  17.4357109  37.4046135
  50.3141479  65.8896255  27.2838497  49.4482422  65.6255951  26.9728355
  50.8070755  66.0811691  26.4860020  73.3440475  36.7511063  12.6055450
  73.0216827  37.0249290  13.4642258  72.6132278  36.2697601  12.2176838
  69.2971954  48.3014832  45.3361549  68.7339783  49.0746536  45.3011742
  70.0293274  48.5120697  44.7566147   6.7830591   7.0730062  24.7030220
   7.2157636   7.7185521  24.1442108   6.4369793   6.4216914  24.0928993
  46.8038788  61.4231339  13.2693205  47.2868347  60.6742897  12.9197168
  47.3035736  62.1865959  12.9800692  34.0131302  10.3220978  29.5974617
  34.8437805   9.9083729  29.8321667  34.2473488  11.2252722  29.3838024
  41.2327347  63.6988831  21.9087563  41.2526207  62.7974892  22.2301922
  40.9375954  63.6231346  21.0013485   9.5321321  40.6731262  50.2686386
   9.5658216  40.3599358  49.3647537   8.8486185  41.3432198  50.2646179
  86.3726044   4.9561152  61.7661819  86.6132584   4.1070032  61.3956070
  85.8807602   5.3907743  61.0694847  24.6492748  22.6264362  81.3349380
  24.1889172  23.4166298  81.0522766  23.9694996  22.0826702  81.7330017
   4.4963832  66.8123398  67.1432724   4.8530536  65.9727936  66.8531342
   4.6612329  67.4080353  66.4123840  79.4927521   9.6655245   0.7070140
  78.8029785  10.1962204   0.3085072  79.0950241   9.3150673   1.5040246
  84.6938019  14.9513569   0.1406505  84.5988464  15.7241354   0.6974517
  84.1437836  14.2874603   0.5565203  41.8369102   0.6839533  46.4835281
  41.3786774   0.4622490  47.2941475  42.3474159   1.4634842  46.7024918
  53.5073471   8.1327391  12.5731754  54.0722427   7.3666534  12.6743422
  53.5446739   8.5717440  13.4229479  23.6405945  35.7560997  63.2272530
  23.1679935  35.8919487  64.0484848  24.0105038  36.6140327  63.0190430
  85.2945023  37.4030266  61.1166077  85.0401306  38.2582703  61.4631386
  86.2473984  37.3825951  61.2049217  42.1994476  58.4606400  24.0079155
  42.1766052  59.2274551  23.4354630  42.8987503  57.9144669  23.6488838
  49.0533104   9.5359316  14.6782112  49.0399055  10.4402781  14.3648262
  49.5635719   9.0623350  14.0212708  75.2746201  56.3926506  27.7571964
  75.4524460  55.4994011  28.0516739  75.4261246  56.9347153  28.5314350
  83.8222427  17.4070148  47.2226143  84.2917099  17.6070404  46.4127846
  84.4990768  17.0870018  47.8190384  27.4208717  70.6638794  21.2754879
  27.0537262  70.8468094  20.4106331  27.8905983  71.4641266  21.5104294
  44.3347473   7.6506872  20.4661579  44.4144249   7.8490891  19.5331421
  43.6685486   8.2598333  20.7845173  16.8928051  45.7696533  40.5359955
  16.5064793  46.6328468  40.6839256  16.4143944  45.4186668  39.7848854
   7.9055071  41.9164429  28.1433125   8.1853533  42.0628204  27.2397118
   6.9795828  41.6842690  28.0726604  22.1963253  44.2569237   0.1567055
  22.9158573  44.1379204   0.7766609  22.6011429  44.6766396  -0.6023692
  72.0429764  43.0522766  46.0528717  72.5327301  42.2399025  46.1810036
  71.7518997  43.2975349  46.9311409  70.5065384   1.9407133   1.8964970
  69.6085892   1.6120710   1.9402763  70.4900742   2.7511144   2.4056246
   1.0951169  16.3270435  35.3955078   0.4598123  16.6406250  36.0391579
   1.2565085  15.4163914  35.6422844  82.9610672  54.2280273   5.1788530
  83.2027435  54.3207626   6.1003876  83.4555588  53.4660263   4.8770747
  56.2128525  35.3700714   6.2508864  56.8708649  35.3705826   5.5557208
  55.7648735  34.5295105   6.1560264  86.7079773   6.9179511   8.2508707
  86.0228577   7.4097347   8.7036324  86.2393188   6.2194514   7.7940421
  71.0630951  29.6577168   6.3323236  71.3778076  29.2258396   7.1264710
  71.8583069  29.8673458   5.8425026  14.3226461  15.4586592   3.6492362
  13.5420704  15.9120045   3.9676871  14.0010290  14.8914118   2.9485044
  60.3249474  64.2726288  26.3754826  60.1220245  63.7692490  27.1639385
  61.2294235  64.5597687  26.5008144  32.1473122  66.2215271  18.8245697
  32.8910446  65.7489471  18.4507236  32.5387497  66.9801712  19.2575417
  78.7242966  35.6812286   6.0247307  78.6133881  36.5116043   6.4877720
  79.5203857  35.3031654   6.3982821  24.4126606  15.8492746  23.1248112
  25.0409069  16.5121613  22.8382435  23.7584438  16.3389378  23.6232719
  30.0223122  12.0459213  26.9020844  29.6052246  11.4227037  26.3072128
  29.3410168  12.2620144  27.5387726   4.3792953  47.5408440  23.3750267
   4.9817672  48.2472572  23.6079178   4.4280658  46.9317932  24.1118488
  79.6835632  54.8752365  53.4947243  80.2622452  54.4311905  54.1145477
  79.9229584  54.5128632  52.6417274  79.4302750  66.4836960  79.0454559
  80.1570740  67.0907440  78.9058838  78.7745132  66.7422714  78.3978806
  69.6227341  65.5690842  72.9383621  69.4846497  65.9493637  73.8058548
  70.5743408  65.5274658  72.8438034  45.1778030  17.3018665  83.4858017
  45.1860847  18.2111340  83.7847977  44.9599380  17.3576546  82.5553970
  35.0013199  26.1193008  14.9412327  35.5918236  25.5990753  15.4861202
  34.6249809  26.7622852  15.5422096  74.8850327  13.2223568  20.4443626
  74.4776382  13.8013048  21.0886288  75.4991837  13.7843246  19.9718800
  28.5921383  42.8020287  18.4725552  29.4863586  43.1402740  18.5193748
  28.4712257  42.3298569  19.2963657  36.8753738  53.4792366  84.9613647
  36.7698631  53.9090538  85.8100967  36.8236122  54.1915665  84.3240738
  56.3380394   0.3466766  73.6522751  55.8238716  -0.4391761  73.8374786
  57.0377045   0.3345547  74.3053894   3.7068138  58.8038063  81.8400726
   3.9893539  57.8918381  81.9087448   3.3147697  58.8681602  80.9692154
  65.6423340  18.4831848  15.8015833  65.2641525  19.0159435  16.5011387
  65.2128525  17.6322937  15.8896933   8.5748615  31.2496052  40.4380684
   9.1625462  30.7085457  40.9654312   7.9972148  30.6222248  40.0033836
  38.8288078  59.5770988  46.6516533  38.6361618  60.3407593  46.1076508
  39.0771484  59.9439774  47.5001602  11.5782738  45.4806671  67.0375748
  11.9043159  44.6961365  67.4785309  11.7900610  45.3420563  66.1144485
  65.9276276  11.9365902  14.4075861  66.1107635  12.8577204  14.2226200
  66.7651825  11.5807991  14.7044878   0.6273653  25.3394203  42.4850273
   0.4643289  25.1622772  41.5585976  -0.1904803  25.1016827  42.9218788
  78.3047714  35.8753738  75.4263687  78.7027054  35.2731514  76.0550308
  78.7397385  35.6776390  74.5969467  33.0916061  56.3333473   5.8295383
  33.7617645  55.8145561   5.3845916  32.8760910  55.8258057   6.6119633
  35.5984764  45.6563797  58.1138229  36.0608101  44.8200645  58.1691055
  34.7054482  45.4202347  57.8628769  82.5540390   8.8002424  39.7773056
  83.0290375   8.0340443  39.4555206  81.6321411   8.5910330  39.6270599
  36.2545280  50.6666679  81.0976257  35.4628105  50.1574402  80.9241257
  36.5047073  50.4241524  81.9891586  72.9597702  16.9595299  67.6809158
  73.3336411  16.9172535  68.5610657  73.5131912  17.5866776  67.2154770
  74.5048523  53.4980354  61.4162254  75.3462524  53.0462990  61.4811554
  73.8977127  52.8291855  61.0995979   0.8991502  56.0820198  51.4942627
   0.2944224  55.7112656  52.1369781   0.4791181  55.9208527  50.6493797
  79.7686462  42.8619385  72.7673264  79.0714569  43.2224197  72.2194138
  79.8221512  43.4611130  73.5118713  14.4018650  37.9454308  62.7235565
  14.6743422  37.8199310  63.6325340  14.0408373  37.0982094  62.4625854
  70.5372543  29.4601116  59.2836647  71.4234619  29.7744026  59.4627647
  69.9937363  29.8851528  59.9471092  51.0501518  13.0616369  72.2183914
  50.1021500  13.1735754  72.1477356  51.4051743  13.5523405  71.4771729
  72.8605652  47.0833397  52.0150948  73.7080765  46.9028664  51.6084175
  72.6111603  46.2557526  52.4263420  29.5814533  14.3518887  14.0281134
  30.5202065  14.4627247  13.8774862  29.1725521  14.6354542  13.2104197
  31.9741879   0.7671605  73.4629211  32.0213623  -0.1650709  73.6749344
  32.8831291   1.0658033  73.4924698  29.1262531  36.7967720  82.1696014
  28.7443810  35.9370804  81.9925842  28.3905525  37.3272591  82.4754791
  70.6905518  60.5525436  88.3014984  69.8576126  60.6291389  87.8361282
  70.9155502  61.4519768  88.5394669  83.3973618  34.9218559  20.9736042
  82.7073441  34.8989029  21.6366119  83.6485291  35.8440247  20.9211388
   6.4208407  70.6879196   6.9476991   6.9002118  70.8217010   7.7653403
   6.3317060  71.5654831   6.5759778  53.3375130  49.9613914  88.9873505
  53.7418022  50.5121346  88.3169250  52.4573097  50.3218918  89.0946655
  21.4566269  10.4584150  20.9555950  21.8961334  10.9765053  21.6298714
  20.8131962  11.0565033  20.5754375  73.5521393  68.5565338  19.7714615
  74.2451859  69.1490326  20.0627880  73.0357590  68.3862686  20.5592365
  75.4346237  19.6689453  83.4410248  74.6962128  20.2664623  83.3228683
  76.2066345  20.2342587  83.4155350  25.0605373  30.8024902  21.4132824
  25.4142113  30.3256645  20.6624260  25.8279343  31.1906986  21.8335514
  48.2171135  40.2809792  80.5700836  47.8851357  39.5038605  80.1205215
  48.2880669  40.0152931  81.4869308   7.2441449  37.7115898  71.2556229
   8.1581039  37.9180717  71.4512711   6.7506223  38.1027184  71.9765167
  57.5701981  48.5101929  72.6229706  56.8164520  48.4075012  72.0419769
  57.8033142  47.6161613  72.8731537  73.4431686  46.0365067  19.4870892
  74.0079803  46.2827911  18.7545795  73.6233597  46.6931877  20.1597939
  73.2735519  35.1870346  48.0403366  73.3956680  34.2880211  47.7352257
  72.3250504  35.2847862  48.1240921  61.7574196  33.1421700  21.8412189
  61.6804504  32.3045692  22.2980862  62.1550827  33.7297859  22.4837170
  21.6304646   3.6376202  31.6568871  20.7030964   3.7601066  31.4538593
  21.6520977   2.8645134  32.2208633  55.7173500  36.8690300  64.5930405
  55.2123566  36.1449203  64.2230606  55.4939232  36.8658943  65.5237885
   9.9871635  50.9864616  43.5623245   9.8867702  50.1189613  43.9542427
  10.9339190  51.1138077  43.5017509  61.4498215  68.3216476  72.5704117
  61.9400063  68.7740784  73.2568970  62.0970917  67.7593689  72.1448441
  48.6737404  49.5817795   5.4787779  49.1225815  48.7377319   5.4301839
  47.9486542  49.5035095   4.8588123  62.6224480   2.1543107  24.8037968
  62.7758331   1.2112880  24.7453785  63.4761200   2.5221248  25.0322380
  32.0993156   4.6415648  44.4457054  31.8283672   5.4895210  44.7975426
  32.1701050   4.7853746  43.5020218  31.3337879  67.8929367  12.6197205
  30.8545456  68.0288239  13.4370918  31.5603046  66.9629517  12.6266518
  23.5366116  63.7652321  36.0269928  23.1731453  63.9861412  35.1694832
  24.0416412  64.5381851  36.2794113  30.1766796  46.8351212   6.7859430
  29.7137661  46.3608093   6.0953112  30.9320030  46.2837868   6.9902711
  10.0515270  51.6448669  16.5655556   9.5004711  51.5995979  17.3469124
   9.6591663  52.3387413  16.0356293   1.3569990  12.6797590  49.8056259
   1.7415859  13.5494337  49.9151230   1.7463429  12.1558208  50.5057220
   5.0804725  54.4748688  18.2895756   5.2099810  53.5269318  18.2600574
   4.8607049  54.6582527  19.2029781  46.4084244  23.7096958  26.6985531
  46.6283226  23.5091476  27.6083088  46.4681396  22.8680382  26.2465801
  35.7637520  65.2291718   6.3999548  35.2518005  65.8820267   6.8773556
  35.4938240  65.3335266   5.4875512  51.7868042  61.2108727  76.8153152
  51.2739029  61.7935104  76.2552261  51.4799767  61.3997574  77.7021179
  60.4624023   8.5245733  64.0156555  59.8329430   8.3746738  64.7210312
  61.0456505   7.7663703  64.0499878  59.7317085   2.8735957  74.3854675
  60.0293198   2.6006038  75.2533035  60.3030701   2.4041555  73.7776871
  42.2482719  57.1112556  64.0038452  42.0023422  56.1898079  64.0856018
  43.1995468  57.0968208  63.8985023  10.6170931  54.2885971  48.5945663
  11.4246302  54.7946053  48.6844063  10.4041805  54.3407364  47.6628036
   7.0913143  65.3973541  15.1106844   7.1845274  66.3137436  14.8503428
   6.4990587  65.4209442  15.8622885  27.8220673  52.6645432  67.8674622
  27.3479881  53.1225395  67.1734009  28.5778561  53.2228546  68.0499573
   5.6547565  41.4204369   9.1586628   5.1360288  40.9280624   9.7948418
   6.5261970  41.0270767   9.2044067  83.8351669   2.8794165  46.5787201
  83.7436752   3.6744642  46.0535927  84.7805634   2.7555964  46.6631317
  45.3749657  21.9417629  13.6316195  45.5258598  21.3287048  14.3510790
  44.5898590  22.4249077  13.8893175  77.4641342  58.8581810  73.2550812
  78.2962646  58.6559143  73.6827316  76.7979202  58.5569153  73.8728409
  52.2271194  59.5554008   6.2678056  51.7283554  60.3718185   6.2983441
  52.5321350  59.4273300   7.1660218  82.6910248  21.9541817  78.6314468
  82.7254791  21.5670280  77.7567139  83.6085510  22.0644836  78.8808594
  77.7863388   6.8731480  18.3234749  78.3294144   6.1297474  18.0614567
  78.0336990   7.0418062  19.2326488  41.7816353   8.3966227  60.0452919
  41.7523308   8.2882414  60.9958878  41.6455421   7.5145583  59.6993561
  21.4174442  51.8413048  14.4929609  22.2115002  52.3464622  14.3182564
  21.6772480  51.2116623  15.1654825  67.1316986  27.0403805  22.9678555
  67.1055679  26.0863171  23.0407391  67.5181198  27.3331470  23.7932014
  53.0012932  67.2153091  41.4637947  53.9079170  66.9103241  41.4283676
  53.0708885  68.1690750  41.5053101  35.1654129  51.9084435  70.9713745
  35.3344193  52.0417099  71.9040680  34.9448814  52.7793655  70.6410904
  50.2905922  38.0824585  24.4874630  49.5835991  38.2632866  23.8680286
  50.2707329  38.8211479  25.0958843   8.6088705  70.7091522  27.5494080
   8.8387680  70.7455444  28.4778767   9.0958929  69.9576492  27.2113514
  52.8915710  48.0693016  55.8635368  52.8217812  48.0095367  54.9107590
  53.8331642  48.0632172  56.0355721  73.9259949   2.6544626  76.0778198
  74.6677094   2.0840187  76.2795410  73.9264908   3.3052280  76.7797699
  33.1740456  55.2664833  21.2091274  33.5649567  55.1308250  20.3459835
  33.7552376  55.8936424  21.6393833  42.8930283  61.2815552  23.2885303
  42.6829033  61.9301872  23.9603615  43.7112579  60.8843040  23.5867329
  16.3312912  32.3390503  83.1673355  15.6746140  31.8153610  83.6264114
  17.1678886  32.0402908  83.5238113  20.3514004  25.1828251  87.4814072
  20.6486931  24.5951900  88.1760559  19.6641140  25.7087421  87.8904114
   2.6738904  59.4425812   7.4088740   2.4813008  59.3941956   8.3452501
   3.1777883  60.2503090   7.3094149  17.9663410  59.8337402   5.2762394
  18.4239407  60.6174164   5.5806804  18.6569309  59.1796989   5.1687765
  13.6638803   3.0209901  13.7186346  14.3030262   3.0909750  13.0095320
  13.4504423   3.9276836  13.9390507  10.7925358  24.9455833  72.8820801
  10.3414431  25.5238953  73.4971466  11.2217627  24.2941132  73.4366837
  80.1455688  17.1474628  37.8720398  80.5920715  16.3270073  38.0811272
  79.3223953  17.1028748  38.3584900  71.7167816  24.5119820   2.1670442
  71.8082504  24.0617123   3.0067599  72.2529984  25.2996578   2.2579768
  63.5055313  40.3612366  20.5866337  63.8172951  40.6769142  21.4347973
  62.5884895  40.1327324  20.7384605  22.9186420  61.5778351  19.4916267
  22.9373608  61.5005951  20.4455204  21.9952660  61.4754791  19.2611179
  31.8665676  49.7871056  28.0994015  31.2705727  49.0509148  27.9613991
  31.4690456  50.5110435  27.6155415  66.2195969  23.1303387  25.7715740
  65.5572586  22.7320385  25.2068691  66.7657394  23.6428509  25.1755066
  22.3873577  57.2138519  74.9116669  23.1641808  56.7166176  75.1676636
  21.6796474  56.5693550  74.9118195  68.6555176   8.9018688  73.7513657
  69.1072311   8.9036121  74.5952759  67.7283096   8.8245087  73.9761658
  83.6220245  43.2252007  15.5835381  83.9325714  43.1672668  16.4871063
  82.8856812  43.8355637  15.6220198  22.4040451  69.8634338  80.3144989
  23.1420307  70.4164200  80.0579453  22.3576241  69.1940842  79.6318207
  77.3688202  29.7476234  36.8725739  77.8677444  30.5492210  36.7152519
  77.0392609  29.8421345  37.7662697  80.3415527  61.5693207  79.4057388
  79.9740982  62.3442268  79.8308563  80.2510986  61.7444496  78.4690475
  46.5307350  13.5423536  80.3904343  46.1940575  14.0127563  81.1530609
  47.4097672  13.8975954  80.2587662  86.4345627  62.0727539  83.0746155
  87.3299484  61.8315773  82.8372345  86.0785980  61.2892723  83.4937592
  62.1669579  62.8085709  63.4307594  62.5207176  62.0534401  63.9007263
  61.3984604  63.0683670  63.9388466  82.5348740  59.2313576   8.4391079
  82.5027924  58.7821846   9.2837658  82.7555237  60.1367989   8.6575603
  63.3008423  54.7015724  76.3312302  63.1445351  54.2880974  77.1802521
  64.2152786  54.9823151  76.3662720  65.0571442  13.6823769  25.9203033
  65.4770126  13.7614079  25.0637436  65.3064880  12.8116035  26.2298374
  61.3930893  11.7182970  65.8181534  61.2675552  11.4718342  64.9017868
  62.3309708  11.8946333  65.8924332  24.4644032  51.8108559   5.4486046
  25.2367535  51.3045502   5.7003236  23.8592739  51.7055511   6.1827450
  30.4749241  39.0570374   7.2991877  30.9231415  39.3151207   8.1046228
  30.9258270  39.5422134   6.6081576   6.5383868  65.2826157  18.3937397
   7.1265073  65.8574142  17.9038887   6.4021535  65.7333603  19.2271061
   3.0273936  14.0592642  57.3804588   2.2042115  14.4700747  57.1161880
   3.0054874  14.0728321  58.3373108  42.4457817  57.8251610  82.0089722
  43.2616997  57.6524467  82.4787369  42.3967171  57.1315536  81.3511505
  64.6223984   1.8260739  33.1152649  63.8408432   1.8084562  33.6676178
  64.2906036   1.6977581  32.2266273  72.7694168   8.1443930  35.5404968
  72.4819183   9.0573120  35.5280914  73.1608963   8.0048323  34.6782379
  77.7849121  63.1667519  69.5328445  77.4110031  63.7241745  70.2152710
  78.4115829  62.6100388  69.9949951  29.6841316  23.7547703  50.7840462
  30.2799435  23.0064335  50.7489319  28.8652897  23.3932686  51.1232338
  57.0810661  10.0844269  83.4251328  56.1910629  10.4137716  83.2999954
  57.4897461  10.1652660  82.5633469   0.9615574  21.3192749  43.8340034
   1.9107168  21.4419098  43.8510094   0.7798923  20.9772396  42.9586525
  30.5330887   4.4070053  38.0035782  30.4109135   4.3394990  38.9505463
  30.7075882   5.3355813  37.8501892  21.5655098  58.5765038  65.2348862
  21.2539387  59.4602890  65.4300385  20.8008976  58.0172424  65.3720932
  33.8688889  63.6549683  44.5264168  33.8683167  64.5983810  44.6883163
  33.4282532  63.5565338  43.6823883  18.0125332  39.9202843  33.8474655
  18.0936546  40.7459908  34.3248062  18.6518822  39.3405228  34.2613983
  43.5379066   1.1763052  70.6865997  42.8547783   0.7907549  70.1380386
  43.1266785   1.2783509  71.5449142  67.1650925  30.6805439  87.0336151
  67.2836304  30.8587494  86.1006470  66.2300415  30.8166256  87.1865311
   5.3545814  53.5665627  67.2192459   4.5610700  53.2522354  66.7859192
   5.5792360  54.3717117  66.7528763  54.5070763  13.7681570  85.0979004
  55.0002670  14.4983130  84.7239151  53.9197464  13.4907646  84.3948135
   6.6232738  44.9326897  23.5106773   5.8623295  45.2112541  23.0011711
   6.4763880  44.0003891  23.6702938  74.7432861  64.9015503  65.5088730
  75.3878937  64.8542175  66.2148972  75.1592712  65.4465103  64.8408890
  20.4267483  57.7238464  78.4552917  21.3570595  57.9491234  78.4572906
  20.3698044  56.9462318  77.9000397  21.6044140   0.2610861  37.2848549
  22.0239544  -0.5030278  36.8894463  22.2488270   0.5908611  37.9111214
  16.1288776  58.1853981   6.7045050  15.4882383  58.8949318   6.6557798
  16.7998486  58.4241867   6.0649657   0.7493218  37.6686630   2.4087956
   1.6217259  37.9245338   2.7082522   0.7764822  36.7122459   2.3812857
  36.2359085  31.3164349  83.3708649  36.8088646  31.9937286  83.0113831
  36.4047203  30.5467205  82.8274765  78.5529022   5.0755482  25.7104340
  78.4589844   4.1231914  25.6897621  77.7148438   5.3915954  26.0480843
  20.3104610   3.3633161  34.7354774  20.3471584   4.3079319  34.5851898
  19.8500519   3.0168908  33.9711189  12.4021425   0.3287625  31.0692997
  13.1915855  -0.1520471  31.3179626  12.4405699   1.1348778  31.5840168
  40.5169601  22.6336384  22.3336697  41.2506714  22.0191956  22.3145962
  40.6834984  23.1818180  23.1004791  79.3382263  42.4475746  42.8806114
  78.6597977  42.0980377  42.3028603  79.4597702  41.7693405  43.5450325
  37.6155930  14.5012932  77.8704071  38.1969376  14.1624222  78.5511703
  38.2050667  14.7869434  77.1724472  41.6453590  67.0742035  66.5343857
  41.1172104  66.3780365  66.9250870  42.5495186  66.8249512  66.7257080
  24.1525059  59.3661270  48.9363365  23.7670784  59.1612625  48.0844536
  23.8573723  60.2569847  49.1247520  41.7887993  15.2704506  83.3469696
  40.9250221  15.3367014  82.9398651  42.1269569  14.4239521  83.0548706
  11.8209877  60.3595963  87.3966751  10.9236698  60.1577950  87.6618652
  11.9173946  61.2958679  87.5708313  61.7332077  56.7241898  21.9852886
  61.0021591  56.3980064  22.5100765  62.5137596  56.3968430  22.4322929
  72.5311356  18.4929504  35.1802559  72.0923920  17.7658024  35.6218338
  73.2213516  18.0777340  34.6631165  42.7662544   0.4392366  38.9482498
  43.5295639   0.5281630  39.5189323  43.1341324   0.3343574  38.0708122
  74.7659607  37.4738846  76.7055359  75.4158173  38.1043739  76.3950577
  74.0325851  38.0124931  77.0026855  21.4456005  41.6838455  83.4965515
  21.5354996  42.2661285  82.7421646  20.5192757  41.7376747  83.7316132
   7.1335607  23.9394760  21.5320740   8.0557623  24.1902199  21.4781990
   6.9682736  23.4587879  20.7209949  20.1788578  41.2941628  31.4793968
  20.6654568  40.9562569  32.2312431  19.6258106  41.9855804  31.8431511
  12.9359245  41.2308006  84.5112762  13.5231380  41.9836922  84.5788651
  12.7479916  41.1568680  83.5756226  25.1567383  27.4296169  15.7338934
  24.9925785  27.3525238  14.7940321  24.3312187  27.1704693  16.1432705
  64.8302689  31.6030922  87.8888168  63.9790955  31.2110481  87.6937714
  64.8921432  31.5784798  88.8436966  86.0662766  64.1039429  19.4012527
  86.3022461  63.7885437  18.5288563  86.8287811  63.9017105  19.9434013
  71.3655243  26.6925125  67.6496429  71.9311829  26.6503773  66.8786087
  71.5788422  27.5317287  68.0576172  22.3067608   6.3327050  82.2651749
  21.7119884   6.9938421  81.9110870  21.9140282   5.4972067  82.0123138
  69.2177582  14.3944216  39.2630768  69.9482346  14.5731592  38.6708870
  68.6180878  13.8549681  38.7476959  54.0484886  57.8023186  75.7221832
  54.3708878  57.6051331  74.8427429  54.3651199  58.6878815  75.9003830
  13.4016104  64.7530975  19.2413216  13.0121965  64.1863174  18.5754776
  14.3453598  64.6324234  19.1364117  44.4730911   4.7681575  59.9234276
  44.4905586   4.7017994  58.9686890  44.7915764   3.9185863  60.2284317
  24.3900089  24.7749081  16.2031574  24.5178089  24.6957970  17.1484833
  24.9655075  25.4941883  15.9430275  75.4357452  69.1438522  54.3729134
  74.8598557  69.2672424  53.6183548  74.8622665  68.8010788  55.0583801
  36.1612549  64.4705353  37.9497299  36.1828194  64.6095123  37.0029182
  36.2187958  63.5207481  38.0537643   5.6242385  20.3597755  17.0963078
   5.1119676  19.5538921  17.1623573   6.2955666  20.2729874  17.7730789
   3.6506956  24.7217331  23.3626423   3.3603797  24.8855267  22.4653568
   3.3433051  23.8360786  23.5559330  24.9288330  69.6250992  50.3719101
  24.7995415  70.5307159  50.6536446  24.0510464  69.2434998  50.3819771
  78.2131653  57.9984283  38.5544014  78.2851639  58.9232559  38.3183022
  78.0924377  57.5467072  37.7191734   4.3370152  28.8391800  59.3795776
   5.1994252  28.4365997  59.4815979   4.4089303  29.3600063  58.5797005
  14.6926231   4.8340058  18.9121494  14.6943645   5.5607748  19.5350742
  14.5963240   5.2521596  18.0565166  50.9417953  52.7322121  34.7539825
  51.1259041  52.0354462  35.3839493  51.6895523  53.3252525  34.8274460
  64.8493805  26.3137970  41.9792404  65.2921677  26.6583958  41.2037277
  64.0890427  26.8838291  42.0940285  18.5200691  53.6510391  45.8294830
  19.3978367  53.6938744  45.4501152  18.2558880  52.7376251  45.7194214
  74.3406372  22.2420006  26.0854359  74.0789185  22.9602852  26.6614552
  75.1634598  21.9243813  26.4573517  15.3913307  66.4072037   5.5493731
  15.7322855  67.2146683   5.1646862  14.6206255  66.6846466   6.0446181
  49.2575455  66.6012268  33.8294525  48.9633713  67.4391556  33.4722862
  48.5002823  66.0228958  33.7382660  46.8975525  59.9651260  55.8577881
  47.6897011  59.4834061  56.0958672  46.2274895  59.6350021  56.4563408
  23.9443684  54.6024170  54.4926720  23.8614407  54.0735359  53.6991730
  24.2515030  53.9878197  55.1591339  85.7817154  36.6495132  85.9798965
  84.9822006  36.9023933  85.5183029  86.4147949  36.4738235  85.2837753
  44.4595909   0.0318937  10.3352327  44.6563644   0.6689094  11.0220537
  45.2128983  -0.5586655  10.3333473  51.9166718  11.2600956  66.5243607
  51.5914192  10.9183607  67.3572235  52.6026535  11.8802643  66.7714462
  56.0139122  66.7593155  20.9000168  56.3730469  66.9751968  21.7606297
  56.7782135  66.7169113  20.3253193  20.5619869  59.6923943  48.3672256
  19.7010498  59.4993820  47.9960518  20.3736534  60.1895981  49.1631813
  78.0728378  56.2387848  30.4641743  77.4773941  56.9516487  30.6954937
  78.2999878  56.4038582  29.5490856  79.4680176  11.9960260  63.8026085
  80.2055740  12.6059284  63.7863121  79.2467728  11.8630543  62.8808708
  32.0386848  32.5965271  74.6106415  31.1796227  32.7138786  75.0161896
  32.6284294  32.4238319  75.3445358  26.4503651   3.5625598  86.7341919
  26.1396198   2.7827859  87.1942139  25.6518059   4.0057216  86.4475861
  82.1347504  11.0110636  71.9578400  82.2669144  10.0714560  71.8317261
  82.0874329  11.1209383  72.9075317  27.1755905  64.3559723  72.4647751
  27.1940346  65.0921707  73.0762558  26.4150181  63.8405647  72.7333221
  85.1613083  20.1553764  11.9605494  85.3436584  20.5475998  11.1066532
  84.4536285  20.6884880  12.3227835  71.1356583  23.4076271  73.9645309
  71.8889847  23.9581413  74.1782303  71.2328873  22.6395969  74.5274734
  59.7856178  43.7531395  24.1442013  59.8238335  44.4093513  24.8400135
  59.7198296  42.9175110  24.6063995  70.3656235  51.7783241  16.7997017
  71.0320892  52.4393005  16.9872093  69.5341644  52.2233658  16.9635468
  27.1987114  52.5205727  16.8186665  26.8462658  51.6389198  16.6974144
  28.0919991  52.4702988  16.4784603  70.5113678  17.3740921  33.0285797
  70.6666870  17.0963631  33.9313393  69.7084961  17.8934212  33.0725250
  45.0469360   7.7356553  16.9453449  45.3556824   8.5208035  16.4931812
  45.7834969   7.1262422  16.8971081  67.7556076  25.5914059  18.0433922
  67.0040436  25.0217133  17.8795795  67.3796692  26.4686012  18.1170826
  31.8825397  21.3021603  22.4320889  31.7950001  21.1306076  21.4944649
  32.7852554  21.6025887  22.5373535  38.0825043   8.5503139  33.9091606
  37.7076111   9.0597477  33.1907158  37.3326149   8.3247662  34.4596367
  45.9866524  27.2229710  11.9720926  45.3068085  26.6974487  12.3938389
  45.5064278  27.8201847  11.3985491  77.1929169  15.3061037  40.2918625
  77.0622330  14.8818903  41.1399155  76.3154297  15.3599463  39.9132385
  68.6923523  48.7136269  36.2303963  68.2583694  48.7161369  37.0835571
  68.9091034  47.7943916  36.0746384  14.4095697  50.5955429  33.7504158
  14.5327110  49.7573051  33.3049660  13.5006151  50.5763893  34.0498619
  22.4752293  58.1297035  21.5078888  22.1866188  58.7944489  22.1332302
  21.6879292  57.6180954  21.3217583   0.7023926   1.3885485  55.9451447
   0.1265790   1.5086679  55.1899986   1.5611001   1.6820321  55.6406441
  72.4269028  40.4152985  62.8846397  73.2876740  40.8298721  62.8260765
  72.5459518  39.7040138  63.5140305   9.1932735   3.7445970  16.4761200
   9.0743847   4.6154833  16.0971012   9.6124411   3.9064054  17.3213120
  70.8452301  40.8426323   6.4073610  70.5166168  40.1781693   7.0129461
  70.1390610  40.9573288   5.7714319  74.0618896   0.3620711  46.6940155
  74.8083801  -0.1649751  46.9789734  73.9281693   0.9910336  47.4030685
  78.2599869  38.8177986  75.5689163  77.3792725  39.1598129  75.4152756
  78.1749115  37.8725319  75.4445648  75.0592728  10.3214235   6.7344766
  74.3198929  10.6167545   7.2658248  75.5990677   9.8108377   7.3379297
  80.2039871  22.1161690  63.5114212  80.6306992  22.9038639  63.1742554
  80.7921066  21.4017315  63.2666168  40.6272736  55.4993248  56.1332970
  40.6674194  55.3169899  55.1944809  41.1799393  54.8269691  56.5317154
  85.4131012  51.7486649   5.9525843  85.0653992  52.4668007   6.4813714
  85.7303009  52.1708565   5.1542292   4.7384262  50.3955536  22.6344776
   4.2946377  50.5307732  21.7972202   4.0465007  50.1034088  23.2278748
  50.9779243   8.1659164  23.3325329  51.5561638   8.5090380  24.0138092
  51.5717697   7.8260818  22.6631374   1.9053230   6.2371130  21.3267460
   2.6293511   5.6287603  21.1786861   1.2840354   5.7441187  21.8626480
  27.0448513  54.5077782  19.1317520  27.5088615  54.0383072  18.4385548
  26.6335278  53.8188667  19.6537170  30.8788452  24.2562733  12.3077717
  30.6339302  24.7745209  13.0743666  30.6790295  23.3534565  12.5552101
  33.8017693  60.2143402  78.0142136  33.3700905  60.7728767  77.3677444
  34.2273178  60.8270149  78.6140213  29.2630653  48.8896828  48.9852600
  30.2176323  48.8760071  48.9156303  28.9589882  49.0096130  48.0856018
  69.2308655  12.1101522  71.3420334  69.7276764  11.3309298  71.0925980
  68.3262482  11.8051882  71.4120712  61.0588837  47.3758011  11.7974501
  61.9495964  47.6899872  11.6420336  60.4975395  48.0381889  11.3945093
  55.2811775  29.2760792  15.5339384  54.9426918  28.5523033  16.0610161
  55.9658661  29.6675892  16.0762959  40.9302559  67.6843338  16.6873207
  40.7086487  67.7653503  15.7596579  41.0725670  66.7469254  16.8186016
   9.6812754  64.6943512   9.7954140   9.2354374  65.1419601  10.5145140
   9.0493059  64.0435944   9.4898462  17.6213512  32.8291550  77.4115601
  17.0045471  32.1293182  77.1970520  17.9457474  33.1309128  76.5630646
  47.7815170  64.9563599  73.1217880  47.8538551  65.8422165  72.7664642
  47.5336189  65.0850296  74.0373383  24.5686798  50.9604187  28.6855183
  25.3827381  50.8671684  28.1906986  23.8987827  50.5778503  28.1188507
  30.7015324  27.5816822   0.3661020  30.2945957  27.4976788   1.2284113
  31.0861244  28.4582214   0.3671185  20.2641869  29.9046059  67.1392593
  20.7594452  30.4136276  67.7810135  20.7004395  29.0527954  67.1209869
  55.0791435  64.5191498  22.4494724  54.1994324  64.5349197  22.8264256
  55.0419044  65.1471939  21.7280846  49.5680084  29.4925728  16.6930618
  50.2591438  28.8386955  16.5881577  48.7715797  29.0479431  16.4028244
  70.6646271  48.1749802  13.3055191  70.2706528  48.4831276  14.1216488
  71.4879150  47.7682076  13.5756187  62.5347939  60.4751511  61.6174622
  62.6312103  59.5743294  61.3085136  62.6655769  61.0117722  60.8356934
  11.8718777  39.2624550  28.2515602  11.5280390  39.4138412  29.1319504
  12.8169031  39.1740570  28.3754330  72.4388962  64.1850967  52.1055527
  73.1965561  64.2434235  52.6875992  71.6958313  64.4374847  52.6536331
  78.9206085  10.0284500  53.6994972  78.9979248  10.4631147  52.8501930
  79.6725540  10.3451834  54.1999893  66.8561478  42.8372269  88.4018250
  66.7621918  43.1018600  87.4867477  67.0119324  43.6557045  88.8730621
  26.9446468  22.8496857  83.2228088  26.1947803  22.8789272  82.6286011
  26.7487278  22.1280384  83.8203659  38.3207092  48.4972305  59.1954765
  37.9210205  47.8184586  59.7393036  38.5543900  48.0470200  58.3837280
   4.6047750  33.5367661  67.4775009   5.0679846  32.8020554  67.0751724
   5.2937226  34.1657219  67.6919708  16.9193230  60.0901909  61.7986565
  17.2917213  60.1933746  62.6743889  17.5406475  59.5253067  61.3392105
  34.5072250  32.7550125  17.0137062  33.9951591  32.4604073  17.7668514
  34.1347084  32.2806168  16.2704601  72.6953888  32.5048561   0.8785122
  73.1843948  32.6403465   1.6901461  73.0878983  31.7230091   0.4900751
  36.4231339  34.4883537  17.3591709  35.8348045  33.7987061  17.0517826
  35.8401146  35.1630096  17.7072468  48.7701111  51.6438637  62.9958572
  48.4728470  52.4456749  63.4259300  48.4652672  51.7294350  62.0925407
  21.3628178  54.0041466  19.9718685  21.2123222  54.7764626  19.4267883
  21.5142994  53.2954674  19.3465252  42.8918343  47.6313553  28.3271809
  42.8124123  48.0544662  27.4722519  42.3738403  48.1808205  28.9153996
  10.8218870  46.1258087  37.6190414   9.9110298  45.9618034  37.3747597
  11.0604343  45.3796120  38.1690559  73.2831116  51.8664436  43.0905724
  73.7657852  52.1787224  43.8559151  73.5192184  52.4776115  42.3927460
   3.7217245  60.9585495  48.3556786   3.2370341  61.7714119  48.4990845
   4.4806232  61.2209435  47.8346634  29.3339214  11.9245415  20.9024696
  29.5816841  12.7605457  21.2973633  30.1626568  11.4601765  20.7850208
  81.0280914   4.4542413  66.9283371  80.8726807   4.0300808  67.7722397
  81.9786301   4.4282241  66.8186493  31.3103676  50.9908981  31.4224911
  32.0570068  50.5289230  31.8037262  31.2266541  50.6251602  30.5418873
  10.0118895  33.3171539  81.9185257  10.1010389  32.6369476  82.5860596
  10.8904104  33.4069366  81.5492401  36.4337006  42.6801567  36.3176575
  36.9768944  43.2700462  36.8403473  37.0485992  42.0355453  35.9675064
  51.3935471  50.8214607  10.3612146  50.6579399  51.4230232  10.2461748
  51.1533585  50.0488358   9.8497496  18.2659740  49.9238930  10.8203325
  18.0804062  49.2520447  10.1642714  18.3365536  50.7358360  10.3183384
  12.5906401  34.2052650  31.5203381  13.1495123  33.9631538  30.7819118
  12.2966290  35.0932426  31.3171444   8.0531301  24.5992870  81.7732697
   7.6317716  23.9147587  82.2929840   8.7946386  24.8835258  82.3076859
  63.4561157  10.2233648  73.1578827  63.2003670  10.6912489  73.9528046
  62.9512215   9.4106197  73.1854095  60.3502464  49.2397804  78.8060074
  59.8582954  50.0267715  78.5717850  59.7357826  48.5206757  78.6591949
  21.3799000   0.4124548  29.0295887  21.1486626   1.1114539  28.4179001
  21.6177597  -0.3266827  28.4698277  81.4766312  38.5273399   9.9234953
  81.5874023  38.4846382   8.9736862  81.0259933  37.7134895  10.1489038
   1.6322281  59.7129517  63.8230324   2.0592096  60.3048210  64.4423981
   1.2575680  59.0229530  64.3705368  84.7187805  59.8229561  83.8342896
  84.4485321  60.4032211  84.5459671  83.9212570  59.3514099  83.5937805
  63.9385719  26.5551853  22.0084229  64.4806976  26.1774445  22.7009850
  64.5214310  27.1620846  21.5521564  36.8076363  49.9516792  24.4897251
  36.2599182  49.1976967  24.7082424  36.1846504  50.6494026  24.2864990
  41.4500771  59.9784660  53.8324165  41.9982872  59.5032921  54.4568443
  42.0166092  60.6729851  53.4963875  16.4195175   4.6543050  57.4601860
  15.5827007   4.8792095  57.8668671  16.2089424   4.5231180  56.5356979
  49.9266090  16.4273281  25.9901943  49.6710243  16.5597801  25.0773067
  50.8319817  16.1201973  25.9432888  44.9990463  43.6711235  13.9345636
  45.4088669  42.8762817  14.2758923  45.2617645  43.6999474  13.0145741
  38.8121071  65.7002182  10.0825033  38.3570023  66.3733978  10.5884151
  39.7057953  65.7062073  10.4253101   6.8405900  64.6439972  60.7757378
   7.7879615  64.5318451  60.8540916   6.6533794  64.4632339  59.8545914
  57.9043388  71.1212769  14.4637108  57.5032616  70.5197525  13.8363876
  58.2516670  70.5534515  15.1515827  46.9644279  67.8673096  61.4045601
  47.2173347  66.9904785  61.6934166  46.3503647  67.7150192  60.6862526
  80.1119232  48.7192345  29.2483120  80.4197922  48.8889084  28.3579979
  80.9121094  48.6442184  29.7682247  22.2494793  36.8105011  14.8111839
  21.7100296  37.5046692  15.1898155  22.6557293  37.2142563  14.0442591
  31.5100803   0.3860326   0.2755730  30.7691345  -0.1535636   0.5513721
  31.7773819   0.8495355   1.0692651   8.1003771   0.4634567   0.3196544
   7.9870758  -0.1534947   1.0426795   7.7855916   1.2985195   0.6657927
  12.0790052  42.5640182  67.1693726  11.9008617  42.0978050  66.3525848
  12.9979916  42.3740387  67.3580627  65.4118118  59.6660538  53.9014969
  64.5112228  59.7371407  54.2178993  65.6084900  58.7303810  53.9469528
  68.0554810  23.1483860  81.2624512  68.5997543  23.0481911  82.0434494
  67.1602554  23.0210743  81.5764389  44.2534790  30.7435226   8.7893934
  44.2159462  30.5807438   7.8468828  44.9092293  31.4339123   8.8872890
  37.3953896  13.2037363  31.0814648  36.6768074  13.2913122  30.4552040
  38.1340065  12.8948059  30.5568371  61.7441902  46.6286049  68.3776398
  61.8358841  47.2882767  69.0651398  61.4080315  47.1133919  67.6238403
  18.2901154  67.5925293  82.8716736  18.7840290  66.8100204  83.1165466
  18.9381714  68.1669540  82.4638824  20.8060818  61.8284836  64.2327805
  20.5942173  62.7489395  64.0775223  21.2923107  61.8304062  65.0572891
  75.5978775  22.1456661  86.0363770  75.0216751  21.3976803  85.8790894
  76.2885361  21.8010826  86.6024933  71.8850784  52.3502197  14.1062746
  72.0744019  52.9057617  14.8624249  72.6775284  52.3956299  13.5713053
  53.9349403  39.8207130  84.6987457  54.1052475  39.2582054  85.4542618
  54.7903862  39.9291458  84.2831955  59.9480095   6.2315955  53.9085732
  59.3149033   5.5565434  53.6642151  59.4205818   7.0204678  54.0340004
  24.0402222   5.4224548  76.6604996  23.4399662   6.1392856  76.4553680
  23.8352203   5.1901317  77.5661621  62.9919853  40.0582428   4.6199818
  63.7289963  40.4827728   4.1808639  62.2289124  40.5746346   4.3605757
   9.2823744   5.0190587  86.4728928   9.6877565   4.1552920  86.5490799
  10.0029993   5.6345487  86.6074448  46.3156281  67.5020294  25.4968739
  46.3441658  68.3793793  25.8785553  45.3906326  67.2576981  25.5270176
  56.8377876  10.8205652  17.3270874  56.1264610  10.3351059  17.7449093
  57.5048981  10.9019585  18.0086823  72.4960480   5.4413671  60.1659241
  72.7031555   5.6292772  59.2504883  72.3427658   4.4967728  60.1877899
   8.6514645  48.2534981  17.7107258   8.9691305  47.4911156  17.2268944
   9.4290390  48.7967682  17.8390560  78.5200119  26.8842812  77.1751938
  78.6993027  27.8038960  76.9792557  78.1663895  26.8934345  78.0646286
   9.9003859  22.0535202   9.0481682   9.8590059  21.6282730   9.9047213
  10.5256824  21.5275402   8.5495911   6.1740537  15.6029272  80.9181366
   5.9545569  15.1227827  80.1196899   6.6106992  16.3963165  80.6081314
   6.0310035   0.4537816  83.1059494   6.7040596   0.9517601  83.5698929
   6.3434596   0.4131724  82.2020874  63.5879517  55.1427536  54.3704567
  63.9058075  54.3321304  54.7680626  64.3664322  55.6948662  54.2971458
  23.9723206  43.9475479   2.3064289  24.1894054  43.0290108   2.4657826
  23.2261944  44.1204109   2.8805785   5.8002262  65.0454559  21.0196590
   5.9152508  65.5146713  21.8460007   6.4207954  64.3183212  21.0687160
  82.4011993  32.1763115  55.1479073  82.2466507  32.5802269  54.2939758
  82.7746048  32.8782921  55.6808434  50.9740982  16.5991783  41.6778755
  51.7150497  16.7920570  41.1034012  51.2479820  16.9188633  42.5375404
  48.1888695  32.0662079  22.8455029  47.7568932  31.5208549  23.5029354
  48.9880600  31.5877609  22.6250229  76.6718445   3.4472451  82.9320526
  77.2766190   2.8175738  83.3244705  76.7764435   3.3238466  81.9886169
  30.0887814  47.6138802  28.0305576  29.9258461  46.6968613  28.2513714
  29.3499813  47.8612595  27.4744911  58.1304169  19.9431801  44.3032036
  58.3714905  19.0798626  44.6390572  57.9633789  20.4669323  45.0867920
  68.8207092   8.2626133  49.8177719  69.2833176   9.0766306  50.0167580
  68.0406647   8.2888174  50.3719215  46.1618500  61.2440338  19.1036530
  46.2644653  61.6682281  18.2517357  47.0144882  60.8449326  19.2767410
  68.6001968  44.1474113  23.0955315  68.2303925  45.0251694  23.0006065
  69.2722549  44.2423592  23.7704849  24.2769413  56.7381859  37.4338036
  24.2156239  57.3205566  38.1909828  23.5710487  57.0240784  36.8539696
  69.7669754  37.4803658  78.8244476  69.1128845  36.8882217  78.4532852
  70.5358200  37.3687325  78.2652969  35.9069939  44.6938286  27.7679577
  35.4864311  43.9932365  27.2694302  36.5544815  44.2453423  28.3118763
  12.5188913  20.0443649  58.3026505  11.9253759  20.7944546  58.2660789
  13.1141138  20.1736927  57.5642624  10.9585648  30.9824238  23.1875973
  10.8777742  30.0297260  23.1420441  10.3528662  31.3063087  22.5209198
  52.9330101  50.2677383  45.0526352  52.7589493  49.6512718  44.3413620
  53.7133446  50.7448921  44.7704430  59.2556343  42.1856041  44.8964996
  59.1275101  41.9983711  43.9665756  58.7029419  42.9486160  45.0655556
  13.8922081  15.9484997  79.8922348  14.0293179  15.0060034  79.9878006
  13.0706387  16.0230026  79.4067383  28.2827129  68.1886139  24.7306919
  29.1166592  67.9198380  24.3453007  27.7111206  68.3457108  23.9791374
   0.3305117  57.8268509  74.2910004   0.4565196  57.0070381  73.8132324
   1.1820338  58.2620049  74.2487488  37.7750778  32.5478706  15.7692938
  37.5122871  32.6295433  14.8525038  37.1832695  33.1337929  16.2411938
  42.7602043  62.3789864  25.7712822  41.8315125  62.5459862  25.9321308
  43.1797409  63.2321320  25.8824615  46.2308922   8.5727596   9.4364567
  47.1690483   8.3836555   9.4180460  46.1795959   9.5282793   9.4605694
  38.3945007  41.7796249  12.9577103  37.6832428  41.3203735  12.5111294
  39.1802559  41.2820740  12.7312994  81.2475128  60.8030586   4.5034070
  81.8277512  61.1532326   3.8274357  81.5709839  61.1862640   5.3187318
  20.2983932  38.7396622  30.4027176  19.4460011  38.9533920  30.0232716
  20.5475082  39.5251465  30.8897362  83.4084854  56.8284035  86.2683563
  84.3634109  56.8501549  86.3305740  83.2240906  56.1082344  85.6653748
  67.3980789  54.1451187  44.9858742  68.1145096  53.9189491  45.5790100
  67.8253632  54.5853348  44.2511139  32.1630020  57.7164803  61.5769386
  32.4893761  57.2422256  62.3416557  31.3370590  57.2834969  61.3611221
  37.9897652  39.9617500  -0.0066165  38.9142227  39.7156639   0.0257656
  37.6200905  39.6112785   0.8037797  21.2952118  50.0334587  63.1200562
  22.2048321  50.3216667  63.1959496  20.7986221  50.6698074  63.6345367
  45.5606041  46.3501358  56.3064232  46.2655182  46.0774345  56.8937607
  45.9779472  46.4205208  55.4478760  68.7941666  57.2972755  56.6459732
  67.9101486  57.3394279  57.0106277  69.2883835  57.9516296  57.1397362
  79.2408905  19.1175194  12.0416994  79.9624939  18.8939896  11.4538612
  78.7902145  19.8396358  11.6038914  30.8358955  31.9322701   4.4757981
  30.2632027  31.1655426   4.4562192  30.9722958  32.1056175   5.4072371
  40.4127121  59.7093620  82.0200577  39.5530853  59.4376755  81.6984100
  40.9711075  58.9432831  81.8875580  64.4918518  30.3229790  23.2700157
  63.5812988  30.3201923  22.9748688  64.5879669  29.5051270  23.7579842
   3.7927284   6.0054135  70.7168198   3.8413770   6.5595655  71.4957809
   2.9131496   5.6288996  70.7452850  53.8635406  11.8429661   1.7349073
  53.7946014  12.4604044   2.4630899  54.6248512  11.3038216   1.9492910
  79.4995422  45.6890945  57.8745079  79.1754608  46.3702049  57.2851944
  78.7456741  45.4663696  58.4206924  34.4147263  59.7860031  50.4630318
  34.3081398  58.9828796  49.9532661  34.2863998  60.4911804  49.8286133
  81.7107391  52.0117950  73.5637512  82.3835831  51.7405128  72.9393234
  82.0372620  51.7131119  74.4125137   9.3284798  29.6103878  80.8476868
   8.8877563  29.9291115  81.6353455   9.6509724  28.7419147  81.0884933
   5.5977182  57.8246765  71.3025818   6.1949329  58.5409966  71.5180969
   4.7821689  58.2595024  71.0535126  68.5254059  64.6967392   8.7216702
  68.3568344  63.7682228   8.5614452  69.3243942  64.8836441   8.2288046
  17.7682209  18.7893047  77.2874832  17.3324852  18.0908318  77.7758560
  18.6554928  18.8145084  77.6457367  28.7786961  33.1521530  16.9791412
  29.0925064  33.2435341  17.8788109  28.9313335  34.0104752  16.5838947
  63.8535461  45.8110924   0.6233154  62.9122543  45.9848709   0.6242269
  63.9280701  44.8941078   0.8875531  36.2112312  16.2954235   4.7701640
  37.1268654  16.1102562   4.5614414  35.9573708  16.9781933   4.1491880
  59.8994675  51.0232658  62.9187469  59.7097168  50.4335289  63.6484299
  59.2772751  50.7689857  62.2372398  35.5936203  62.6763268  33.2779198
  36.2239532  62.6907959  32.5577049  34.8282509  62.2285995  32.9173965
  63.4969635  60.3533897  75.6151276  62.9439468  59.7476807  76.1086044
  64.3762589  60.2162895  75.9676514  56.9461021  23.4294987  24.7826519
  57.2284164  22.9507580  24.0033321  55.9900780  23.4203300  24.7361374
  62.2140503  14.2603989  41.1324081  62.3338661  15.0096579  40.5488930
  62.8364296  14.4092617  41.8442459  19.5067902   7.6731930  38.8678169
  19.0104485   8.2893801  39.4065094  20.4231968   7.8948197  39.0330811
  49.2752953  25.2142525  67.2904587  48.4142113  25.6210880  67.1942749
  49.2002258  24.3816280  66.8242722  84.9521027  69.9533234  32.0353088
  84.9233475  69.7168350  32.9623909  84.7116470  70.8796387  32.0168495
  31.5124321  16.5219059  17.6653519  31.3445816  15.8566456  18.3327999
  30.7341766  16.5040684  17.1083679   0.0743975  20.6112328  86.6264191
  -0.4306029  19.9087887  86.2168121   0.8617021  20.6860428  86.0871735
  81.8548737  25.7989120  31.7273197  82.2206573  24.9845963  31.3818893
  82.3014755  25.9259872  32.5643578  45.6315041  44.6304703  74.2422791
  46.0831490  43.8420067  74.5432281  44.8932877  44.3023949  73.7288208
  23.9531937   7.2297721  47.1270409  23.5795822   8.0220795  46.7411728
  23.5751667   7.1899991  48.0055313  69.4642639  17.3580475  50.3237686
  69.4873581  18.0247231  49.6372948  69.3138275  17.8503361  51.1307678
  51.7598724   9.0921535  33.9691544  51.4803467   9.9763889  34.2062683
  52.3503914   8.8301506  34.6754646  19.6808338   5.9571991  15.5661392
  19.8761826   6.6454587  16.2020397  19.0421925   5.3973880  16.0077057
  61.8219261  58.9423294  86.5404739  61.6217728  59.5972328  87.2092590
  62.6669159  59.2153816  86.1831741  23.6176434   4.3295093   6.4053926
  24.4801178   4.2850003   5.9926114  23.1556225   5.0141478   5.9216175
  82.4517670   0.5955838  34.9317741  82.2592392   1.1017928  34.1425247
  82.4833221   1.2470331  35.6323814  51.7540588  20.9327641  21.8114681
  51.2585640  20.3961849  22.4301796  52.6399727  20.9588223  22.1730061
  85.1398163  41.4704475  38.4929428  85.9371338  40.9907036  38.7173500
  85.3859253  42.0038300  37.7371864  84.5228271  52.0098724  57.7157173
  85.0943146  52.0274048  58.4833908  83.6498566  52.1935043  58.0627556
  51.9485741   4.5626068  22.7364502  52.7271614   4.8796906  23.1941471
  52.1187630   4.7532134  21.8139877  75.5572281   5.5059223  34.6325798
  75.8280182   6.4182162  34.5295029  75.7668228   5.2952142  35.5424728
  34.9922447  24.6765137  87.2882690  35.2839622  25.2188587  86.5554733
  34.4782028  25.2700253  87.8357468  75.2875366  13.6328468  63.8817368
  74.7152405  14.2697582  64.3095932  75.3328857  13.9251738  62.9713974
  33.4977417   3.3102260  71.0038757  33.6381149   2.8553772  71.8343201
  32.6888390   3.8047979  71.1354218  56.3530197  59.0855026   9.4576826
  57.0028305  59.6227798   9.0045671  55.6385002  58.9916649   8.8276930
  34.7986565  19.4185352   1.6742831  35.3186035  19.1295204   2.4241881
  33.9066315  19.1381416   1.8789839  75.7733307  51.4446259  37.0525818
  75.5520020  51.2474442  36.1424370  75.3065643  50.7818413  37.5615768
   1.0214552  41.7377434  70.0919800   1.3123249  41.3916817  69.2482605
   0.3802371  41.0994415  70.4044571  22.2301922  67.7581482  63.4635544
  21.3334122  68.0332947  63.2729988  22.6288414  67.6282806  62.6030655
  46.5525322  65.3033142   5.9012146  46.2890167  65.3144379   6.8213596
  46.1350632  64.5204315   5.5419707  30.4786606  23.7776108  31.5916653
  30.0210419  23.6699657  30.7578602  30.1078568  24.5762596  31.9670258
  24.7103710  14.3073597  77.9717484  23.8232594  13.9860783  77.8103790
  24.6018944  15.2471132  78.1177902  12.9489594  64.4720764  45.0040016
  12.9653568  63.5216141  45.1161880  12.3858519  64.6137543  44.2430344
  70.8653488  17.9073734  44.3749084  71.2008209  18.6358223  44.8974533
  69.9581375  17.8043098  44.6622696  68.3764496  55.7902985  61.5932693
  69.1253815  56.1309471  62.0824432  67.9979324  56.5598907  61.1682014
  78.1815414  35.6857491  18.6576729  77.5749512  35.4764671  19.3679390
  78.9672241  36.0065422  19.1004181  29.7021790  31.3297424  85.5685196
  28.9179935  30.9571304  85.9715576  29.7340794  32.2294922  85.8935776
  15.3365841  50.5134926  84.8870544  15.1991491  51.4095764  85.1942596
  15.6928797  50.0520210  85.6462173  82.0423660  55.2591095  11.8024416
  81.6813202  56.0944862  11.5057497  82.9790955  55.4263916  11.9062490
  82.1074524  48.6730843  84.5693893  81.4452972  48.4600754  85.2269669
  82.8721619  48.9426537  85.0781021  12.4713631  27.1865940  29.1940918
  11.9891815  27.8091145  28.6498470  13.3135033  27.6119232  29.3557320
  38.8351326   1.2441382  76.4391098  38.9076653   0.3877349  76.8604736
  38.9885254   1.8721467  77.1450195  32.6447029  46.9825478  74.1572571
  32.1441078  46.2354965  74.4852066  32.3326836  47.1049118  73.2606506
  50.0872726  14.3778229   1.0761150  50.9693756  14.5113239   0.7292628
  50.0513840  13.4447613   1.2866869  14.3228807  70.1906967   0.3284456
  13.8338823  69.4086456   0.5843741  15.1960545  69.8659363   0.1086068
  84.3713150  22.3372974   6.0812273  83.9496613  22.2595806   5.2254219
  84.8746872  23.1496639   6.0273347   1.3003385   4.3327274  46.7470818
   1.2841899   5.1885262  46.3186188   2.1769114   4.2714252  47.1266785
  79.7249603  61.1482430  51.9544640  80.4344406  60.7409706  52.4514503
  80.1688919  61.6523895  51.2725601  34.3694458   1.1078819   1.8925312
  34.3601494   0.1682479   2.0748315  34.4521828   1.1663877   0.9407102
  27.7947655   2.8130906  35.2658730  27.2348537   2.1352255  35.6443291
  28.6730614   2.6029892  35.5831795  19.6643772  59.9906654  40.3220901
  19.0405178  60.5914307  39.9145241  19.5929050  60.1707687  41.2594719
  30.5532417  50.6670303  81.7855835  30.8741074  50.0858803  81.0959854
  31.3460827  51.0116272  82.1965408   1.0726508  50.1590614  57.7582855
   1.3349130  49.2386742  57.7399712   0.3054574  50.1781616  58.3303719
  76.6266708  71.4609985  84.5233536  76.3096085  71.5684814  85.4200974
  76.5285339  70.5256729  84.3451004  21.7809391  70.1510925  53.5076485
  20.8403912  70.0149155  53.3933907  21.8595009  71.0663681  53.7766113
  44.0141449  17.2342224  27.7787323  44.1514206  16.7627163  26.9571056
  43.2606087  17.7991562  27.6076698  66.2472839  17.1448402  69.0503616
  66.9359512  17.7367649  68.7477112  66.1970825  16.4698677  68.3735123
  78.8017883  15.0317249  10.9832306  78.3070526  15.8109531  10.7297153
  79.0864334  14.6483345  10.1536398  64.1149063  68.2211990  54.8914757
  64.9126968  68.6977234  54.6619530  64.3371277  67.3007050  54.7516365
  70.7643967  36.0789871  74.5648117  70.1296844  36.5826683  75.0743942
  71.4889069  36.6867332  74.4166260  60.2715378  26.0513744  51.5915489
  60.0943031  25.5666809  50.7853889  60.2557526  26.9710083  51.3264885
  64.7416458  52.5486259  41.6989708  65.5827866  52.3036423  41.3133545
  64.7770233  53.5029297  41.7643929  12.5634413   8.0706110  38.2828369
  11.8225403   8.2237396  37.6964493  12.4894857   8.7565289  38.9463692
  59.9034615   1.5706910  14.8587065  60.1785851   1.8986714  14.0025711
  59.3533707   0.8130980  14.6594887   2.4141791  40.7246475  49.4916725
   1.8638831  40.5377960  50.2522621   2.9494429  39.9383888  49.3843575
  17.1833687  49.2184563  69.7040710  16.5960579  49.8608513  69.3057861
  17.1429501  49.4060326  70.6418381  38.8578224  60.6261673  54.0276947
  38.7822151  60.7607307  54.9723663  39.6750641  60.1396637  53.9197159
  72.7977295  68.4172821  32.4856529  71.9524155  68.8646774  32.4467239
  73.3342285  68.8613739  31.8290062  82.7458801  29.7375412  61.6039734
  83.1728516  29.0526676  61.0893135  83.3157043  29.8565292  62.3638268
  80.4809113  47.1184120  20.7365093  80.7359772  47.6713791  19.9979954
  80.2680969  47.7361908  21.4360065  13.3706369  30.1096077  12.9906511
  13.3829765  29.1705990  12.8053284  13.1763601  30.5177307  12.1468954
  23.1922684  38.7732735  74.1899109  24.0611877  38.4791489  73.9165955
  23.3593540  39.5492630  74.7248383  46.6818886  12.0824518  86.0752182
  46.9701195  11.6959829  85.2482986  46.0054665  12.7109766  85.8229446
   6.3953972  28.3419666  51.6120453   6.1700759  27.4281025  51.4379349
   5.7305775  28.6383209  52.2336731  50.0245323  32.8280716  10.3115940
  50.7063828  33.0138474  10.9571924  49.7608566  31.9262600  10.4944620
  15.4642458  65.3415451  37.4841499  15.5665951  64.5675278  38.0379105
  16.2413158  65.8702316  37.6654892  49.0178528  38.0927582  33.4325104
  48.1858826  38.4951591  33.1832504  48.7744484  37.2341270  33.7785416
  61.3885918  17.2922192  14.3656454  60.6302757  17.7685223  14.7037601
  61.6210136  16.6832943  15.0666599  30.1211739  10.1428957   6.0495663
  30.8210258   9.9475441   6.6726851  29.4541321   9.4785414   6.2225456
  25.7008953  10.1415310  83.2839966  25.1651268   9.4835987  83.7270584
  26.4851456  10.2173834  83.8275299  61.4065895  46.1064987   1.7430984
  61.1803398  46.3936424   2.6277392  60.7639694  45.4267006   1.5402453
  31.6202736   0.3595514  77.9445724  30.7306156   0.5245267  77.6322861
  32.0062180   1.2303650  78.0392456   8.0901375  69.1288605  83.8580170
   8.7893686  69.4631653  84.4197464   8.1437893  69.6627655  83.0653610
   1.5720856   9.4663620  29.4119911   1.9660267   8.6053867  29.5525723
   1.3950063   9.7955055  30.2932053  59.6716156  11.1240215  14.6647921
  60.0931129  11.3849897  13.8459711  58.7475395  11.0224791  14.4367390
  27.4555550  57.0353470  76.1833954  28.2134438  56.5262032  75.8959732
  27.4367504  57.7899323  75.5947647  67.3328934  31.7928066   9.6766148
  67.8513260  32.2314987   9.0020676  66.4329987  32.0705338   9.5054865
  49.7291107  42.1639290  22.0539818  50.2249298  42.6529579  22.7106743
  50.2528191  42.2357330  21.2559814   2.4856658  56.3046112  40.4140472
   2.8721232  55.9411430  39.6173210   2.5189552  55.5861778  41.0456963
  66.2255402  47.0505219  35.7840881  65.4806061  46.9405518  35.1931419
  65.8299789  47.2028961  36.6423149  48.8238029  57.7439232   3.4244740
  49.6843643  57.5226746   3.7804480  48.7035141  58.6675110   3.6452689
  38.7415237  61.6356049  69.4048462  38.3113708  62.2798271  69.9671478
  39.1660919  62.1575089  68.7239761  84.7882767  56.5780830  81.9288330
  84.0600433  57.0127640  82.3726349  84.4788055  56.4473000  81.0325317
  31.4704037  56.8270569  35.5110931  31.2881088  56.9881744  36.4368591
  31.3488998  55.8836937  35.4037056  34.2100220  42.1464195  15.7431698
  34.5167084  42.9902306  15.4112711  33.3634148  42.3406258  16.1453819
  33.5933113  46.7136841  18.6456337  33.6776772  47.5501976  18.1880760
  32.6573410  46.5159416  18.6125965   5.0825720  56.3085976  58.3391342
   5.8067160  55.8944397  58.8085175   5.4961686  56.7340698  57.5880356
  46.1930962  64.1921082  80.5269165  46.6823654  64.8882294  80.9653931
  46.5043983  63.3853912  80.9374466  58.5513268   0.5397947  33.3129501
  58.5137901   0.2167338  34.2132034  59.0301628   1.3663034  33.3748512
   8.4224434  56.2557373  29.2618370   8.2739840  55.9996071  28.3515682
   8.8368988  57.1166077  29.2038708  62.3267479  56.5056610  56.4905052
  61.6295929  56.7834206  55.8963165  62.8698311  55.9184799  55.9646606
   4.3702550  20.7749062  13.6375532   4.9009047  21.1531944  14.3386526
   4.1801229  19.8850479  13.9345951  72.9850998  45.0752869  72.3382339
  72.0314713  45.1461487  72.3808136  73.2847443  45.9698143  72.1761551
  77.4006271  45.3821640  48.3823814  77.1842880  46.2657051  48.0844154
  76.5616150  44.9215965  48.3952751  57.5737381  54.4675789  20.7138329
  56.8570633  53.8495560  20.5700970  57.4656944  54.7528114  21.6211357
  41.8606567  16.2348576  76.9065628  42.0889931  15.9817505  76.0121231
  42.6898193  16.2024765  77.3837128  63.8581200  35.4610138  76.5833054
  64.4986801  34.8692856  76.1886139  63.0531311  34.9453049  76.6308899
  60.6182098  46.1779480  71.2946243  60.7328072  47.1107445  71.1129913
  60.2863312  45.8132019  70.4742279  64.8637848  39.5428925  70.0411530
  65.5728455  40.1050110  69.7289200  64.5551300  39.9686470  70.8409653
  82.6920319  33.2045021  16.5051441  82.5562286  33.7030296  17.3109112
  82.2335434  32.3777046  16.6548862  46.9459152  37.6594658  15.9564676
  46.3336639  37.4596062  15.2483492  47.7583580  37.8984680  15.5103188
  24.5755939  19.2243519  59.2682610  25.4672718  19.0778770  58.9525261
  24.1019173  19.5530243  58.5041695  81.7637863  38.3495903  46.0969086
  81.7083435  37.4253502  46.3396835  81.4724655  38.3757095  45.1854897
  76.9245911  49.5523148  14.3516054  76.0304337  49.8622475  14.4953537
  76.9361572  49.2701607  13.4370079  23.0873108  29.3863201   1.9455404
  22.2658787  28.9865551   2.2313190  23.5022335  28.7176647   1.4005904
  79.7564697  61.2273445   9.4985800  80.3146744  61.9990654   9.4032516
  79.8923492  60.9436569  10.4026213   4.4991078  38.1209793  43.3793411
   3.5668256  38.1077614  43.5959206   4.8149424  38.9532852  43.7311211
  81.3001328   5.9549541  62.2195930  80.7213287   5.3965397  61.7005615
  82.0909348   5.4301820  62.3440285  73.2532883   6.5401106  30.3563271
  73.1752777   6.5308471  31.3102970  74.0890350   6.1079898  30.1801529
  57.9783363   0.4797902   4.0567055  57.9525490   0.8321199   3.1670816
  58.0522385  -0.4670506   3.9372783  20.9827900   2.6575906   0.0290260
  20.8107853   2.7272177   0.9680672  20.2392769   3.0968308  -0.3838754
  31.4829178  71.2141342  55.9091721  30.6518555  70.9142761  55.5408630
  31.6008816  72.0933685  55.5496254  64.3331833  31.0614223  62.6663551
  65.2054291  30.7842426  62.9467010  64.4810791  31.5141716  61.8360672
  34.3526154  39.3357239  35.7281647  34.0386238  38.4362602  35.8209152
  33.9647598  39.6414528  34.9082069  64.7906189  47.4219055  41.0744667
  64.9004974  47.5413284  42.0178108  64.5873795  46.4920692  40.9728279
  29.4717846  65.8060989  55.1522026  29.6526070  65.2598038  54.3872833
  29.0135937  66.5686798  54.7989883  36.2853241  14.2636871  82.7720413
  36.8839035  14.8661976  82.3305435  35.4342155  14.4326105  82.3679199
  76.9888077   3.1603730  33.7965469  77.8481979   3.2444236  34.2096138
  76.4839630   3.8965659  34.1420631  73.2011642  16.0980244  19.2509995
  72.5241165  16.3441582  19.8812790  72.8350983  15.3442173  18.7883968
  36.2978287  45.2945518  86.3535233  35.4891510  45.6240959  85.9615173
  36.2817345  44.3532944  86.1802902  46.0903168  68.8198624   5.9384646
  46.4029198  68.2883759   5.2063231  45.9202271  68.1883698   6.6374049
  86.0266876  37.8925095  81.6245193  86.3594513  37.7071648  80.7463684
  85.0776672  37.7950211  81.5465546  60.6259193  35.9245148  12.4347868
  60.1317062  35.1157188  12.5683270  61.2044106  35.7326241  11.6967125
  25.4181595  16.1661015  88.1843033  26.1484604  16.6133041  88.6119766
  25.7970982  15.3522825  87.8521347  53.6639366   8.0051880  63.1503868
  53.0441437   8.3495779  63.7934151  54.5252457   8.2077360  63.5155640
  64.4993515  55.6619453   7.2731552  63.5537720  55.7551651   7.3890371
  64.6790543  54.7485390   7.4959269  81.5829544  41.4716949  82.2386169
  81.3877258  42.3457565  82.5764618  82.4344788  41.2532234  82.6173172
  57.1372757  21.7817154  62.5039215  56.8570290  22.2489891  61.7169342
  57.6505203  21.0439796  62.1744385  10.8822823  65.5876846  50.8030472
  10.4611177  64.8203659  51.1904411  11.5818195  65.8122711  51.4165955
  54.9820099   6.1302190  82.6548004  54.2895393   5.6044598  83.0551682
  55.6704636   6.1652451  83.3189087  80.3867035  36.2290039  10.8740988
  79.7705231  36.4886780  11.5590191  79.9775085  35.4696732  10.4591236
   7.3640161  38.3338509   5.7560210   7.9767709  38.2153587   6.4817781
   6.6728392  38.8905716   6.1145821  80.5724335  41.3536186   7.5369625
  80.6180191  40.7300453   6.8121800  79.9531555  40.9609146   8.1521950
  47.7315941  67.9581909  65.2361145  46.8176765  67.8754959  65.5084229
  47.9072990  67.1580887  64.7409363  24.7769680  56.5189095  76.4981308
  24.4667664  55.9786148  77.2248306  25.6331005  56.8370247  76.7846146
  55.6920013   1.0550714  14.3173790  56.5446548   0.6536475  14.4849415
  55.3237114   0.5432928  13.5971880  57.8354759  54.1518364  12.9370680
  58.1279297  54.2309685  12.0290823  58.1963921  53.3161278  13.2329769
   7.8159332  58.3175316   9.6039667   7.9876556  59.1030464   9.0846281
   7.6217623  57.6399498   8.9563475  57.2796783  11.1827421  74.0128479
  56.5494766  11.4864511  74.5521088  57.7602463  11.9798632  73.7894974
  73.8069458  27.7640667  69.4973526  73.7743225  26.8157616  69.6233902
  73.7763977  28.1246529  70.3835068  67.5328293  36.6329765  29.7704887
  67.6782990  37.5619240  29.5912380  68.3972168  36.2963943  30.0066757
  21.8355541  68.5524673   4.7282553  22.3047352  69.3240891   4.4109235
  22.1837749  68.4052658   5.6076336  33.9464684  59.3590355  84.5851212
  33.3742485  59.3769760  85.3522415  33.3549156  59.2045860  83.8486176
  55.5057487  48.7065392  38.3032837  56.1863174  49.3745766  38.2209244
  55.3841286  48.3774567  37.4126968  45.0373077   3.0315692  69.4331284
  44.4557190   2.5761385  70.0418701  44.4482536   3.5293565  68.8661575
  31.5410099  29.4092693   8.6418295  30.6737614  29.2841148   9.0271225
  31.7712421  30.3127480   8.8585062  44.1287308  38.8665924  29.8303490
  44.3409691  38.8534927  28.8970680  44.1224556  39.7954369  30.0615311
  11.9283209  14.9102221  87.0101929  11.2369595  15.0943918  87.6460648
  11.4927921  14.9668770  86.1597061   8.5048704  65.4732285   2.2045417
   7.5947170  65.1871338   2.1270454   8.5501366  65.8986282   3.0608239
  74.5046005  27.8241749  37.7286377  74.2039108  27.0731964  37.2169266
  75.1974487  27.4715347  38.2870636   4.4252491  31.5866089  19.6295834
   3.5731621  32.0074005  19.5150642   4.4552002  31.3550606  20.5578728
   3.2166021  32.8208427  27.5915508   3.5665576  32.1568260  28.1855583
   2.2699280  32.6800079  27.6058884  22.9578495  11.1120520  12.3482332
  22.7909698  11.4724102  13.2191668  23.0629253  10.1718903  12.4941320
  11.5754938  36.7841454  67.1601791  11.4266415  37.4490891  66.4879303
  10.8322449  36.8757133  67.7563553  23.4724960  16.8748302  82.3554840
  23.9177513  16.2811527  82.9600677  22.8192329  16.3273964  81.9198227
  61.5825462  38.3147545   8.4148264  60.9504013  38.3999977   7.7011333
  61.0514259  38.3479958   9.2104626   6.7255034  61.9149284  21.0306778
   7.6166363  61.8144951  21.3653831   6.7958426  61.7126465  20.0977440
  15.8104525  41.8675804   9.5379848  15.6050453  42.5162506   8.8647346
  16.4896793  41.3202324   9.1439152   2.8116531   6.1034961  75.5643921
   2.7981453   6.0522742  76.5201263   3.2999365   6.9045539  75.3743439
  39.7750664  29.0656548  18.4007397  39.4347115  29.8938999  18.0625057
  40.7247314  29.1847401  18.4145527  73.8720856   2.1055913  27.8504162
  74.3962402   1.4738535  28.3427582  73.2099380   2.4047399  28.4735489
   5.2647305  58.5737534  28.0875511   4.4377532  59.0453720  27.9879742
   5.5404668  58.7606087  28.9849300   0.3863390  15.1062050  88.0002289
  -0.5440940  15.1290722  88.2238388   0.8366240  15.1568260  88.8433838
  68.0061646  49.8121529  87.5688324  68.5008698  49.9732628  86.7653809
  68.2291794  48.9134216  87.8112793  63.1381607  66.4837875  31.7112427
  63.3871193  67.3750534  31.4664860  63.0245399  66.0290985  30.8766308
  32.7235527  40.1644287  77.1117401  33.0413513  39.4625626  77.6797333
  31.7967701  40.2518005  77.3346176   9.1504650  45.4028893  53.4792404
   8.6736603  44.9962578  52.7556839   9.0689259  46.3434334  53.3212509
  61.6982613  19.7415352  10.8553915  61.7659760  20.2415810  10.0420027
  61.0480728  20.2151012  11.3742561  18.5848942  28.2211914  62.6969528
  18.2244034  29.1044846  62.6190414  19.4566898  28.2830029  62.3065872
  41.6718445   2.2270677  84.7906494  42.2131577   1.6814950  84.2200775
  42.2338028   2.4199908  85.5411301  19.1055222  11.8114538  20.4815235
  18.3615417  11.7738152  19.8804340  18.7964268  12.3473320  21.2119522
  52.0764732  18.8461285  20.0085545  52.7598114  19.2911625  19.5073299
  51.8655701  19.4534836  20.7176895  84.1115265  18.9913445  68.0656204
  83.3181686  18.6467953  67.6556091  83.8778915  19.8815002  68.3288116
  57.2281876  67.0062714  28.4526691  57.5368042  66.2782211  27.9132919
  56.5418091  67.4187241  27.9282608  75.2828369  49.9896011  45.5484314
  74.3484497  49.7823448  45.5340729  75.5790863  49.8221550  44.6537628
  53.0180473  48.2662354  32.0758820  53.7433281  48.6885452  32.5361519
  52.2442322  48.4876862  32.5939560  57.4220123   8.0390797  50.2910614
  57.7389641   8.8971815  50.5729027  56.7762337   7.7929134  50.9533348
  67.8656235  35.7286453   6.6276231  67.3155899  36.4624519   6.3533502
  68.7613754  36.0533905   6.5359974  62.3797531  44.2168465   5.5827889
  62.3301392  44.5362396   6.4837661  62.7424126  44.9515305   5.0878615
  31.6513863  41.3978958  34.8492622  32.0377197  42.2145538  34.5329628
  30.7793903  41.6479874  35.1547279  62.1377411  16.1706638  57.5568733
  61.7324562  15.9200230  58.3870277  62.9827957  15.7210903  57.5575333
   0.6013117  39.2380371  71.2645416   1.5408173  39.2866745  71.4411697
   0.3915538  38.3070488  71.3386536  33.3730125  67.8186722  81.6750488
  32.9944572  67.0167465  81.3147202  33.3591042  68.4387283  80.9459610
  56.1720963  58.3450050  33.3816910  55.3725395  57.9776688  33.7585258
  56.8809395  57.9330025  33.8756828  40.6292839  25.5772038  23.0656548
  40.2282524  26.3380756  23.4857464  41.0340309  25.0921707  23.7847900
  30.9040203  32.3499184  13.4654522  30.0390759  32.7374496  13.5993185
  30.7577534  31.4067574  13.5381451   5.8084807  20.9922180  28.7139835
   5.6194882  20.8831635  29.6459827   6.3587160  21.7742882  28.6710854
  81.1061020   9.8841715  44.1854401  80.9973831  10.5788107  43.5359116
  81.1794357  10.3463783  45.0204391  69.8810654  42.1786575  21.3344803
  69.1224823  42.4242821  20.8049011  69.8157196  42.7278748  22.1157150
  39.3963242  61.3100510  56.8362350  39.0815887  62.1002998  56.3972816
  38.6005096  60.8634872  57.1251831  10.5349445  43.8275719  17.9121265
  10.4165478  44.1296616  18.8126564  10.5588064  42.8731422  17.9808502
  17.8738594   2.5273707  43.9761581  17.3607159   1.7644418  43.7099724
  17.7096138   3.1768746  43.2924919  69.0164566  53.6340714  63.9144745
  69.1457062  53.1145210  64.7079468  68.4274521  53.1058922  63.3756447
  23.1270084  64.0291519   6.9876003  23.3654613  64.7471466   6.4012117
  22.4842243  64.4113083   7.5851102  68.4460220  44.5107155  46.6026726
  69.0827179  43.7967644  46.6363220  68.7887726  45.1060715  45.9361115
  26.3856335  55.4971924  48.9206390  25.7167759  55.8908463  48.3603745
  27.1090813  56.1238136  48.9064522  34.5395699  55.8663826  36.7482910
  33.8310318  56.4571152  37.0037041  34.3734818  55.6784782  35.8245277
   1.3900095  28.4265823  67.6397018   0.8201606  28.8037968  68.3099365
   2.2099316  28.9138470  67.7205200  29.4111023  45.1837959  67.7605515
  28.6773930  45.7366257  67.4916916  29.2458382  44.3426361  67.3346786
  36.3867607  35.3481712  67.3896942  36.5947342  35.2544250  68.3193130
  36.7487373  36.2007141  67.1480637  55.6138153  16.6867447  86.3794556
  55.6052513  16.4567776  85.4503326  56.4750748  16.4051590  86.6879654
  14.4168949  49.9246674  10.5773087  14.8220215  50.2629967  11.3758297
  14.3832235  48.9771309  10.7087536  33.2985497  57.8899078  33.5918312
  32.5050316  57.8315163  34.1239510  33.5803490  58.8003197  33.6811218
  66.0217209   7.4077768  49.0404396  66.2325821   7.3312540  49.9709854
  65.9336853   8.3492012  48.8914337  80.1966400  45.7426414   9.1269474
  80.4226456  44.8147507   9.1915407  80.4010849  45.9764862   8.2215462
  16.1355209   0.0629434  86.1704102  16.7819500   0.5044894  86.7212219
  15.5372448   0.7588810  85.8984375  69.6223602  62.5744629  48.9772949
  68.7763214  62.1529312  48.8264122  69.6959915  63.2216110  48.2758598
   8.1052465  16.1397839   7.0757623   8.0118036  16.2856560   8.0171556
   8.5211344  15.2804260   7.0066710  50.7819366   6.4969211  65.0615387
  50.4822044   6.6637750  64.1679230  51.2192307   5.6468501  65.0126953
  18.8243618  49.4166336  37.5029869  18.6261692  50.1973801  38.0200806
  19.6647301  49.6111374  37.0880394  26.4120731  13.7015266  44.1400108
  26.2963505  13.6504021  43.1912079  25.5236664  13.7897100  44.4852486
  67.5224915  47.9670906  25.7002945  67.3012085  48.6799965  25.1011009
  66.7597504  47.3892326  25.6770687  11.0217724  45.7568626  30.3797035
  10.4821606  44.9803352  30.5282116  10.5656395  46.2368774  29.6885014
  63.8485298  37.1434059  69.1597061  64.2267456  37.9853745  69.4132156
  63.0105896  37.3691330  68.7557983  57.8550415  49.5408096  87.8852615
  58.4520721  49.1045265  87.2774429  58.4178009  49.8435059  88.5979385
  62.5606346  51.8650322  84.2022324  62.0549011  51.3695068  83.5580902
  62.4345932  51.3891907  85.0231552  59.0512505  61.0055847  83.4761734
  59.1355934  61.1761398  82.5380707  59.8132133  61.4333916  83.8668442
  65.8240128  56.9839554  57.4444962  66.1080856  57.0508957  58.3561172
  65.1049194  57.6114388  57.3710098  82.5944977   6.0559783  56.3587990
  83.4099655   6.3009958  55.9215279  81.9396133   6.6524248  55.9960098
  64.1388779  71.4464569  63.5564041  63.4561157  71.2203369  62.9247932
  64.7783279  70.7381058  63.4817467  59.7994690  12.7208853  68.0977631
  60.2152328  12.0981321  67.5014801  59.0168724  13.0136642  67.6307907
  85.1865234  56.3102303  56.7042160  85.3505402  55.3974800  56.4671135
  85.6327515  56.4235916  57.5434189  56.2956963  27.1613960  64.8218460
  57.0824318  26.6220608  64.9018555  56.6173515  28.0108967  64.5199890
   5.3496141  26.6714611  17.1705780   6.2322316  26.7406883  16.8066730
   5.2576551  27.4463444  17.7249527  12.7360716  45.1938171  20.7005196
  12.2110415  44.5540771  21.1814671  12.0925474  45.7609367  20.2756882
  11.8725195  11.0245600  27.8307037  11.2259340  10.8791704  27.1400356
  11.4503012  10.7002544  28.6261826  18.7713203  51.2596397  25.2137394
  19.4157810  50.5641441  25.3448505  18.4058876  51.0870819  24.3460331
  63.3131866  67.5161514  77.2088394  64.1402664  67.4393158  77.6845093
  62.7663879  68.0691147  77.7669373  60.5802917  67.6555710  42.0057564
  60.1922188  66.9528427  42.5271111  60.8284607  67.2342606  41.1828690
  29.8942776  67.0332947  85.6931915  30.4936657  66.4855270  86.2000580
  30.3743649  67.2336655  84.8896942  43.9880791  32.2086105  21.4294205
  43.7748833  32.2186470  22.3625221  44.8738937  32.5682487  21.3822441
  58.5543251  17.6001492  56.8301392  58.4482498  18.2101974  57.5600815
  57.6688766  17.2828388  56.6525764  39.1815071  39.0153503   3.1615546
  39.3040161  39.8157768   2.6511269  38.3426208  38.6657333   2.8611081
  81.9182739  40.9630585  87.8573608  82.5210953  40.9773140  88.6007538
  81.6723938  40.0424995  87.7659988   6.2422361  50.7418480  13.4173784
   6.9087453  51.4278831  13.3806057   6.4120841  50.2013016  12.6458921
  48.6220703  52.9179878  22.6092014  48.8009262  51.9778862  22.6304111
  48.3310089  53.1265106  23.4969139   7.5443988   2.8052897  84.6139679
   8.3241730   2.7287438  85.1638107   7.8144236   3.3744667  83.8933105
  20.2262211  44.8557854  60.4031448  20.2547359  45.7036133  60.8465462
  19.2932281  44.6819534  60.2784805   1.5062842  24.9971714  52.7143059
   2.2439947  25.1211720  53.3115005   1.8348389  24.3909111  52.0504303
  71.2710953  57.9813843  22.4727421  71.7376556  58.0764999  21.6423759
  70.8036880  57.1500740  22.3909912  62.1686211  17.2740116  40.2679329
  62.9995117  17.3649311  40.7343941  61.5123978  17.6059170  40.8806648
  26.1492310   7.8529935  11.7894793  26.3945580   8.4680281  12.4806948
  26.7169857   8.0810623  11.0533609  74.2731400  25.4135761  62.6609039
  73.8299866  25.2423115  63.4918747  73.8293457  26.1844044  62.3072052
  65.0304565  47.5441589  15.4072838  65.5777893  47.4934731  14.6236401
  65.4993591  48.1428299  15.9886208  74.6161575  53.9469986  38.4952965
  74.8460541  53.4497070  37.7103882  74.6514587  54.8624001  38.2177544
  19.3563766  51.7308578  69.5131226  18.6082191  52.0336227  68.9985123
  19.8592663  52.5248299  69.6946259  45.9241714  52.3829155  29.4462261
  45.0161514  52.4636459  29.1543121  46.0667725  51.4398689  29.5272293
  75.4002075  69.3573761  69.2806473  75.0699921  69.5200195  68.3970566
  74.6594086  69.5557022  69.8534698  45.8769836  58.0325203  69.8376694
  45.2598228  57.7196121  69.1762772  45.5130310  58.8687706  70.1282806
  32.8478508  61.9795227  28.5956326  31.9657784  62.3297768  28.7201462
  32.7178421  61.0380630  28.4816952  85.4781113  34.4245529  43.9763031
  85.8628540  34.9695778  43.2898941  86.2198639  34.1736031  44.5268021
  64.6795197   9.4228277   4.5081930  64.9474335   8.5314169   4.2849355
  64.0885315   9.3157301   5.2535028  66.1651993  27.2705803  54.9255333
  65.9287109  27.9834614  55.5189209  66.6563873  26.6570873  55.4719696
  11.2606115  49.2999420  62.7388306  10.8095980  50.0952492  62.4554482
  10.6508255  48.8826942  63.3473511  48.1424904  18.0947018  82.2212601
  48.0036812  19.0320625  82.0859222  47.2847443  17.7002945  82.0633240
   5.0045977  51.1457863  71.4922638   5.7180400  51.0211029  70.8664093
   5.3019338  51.8606415  72.0551147  23.4986629  43.3696861   8.3106184
  24.0147457  44.0690842   7.9097037  23.2783089  43.7030754   9.1804047
  51.5966721  37.2938423   0.7303824  51.5574341  37.5776482   1.6436983
  50.6998672  37.3917694   0.4104032   5.7911258  17.4869862  64.7856903
   5.5922785  16.8739643  65.4934311   5.7349167  16.9594040  63.9889870
  33.8668709  66.5135574  44.2899780  33.1254120  67.1150589  44.3582802
  34.3059273  66.7658691  43.4776955  35.5358086  47.9861450  11.4598742
  35.4618759  47.0415001  11.5955496  36.2523041  48.2553215  12.0346880
  57.8761101  40.0143661  53.3366966  58.7018166  39.6539612  53.0133514
  58.0901794  40.9116287  53.5922852   7.7783871  44.8859062  67.3150711
   8.1597576  44.0099335  67.3739090   7.6214767  45.0164986  66.3798904
  68.0666962  51.3037376  71.0351105  67.7940903  51.3869972  70.1213379
  67.7748795  50.4294624  71.2934036  79.3724823  20.5945168  43.7746468
  80.0332108  19.9167366  43.9170876  78.7266846  20.1825867  43.2006340
  44.9028435  52.8183022  80.3361511  45.3469086  52.7809715  79.4890137
  44.0998764  52.3132439  80.2081223  26.0954857   0.8957822  36.0792809
  25.8381920   0.1092801  35.5981903  25.4744434   1.5655487  35.7930107
  39.3271561  46.8492165  84.6593857  38.5171814  46.7496643  84.1591339
  40.0003967  46.4525337  84.1065598  60.3079414  39.1305771  85.1438751
  60.7726212  38.3611946  84.8146973  60.4543495  39.1123428  86.0896378
  69.4118805  47.0933762  88.0503845  70.3523407  47.0203629  87.8877716
  69.0473938  46.2718086  87.7211304   2.2869401   3.5661085  80.9034958
   2.1644166   2.8958476  81.5757828   2.4482753   4.3715467  81.3948975
   6.7177663  63.7186775  58.2746315   7.4949913  63.7974014  57.7215004
   6.0071640  63.5254707  57.6631203  23.7713337  39.0366058  68.3392944
  24.3121624  39.7875862  68.5837631  23.2466450  39.3491211  67.6022263
  64.8475571  18.9397011  24.3733311  65.4891968  18.2938595  24.6690006
  64.2328873  19.0180149  25.1029053  19.1567154  59.7747116  71.8488235
  19.4040470  60.6992073  71.8296051  18.7618351  59.6145515  70.9917068
  31.1614380  69.5841293  34.7297325  31.0583515  69.2080002  35.6038780
  31.9484081  69.1659851  34.3803520  44.9625359  24.7065239  22.9263897
  44.2304230  25.3074417  22.7880421  45.5176849  25.1491566  23.5683537
  48.9191742  41.7508812  11.2619171  49.1575050  41.8809776  10.3440371
  49.2605247  42.5247803  11.7100124  10.3752794  56.8259087  87.9961472
  11.1647139  57.1602211  88.4218903   9.6537275  57.2015572  88.5006104
  60.0923271   1.0126487  37.9300842  60.4310913   0.3934951  38.5767059
  59.2299309   0.6683987  37.6977158  43.0374336  54.5432358  22.9651566
  42.1326942  54.5661430  22.6534615  42.9830170  54.1335220  23.8285236
  67.9562836  16.0615101  26.7379360  67.6998062  15.8916035  27.6443481
  67.6610031  16.9562531  26.5691719  46.0508995  34.1551361  14.7907104
  45.8410759  35.0737724  14.6224384  45.2105064  33.7542877  15.0127239
  81.9099274  41.5864944  38.0912094  82.7581940  41.5359688  37.6506081
  81.2831879  41.7492065  37.3862610   6.7383885  14.8826132  17.1081314
   7.3228412  14.7483845  17.8542080   6.9842806  15.7407408  16.7626076
  47.3595657  69.8836365  49.0005836  46.9497299  69.2536240  49.5933380
  46.7051353  70.5741959  48.8952980  30.8488693  42.8317070   6.8112702
  30.0908947  43.3031616   6.4656739  31.1756325  42.3255348   6.0674658
  12.0712843  21.0109844  20.1843662  12.7826519  21.3129883  20.7491512
  11.6343899  20.3284035  20.6937180  14.2247696  50.0357437  17.7539272
  14.1965551  49.5227013  18.5615292  14.8027620  49.5390739  17.1747246
  86.5166245  42.2262344  55.7018967  86.9094009  42.7791023  55.0264015
  86.4755936  41.3560600  55.3052292  45.0868187  55.4548988   6.5296125
  44.3511963  54.9304161   6.8458505  45.3904381  54.9944611   5.7472792
  86.8111801  43.0640755   1.6635436  85.9012604  43.3183556   1.8172244
  87.1262360  42.7727318   2.5191681  69.7582703  58.8742943  12.5343657
  69.1427155  59.4547234  12.0866737  70.0778046  59.3895187  13.2750931
  66.0100632  28.8909397  72.5641022  65.9670258  27.9382286  72.4821167
  66.9415894  29.0963287  72.4847488  40.6093025  71.1260910  89.1288300
  40.8340492  70.2718048  88.7601471  39.6730766  71.2232437  88.9548340
   6.9060049  31.1194687  17.9531040   6.9972720  30.8693027  18.8725166
   5.9625187  31.2159462  17.8236561  77.8541489  31.0910778  41.0967903
  77.0795441  30.5592823  41.2795906  77.8555603  31.1929665  40.1450310
  60.9770012  27.6844482  87.3140030  61.8322411  28.0910187  87.4536514
  60.8579330  27.6972179  86.3643265  36.3750000  63.9960327  22.5787392
  36.6115570  63.1116562  22.8582973  37.1843758  64.4994812  22.6664124
  14.7546844  19.2765789  11.5772085  14.3119812  20.0338764  11.9602852
  15.3248796  18.9541168  12.2751541  42.5446434  11.8529930  85.6438828
  43.4844589  11.9946404  85.5302277  42.4410133  11.6715393  86.5779953
  69.8534546  48.4539871  69.2785110  69.2795715  48.6328964  68.5336075
  69.2555008  48.2607880  70.0005569  57.6859856  44.6789436  32.7834435
  57.9180260  43.8610802  33.2233124  57.9300156  45.3635216  33.4063721
  55.4712257  49.0359993  86.4105225  56.0546150  48.9853439  87.1677017
  55.0887794  49.9120216  86.4610138  29.0834026   1.9792563  14.4176321
  28.3112335   2.1731815  13.8862381  29.0956059   2.6676924  15.0825672
  68.6112137   5.7149410  32.2817116  69.1883469   6.0746279  31.6080780
  68.4975510   6.4308014  32.9068947   6.1603642   8.0639267  67.9237137
   6.3177123   7.5288458  68.7016373   6.9213657   7.9045024  67.3654251
  10.7298412  46.3958549  77.8922882  11.3926439  46.0959511  78.5143661
   9.9054985  46.0516586  78.2361221  74.3600769  26.0099010   0.7682251
  73.5499115  26.3695049   0.4069138  74.6602402  25.3852386   0.1079752
  21.8178329   7.9730301  12.4587622  21.0311184   8.4049511  12.1259584
  21.7757473   8.0962658  13.4070625  25.2057190  32.6280861  87.4812622
  25.5289459  33.4462013  87.8586807  24.8566647  32.1413269  88.2278900
  58.7217331  51.7948990  26.4448128  57.9951096  51.2642899  26.7714748
  58.7759476  52.5292435  27.0563946  76.6444473  41.3775749  41.9304428
  77.1642303  40.5858307  41.7918816  76.2777481  41.5771408  41.0690880
  70.2004013   0.8625786  24.7958660  69.9454346   0.9280967  23.8755760
  70.8396683   1.5644935  24.9178448  19.4303379  46.9985085  41.0848694
  20.2661381  47.0976067  40.6289673  18.9780369  46.3030510  40.6073761
  68.7898254  31.4231091  19.2832985  68.7457504  31.3004551  20.2315826
  68.9661713  32.3571434  19.1705418  15.4784756  46.2574310  77.8008575
  16.3955364  46.5312424  77.7847595  15.5107384  45.3245430  78.0127945
  57.1250114  42.1263962   5.0394440  57.2650375  42.4794083   5.9180822
  57.9556427  42.2734604   4.5870523  57.3145447  60.9227333  70.7379761
  58.2330475  60.6890411  70.6039429  57.0630226  61.3765411  69.9335938
  71.5671234  19.7611179  16.4863777  72.3831787  19.7469826  15.9862919
  71.1289520  18.9427414  16.2529278  40.4063454  35.4810410  30.4035854
  40.9945526  36.1596031  30.7349339  40.8985863  35.0608635  29.6983299
  48.1669579  16.4726963   7.1739569  47.2528038  16.7531281   7.2176962
  48.4632530  16.4790764   8.0841217  29.8902874  58.0320435  68.6450729
  29.0128918  57.7863808  68.3517151  29.9015446  57.8125610  69.5766983
  50.5183792  12.0176582  28.2077255  50.5565262  11.9177542  27.2565174
  51.3474388  12.4370489  28.4379444   7.0160003  50.9663086  77.1984482
   6.9087386  50.0407333  77.4176331   7.2452135  51.3840332  78.0286255
  53.3304863  36.0841446   6.9673004  52.7096443  35.3577042   6.9119391
  54.1776772  35.6917839   6.7562208  30.3375282  12.1043377  23.7684937
  29.5055485  11.6567879  23.9225769  30.4629669  12.6505642  24.5444660
  59.0778160  40.3590202  17.6525784  59.9876747  40.2100220  17.3953056
  58.5704765  40.1571159  16.8664017  74.3163071  55.3056221  76.9641113
  73.7248230  54.5538101  76.9301376  74.5578690  55.4617729  76.0511475
  60.2272568  46.8616295  19.7553825  61.0842133  46.4642296  19.6006966
  59.8098297  46.2881966  20.3981590   2.6023314  68.3330307   8.8848295
   3.2493808  68.5547562   9.5544538   2.0814695  69.1295013   8.7820339
   2.1451519   1.4526069  26.3168411   1.9922025   2.3517444  26.6073418
   2.1600184   1.5088451  25.3614101  29.3284874  37.0544052  87.9771271
  28.7716789  36.5674019  87.3696518  30.1762962  37.1063118  87.5358124
  45.5141869  49.0462418  49.3288002  45.2554474  48.3827515  48.6892204
  45.1405716  48.7406654  50.1553993   9.1560450   9.2195625  80.0958176
   9.6824903   8.8004951  80.7766037   9.2281933  10.1561413  80.2797928
  78.9167328  13.5828094  70.8474579  78.6411285  13.5819921  69.9307861
  78.3845062  12.9014378  71.2581863  61.6435204  24.0138512  48.7878036
  61.6672745  24.4380169  47.9300423  60.7665825  24.2004337  49.1230621
  66.3782501  31.6850548  75.8947525  65.7785263  31.0073891  75.5827789
  66.6617966  31.3762798  76.7552719   8.7975702  17.9957008  81.8203812
   8.2478886  18.6147232  82.3008957   8.9873457  18.4366741  80.9922714
  -0.0432514  48.4600182  41.9732132  -0.1545274  47.5252953  42.1468353
   0.6641564  48.7298584  42.5588684  69.6556396  22.7515926  76.7858734
  69.4057541  22.3623257  77.6238861  69.8145370  22.0024090  76.2116776
  10.4880896  39.8766899  33.6091537  11.3778572  40.1334572  33.8512611
  10.4099360  38.9712639  33.9096909  59.8876610  30.0421524  15.6140585
  60.0536613  29.2124386  16.0615501  59.6848869  30.6577778  16.3184147
  77.7716370  61.4497833  29.0372238  78.2137451  61.0463562  29.7842312
  77.8908081  60.8246765  28.3221912  62.0350494  54.3587303  41.1656570
  61.0828171  54.3217316  41.2557449  62.3530464  54.5295029  42.0521965
  26.1704197  51.7554016  41.8029709  26.8515892  51.1860123  42.1607971
  26.4153061  51.8743057  40.8852959  72.6879654   4.0251327   7.0892024
  72.4810715   3.3588951   6.4337988  73.2436829   4.6520977   6.6262479
  17.5571461  35.2634850  78.6441650  16.6782703  35.6385918  78.6998825
  17.4449387  34.4663200  78.1263046  22.1286964  69.1482468  50.6149292
  21.9371872  70.0647202  50.8140030  21.3786144  68.6658325  50.9626122
  34.3425789  41.3887291  75.2875137  33.8632355  41.0603676  76.0481949
  35.1336632  41.7830505  75.6548386  41.1644592  46.8796616  60.9138680
  41.8650703  46.3361702  61.2744141  41.0048637  47.5418701  61.5863571
  43.1816444  40.5256195  44.7886734  43.3855019  40.4150734  45.7173576
  43.7941704  39.9441872  44.3381386   1.2458385  12.5710278  20.8817387
   1.0359522  13.5049314  20.8832703   0.5367879  12.1653700  21.3806591
  83.1288757   6.8382635  25.4660416  82.7379456   6.2309070  24.8379326
  82.4450989   6.9784703  26.1210442  19.5788670   6.4554768  62.8122139
  20.2036667   6.5760322  62.0971451  20.1198578   6.4316964  63.6015167
   3.3298681  52.1257401  65.8802109   3.3637486  51.1736870  65.9733887
   3.6161528  52.2887802  64.9814987  44.1769676  53.9539642  67.5335541
  44.4827232  53.2872963  68.1486206  44.8312759  54.6503029  67.5903168
  84.0908813  48.8689461  50.3816833  83.3972473  48.2473946  50.1608391
  84.8589096  48.5488205  49.9085197  82.3035431  55.9015884  56.2300301
  83.1441803  56.3166313  56.4231567  82.5045013  55.2586288  55.5499916
  85.1101379  61.1491241  45.8683472  84.6219788  61.8153229  46.3521919
  85.9404449  61.5722198  45.6496773  37.5119400  63.0905380  26.1136627
  37.1285324  62.2723618  25.7977219  36.8589478  63.4433365  26.7181149
  17.4753494  55.4224854  86.4563828  17.6881847  56.0019226  85.7248230
  17.6095181  55.9616356  87.2358398  17.7256489  63.6130753  78.6388397
  17.2892780  63.6835938  79.4878616  17.0323124  63.3479996  78.0344772
  83.7193527  10.3547726  37.7026443  84.5775986  10.1834211  38.0902977
  83.1292648   9.7477436  38.1493492   4.8372006  25.8124962   7.1613755
   5.5026989  26.3892422   7.5364861   5.3312116  25.0673027   6.8195109
  38.2352715  12.8320761  27.7949448  37.8570213  13.5061731  27.2303638
  37.8532639  12.0131721  27.4791946  76.1601715  31.5301762  16.0532207
  76.1521759  32.3940468  15.6410322  75.4029999  31.0794144  15.6794052
  83.0189667  38.0715523  25.5462780  82.5563660  37.9216042  24.7218132
  82.3302002  38.3063965  26.1681080  33.2537041  71.7623062  35.3759689
  32.6524086  72.0315933  34.6815910  33.0559425  70.8366470  35.5184059
  15.1096907   1.5229298  70.5022888  15.5279655   2.3780596  70.4021378
  15.5464764   0.9657323  69.8581009  43.2036438   6.1136599   7.2809591
  43.0377388   6.9763503   6.9008632  44.1443748   6.1066589   7.4576221
  82.3334427  22.4753265  49.7460213  82.4583817  22.2987671  50.6784630
  82.6253128  21.6750183  49.3095016  21.1868210  62.3513565   5.8765326
  21.5973568  62.9833832   6.4666462  20.3209763  62.1979446   6.2547002
  68.2699966  53.7056732  23.0874958  67.3844528  53.8656998  23.4137497
  68.1638794  53.6168289  22.1403542  31.2689838   7.0757027  45.5709915
  31.4101791   8.0076666  45.4044418  30.8015194   7.0497298  46.4058800
  23.2120190  32.4880905  78.4133530  22.6746216  32.6721077  77.6429138
  24.1057320  32.6888313  78.1354828  45.4134750  68.6669388  29.3338146
  46.2256851  68.3481064  28.9402504  44.8032074  67.9342270  29.2504978
  53.0345955   8.5954514  36.8742485  52.4953499   9.3304090  37.1662827
  53.1067619   8.0307121  37.6437225  52.4999619  51.6213531  78.2076797
  51.7970695  51.4424324  78.8323059  52.0569801  52.0103951  77.4535980
  75.5009918  14.5460968  46.9522667  75.7385941  14.5799360  47.8788910
  74.6706848  14.0701475  46.9351349  41.7406693  62.4260368   2.1501627
  40.9163017  62.8702202   2.3485222  41.6714935  62.1951981   1.2237936
  10.4047184  23.0129242   6.5236487  10.0019588  22.8319321   5.6743793
   9.6696138  23.2360954   7.0946555  86.9633713  45.7753601  46.4297066
  86.9567566  46.4932823  45.7966385  86.1007919  45.3699646  46.3411179
  16.2528114   4.5064554  84.5578842  15.7478342   5.2524357  84.2342453
  15.6137648   3.7973723  84.6289597  14.6890745  27.7031765  77.1799088
  14.4909439  28.0975552  76.3305359  14.6772604  28.4376583  77.7936096
  31.9661331  17.3637218  30.0777206  31.8818340  18.2353439  29.6911945
  32.9071388  17.1885433  30.0705910  69.9985352  35.1101875  26.5736217
  69.3438339  34.6747475  27.1195068  69.5136871  35.8025742  26.1244450
  45.3332214  60.4517059  29.6336269  44.8844681  59.6362190  29.8568592
  46.2547684  60.2783165  29.8257580   3.2138271  29.0149059  10.2757349
   3.9469345  28.5407257  10.6680851   2.4655352  28.4270229  10.3790998
  45.3018761  39.9465828  76.9591827  45.3228455  39.4072762  76.1686478
  44.3877678  39.9215279  77.2420349  56.5337410  52.6808281  87.8404770
  56.9064331  52.2867203  88.6291504  57.1740189  53.3420296  87.5776291
  42.5846634  38.5259247  82.1258087  42.6062050  38.4195824  83.0768356
  41.9134712  39.1913567  81.9743576  77.3930969   6.3829923  83.3935394
  78.2650528   6.7490625  83.5416107  77.5378036   5.4391761  83.3264389
   8.2973509  70.1829605  78.2994232   7.5750017  69.5757751  78.4599457
   7.8813815  71.0439682  78.2561417  51.0579453  66.8542328   7.0229478
  50.7781334  66.6853485   6.1232715  50.9086761  66.0263290   7.4796052
  80.2113800  22.7265091  24.1439667  80.9676514  22.8256302  24.7222900
  80.3260345  23.4072914  23.4809265  71.0932312  64.5337601  28.9994297
  71.8251343  64.3327255  29.5826435  70.9269257  63.7147636  28.5327187
   4.2733240  44.0466614  73.2217255   4.4795437  44.9789009  73.1536407
   4.1272531  43.7670479  72.3180008  58.1223602  64.3488159  51.0453110
  57.6122627  64.6798096  51.7845497  57.9257622  64.9526978  50.3291359
  42.8989105  68.8320084  70.6595306  42.3532791  68.4130783  69.9939346
  42.4995384  68.5776901  71.4914322  46.5064049  24.1314297  86.0111542
  46.4117470  24.0436039  86.9596100  46.2563477  23.2747021  85.6651459
  37.9933281  64.6049118  68.6288910  37.7586021  64.8346939  67.7298126
  38.8963318  64.9073944  68.7254410  70.7410049   9.4599676  70.7810593
  70.3086166   8.6465092  71.0409775  71.2659531   9.2188940  70.0178146
  11.5044041  65.4738693  42.8884201  10.8475189  66.1540070  43.0372658
  12.2228050  65.9271851  42.4472427  85.9154816  23.6714039  63.3921204
  86.1905594  22.8164749  63.0609703  85.1721497  23.4790058  63.9636765
  65.6899567  50.6978836  82.9958572  64.8150940  50.5673485  82.6300735
  65.8632507  49.8986931  83.4933548  45.3254356  62.8491821   5.3262987
  44.8663063  62.7717361   4.4899769  44.9072418  62.1985741   5.8902607
  47.8889122  20.7219677  81.3784790  47.4958115  21.1321926  80.6081390
  47.5880852  21.2557735  82.1138611  18.3640652  44.0492210  72.6735764
  18.7534580  43.2889709  72.2415695  17.6938076  44.3548050  72.0623474
  54.5637321  10.9763403  32.7257767  54.1444283  11.7299414  33.1411057
  54.1224670  10.8924465  31.8805084   2.4480243  36.0672951  32.5985870
   3.0646901  35.7787971  31.9257393   1.6928569  36.3918381  32.1080513
  47.9420929   9.5387211  61.9527779  47.4673767  10.0583277  62.6015320
  47.2639961   9.2250700  61.3544121  20.9415550  21.3348637   0.6748614
  20.0410213  21.0104980   0.6671422  21.3882561  20.8174381   0.0048162
  82.3860931   5.5027537  44.7014885  82.4153595   4.6684866  44.2331123
  82.3086166   6.1620169  44.0118484  74.1194687   0.2764679  17.9798374
  73.1993484   0.0224808  18.0513401  74.1152267   1.0273353  17.3861942
  25.9221554  57.8558121  69.7802887  26.2308044  56.9569473  69.8943405
  25.1559563  57.9201126  70.3504105  48.7202072  23.3424683  64.9671402
  48.7216530  22.3961201  64.8234177  49.6330032  23.6043720  64.8469467
  79.2170258  32.8982124  16.9114227  79.0410843  31.9576283  16.8874588
  79.7045593  33.0300446  17.7245445  19.3612251  54.5670586  38.9209442
  19.1928120  53.8275795  38.3369598  20.3135242  54.5851593  39.0159760
   1.6019084   2.7248573  12.1237812   2.3641465   3.1120801  12.5542269
   0.8847479   3.3282313  12.3183374  28.1845665  34.9667358   3.9740801
  28.8556843  35.6062660   4.2124825  28.6754456  34.2248878   3.6206236
  32.8204231  38.5838852  16.1481762  32.4348602  38.5773621  17.0242634
  32.1964645  39.0770607  15.6155586  86.7412567   4.1524677  25.5731773
  86.3737717   4.7229872  26.2482300  86.2889252   3.3174453  25.6930370
  60.6661186  27.9325924  76.6009598  60.7975807  27.2859879  77.2943954
  61.4554405  27.8707275  76.0630188  31.8546829  12.0399857  16.4589729
  32.5450325  11.3982792  16.6258926  32.2941093  12.7471294  15.9866552
  14.3008909  19.6341305  17.3664303  14.7808027  20.0150795  16.6310425
  14.4211245  18.6896896  17.2674046  70.0491714  29.9210205  86.4279022
  69.3506851  30.5674076  86.5305557  69.7817307  29.3972969  85.6726379
  26.9348297  13.4924812  79.3987198  26.0161972  13.4541807  79.1324921
  26.9106865  13.4233046  80.3531113  71.9865570  47.5192947  76.6350021
  71.4602051  47.0581703  77.2881088  71.6745377  48.4235001  76.6709213
  40.5594177  65.0987854  68.0750427  41.1028709  65.1569061  68.8608551
  40.7273979  64.2210770  67.7320404  58.5320740   6.1283092  30.8222351
  57.9524803   5.4345579  31.1368980  58.2637787   6.2712440  29.9145908
  14.9378977  57.8514442  72.6775589  15.2331877  56.9830856  72.4037094
  14.0881281  57.6964264  73.0899887  63.7459412  67.9258118  62.6974373
  64.4793091  68.5030365  62.9100761  64.1575699  67.1278763  62.3656502
  30.8160858  22.7907753  76.7201996  31.1761856  22.3790512  75.9346848
  30.0773716  23.3094330  76.4015656  18.3047543  68.7790985  60.3249512
  17.8042908  68.8180008  59.5099335  18.9251766  69.5051041  60.2599297
  10.0574236  48.2824707  31.4870548  10.4403028  47.4068527  31.4329414
   9.6644258  48.3185577  32.3591118  76.1552963  56.1902885  34.7482262
  75.2767639  55.8386574  34.6041336  76.6921310  55.7784882  34.0711288
  44.7956009  36.5918808  31.3339367  44.0756950  37.0321388  31.7857494
  44.9877014  37.1548576  30.5840149  14.3072805   3.6420364  55.6589355
  14.3851662   3.2868192  54.7735062  13.4338140   4.0327344  55.6842880
  29.9732151   3.8063145  62.3540306  29.2628422   4.4302835  62.5032501
  30.5337105   4.2321262  61.7053680  36.4783249  60.8057327  25.2751617
  36.8165932  60.1275139  24.6905060  35.7144737  60.4050484  25.6901512
  71.8619537  13.3734531  61.7152786  71.5360565  14.2231722  62.0119247
  72.4379959  13.5813980  60.9796410  34.4289742  68.3299561  63.2752647
  33.6076012  67.9009247  63.5150757  35.0449867  67.6097717  63.1407280
  73.7234955  20.3858528  58.7763939  73.9848175  20.5687733  59.6788788
  72.9311981  19.8551731  58.8593369  20.4836903  65.8283920  74.4864197
  19.7726536  65.3007812  74.1227188  20.9780922  65.2188797  75.0344162
  12.7504721  56.3589706   5.5104299  12.3735762  55.6309853   5.0162430
  12.5524187  56.1558380   6.4246206  12.7118835   4.8655529  30.6357613
  12.7052441   4.2282662  31.3499413  12.4205780   4.3703527  29.8701572
  79.4177933  67.7887497  39.0272446  78.7623825  68.4832840  39.0927467
  80.1464462  68.0953598  39.5669594   0.6505986  70.8360062  35.4012032
   0.6405538  70.5706863  34.4815636  -0.0850215  70.3661804  35.7940788
  86.1506195  23.7372475  87.0188293  85.3029633  23.4221325  87.3325424
  86.1239471  23.5946026  86.0726929   9.1094971  21.4107780  73.2747498
   8.2883320  21.1241741  73.6744766   8.8620424  22.1557159  72.7269745
  44.9546471  52.0279655  38.9082146  44.5400467  51.4703293  38.2498970
  44.2658691  52.1902313  39.5527992  14.3603945   2.7559974  59.8857422
  14.2927399   2.8740671  60.8332214  13.9412813   3.5335388  59.5169563
  84.3048248  62.4766350  73.5519943  83.8084793  61.9306755  72.9422455
  84.6003036  61.8698502  74.2307663  61.7904282  47.6192436  51.2723007
  61.6978531  46.8227425  50.7495689  61.9433937  48.3114281  50.6290932
  24.9841976  21.3614960  84.4772491  24.3214111  21.6894302  83.8694611
  24.5829334  20.5889244  84.8751831  59.1767426  66.3006363  88.2676773
  59.3054504  67.1370239  88.7150269  59.3971405  66.4813614  87.3538971
  34.7369118  54.3367996   1.5371259  34.5706596  53.3958778   1.4800183
  35.5556564  54.4059906   2.0281465  44.8624535  29.4714584  10.9296713
  45.4461517  30.1219940  11.3199663  44.6257133  29.8416481  10.0792913
  11.9557562  48.1675415  35.6108322  12.0923223  47.7639160  34.7537041
  11.8352242  47.4285202  36.2071114  58.7134323  35.2669907  24.1767521
  58.0012665  34.6363144  24.2830353  58.4840202  35.9883003  24.7626820
  38.0379562  57.2124176  66.0367966  37.9136086  56.4663315  65.4501724
  38.5715942  57.8269157  65.5329514  16.8773613  48.4200821  40.0388222
  17.3344727  48.9101868  39.3553925  17.5191631  48.3372307  40.7441292
  63.4794159  56.3335686  71.1355209  62.9017258  56.8281364  71.7168198
  63.5432014  56.8718224  70.3465652  34.1824341  46.7382317  64.0967789
  34.1134300  45.8438835  64.4308624  34.2363892  46.6354904  63.1466446
  -0.0550297  39.8271637  -0.0588558   0.0360941  38.9553528  -0.4433987
   0.6195257  39.8614731   0.6193991  32.2902489  60.6976013  13.1723814
  32.8559341  60.1334610  12.6451492  32.8034019  61.4946861  13.3049164
  50.8383293  69.3388138  53.3359680  51.1404839  68.5216446  52.9395180
  50.3945007  69.0657196  54.1388817  60.1510201   9.6569424   4.1271224
  60.2068863  10.0839405   3.2722638  60.8035393  10.1076946   4.6631012
  33.7341499  34.5786209  86.0303497  33.3708191  33.7402954  86.3157043
  34.6813965  34.4706268  86.1157379  12.3969221  57.0420914   0.5559544
  11.6627970  56.7158165   1.0763738  12.5355492  57.9352798   0.8709579
  18.8572407  41.3805771  21.6277218  18.9365940  42.2750626  21.2963142
  19.2820854  41.4042625  22.4851475  44.7096786  48.6300850  23.3184128
  44.9728355  48.9746056  22.4650154  45.5227585  48.3085670  23.7079830
  62.0918655   6.2580833  23.5737343  61.8937759   5.3216872  23.5861511
  63.0477905   6.3010178  23.5981369  13.6674280   2.7362525  52.9417572
  13.0269794   3.2717006  52.4734077  13.2347460   1.8900360  53.0554924
  37.0035706  47.4601021  88.3360748  36.2875137  48.0925560  88.3952026
  36.8344421  46.9820213  87.5242462  57.1977234   8.0629206  75.3136215
  56.9679031   8.9821186  75.1776428  56.4956284   7.5744004  74.8839188
  70.0303802  45.1383934   3.7439377  70.0851593  45.4704437   2.8478496
  69.3711853  44.4455719   3.7027576  74.0000229  54.5585098  18.7981129
  73.3734436  54.7012939  19.5075111  74.6410294  55.2621155  18.8994904
  58.3084602   4.7739444  22.9598198  58.5320320   4.4502530  23.8324432
  58.3836174   5.7255440  23.0308247  71.5401993   2.9250481  59.7264290
  71.7780914   2.3151865  60.4247894  70.8308182   2.4864163  59.2567444
  70.5046158  45.0195503  75.2770004  71.3662338  44.6044273  75.3160782
  70.4570236  45.3900757  74.3957062   5.6864228  38.7039948  87.6625748
   5.3566146  39.5693016  87.9048691   5.9698901  38.8016281  86.7535400
  22.5118065  23.5419941  22.9694500  22.5539207  24.4784946  22.7759953
  21.8108940  23.4623623  23.6164551  86.2485580  20.3334045  45.7578964
  86.5005569  20.8514214  46.5223503  86.8454514  20.6203442  45.0667992
  10.0701542  17.9392967  19.8320236  10.7625914  18.4110012  19.3691425
   9.8827801  18.4807568  20.5987968  74.4959259  63.4174156   2.2955680
  75.0889435  63.7412720   2.9735630  75.0435486  63.3428612   1.5140445
  34.8610458   2.1284847  39.1314583  34.3670273   2.9255252  38.9393654
  34.2108040   1.5240684  39.4893608  58.6411057  55.9249344  43.9503174
  58.0081482  56.0957413  44.6477547  59.3519554  56.5444489  44.1150055
  32.4396973  46.4227715  43.7491722  33.1220894  46.9927826  44.1036530
  32.3263092  45.7431183  44.4135895  80.3367996  41.0855865  21.3740940
  80.6736450  41.4210548  22.2048931  79.8093338  41.8027534  21.0224171
  17.3915424  33.5392418  74.5143509  16.6486359  33.9109802  74.0388184
  17.7974834  32.9366379  73.8912048  14.8871269  22.5305805  65.1377106
  14.5057344  23.1459351  65.7639008  14.5591869  22.8208714  64.2865829
  15.5702963  50.3403778   5.9817681  16.2013512  50.8573227   5.4809995
  14.9743366  49.9854317   5.3221636  30.3274498   8.1209602  82.3440018
  31.2293587   7.9176846  82.0960693  30.2430611   9.0619488  82.1902084
  67.1036987  53.2422562  72.2653809  66.8736038  53.9382095  71.6498032
  67.5567322  52.5899849  71.7310333  79.4907074   6.6489749  70.9990387
  79.9159927   6.8141551  70.1575699  78.6137161   6.3426924  70.7681274
   7.7898383  69.8891373  35.6328316   7.8246846  69.1254425  35.0568237
   6.9685917  69.7888031  36.1142044  49.0260086  23.6289711  25.0214806
  49.9540710  23.4985523  25.2162170  48.6488914  23.9349365  25.8463440
  13.3060741  65.5091019  55.0578423  13.4852438  66.2820892  55.5932198
  14.0217123  64.9064865  55.2601891  55.4079056  71.6169739  46.4667397
  54.8391342  71.1452026  45.8583298  55.4267349  71.0686722  47.2511177
  38.7974701  64.0531540  58.9946823  39.3036804  64.3789597  58.2504845
  39.3394852  63.3575096  59.3668823  76.4324493   3.6160574  54.4815369
  76.3349686   2.7350390  54.8428345  76.9770584   4.0775418  55.1192398
  69.5438004  70.6415710  42.4623222  68.9126358  71.1458054  42.9757538
  69.5169373  71.0393677  41.5921097  15.7767916   6.9917779  76.4070587
  15.1220379   7.1355882  77.0903244  15.3572817   6.3848214  75.7972641
  58.2875938  12.6002121  86.6648178  57.3539352  12.3961945  86.6110611
  58.4762611  13.0739765  85.8547592   1.5731219  11.0224838  17.9319725
   2.0733654  11.6764355  18.4201679   0.6933919  11.0650396  18.3067989
   0.5646015   0.1855115  20.1245594  -0.0193514  -0.4472201  20.5427475
   0.0779359   0.4910316  19.3590221  13.5108652  38.8397751  17.1402225
  14.1463614  38.7878265  16.4263058  14.0442238  38.9377327  17.9289970
  21.5246716  51.8054276  74.2797852  21.3989506  50.9093552  73.9675598
  20.6909828  52.0352745  74.6901093  58.3967819   8.4234257  80.1282501
  58.4031677   7.8914652  79.3325043  58.4081230   9.3269539  79.8124313
  44.3954239  19.3577728   4.9129658  44.2090187  19.6477375   4.0199900
  43.5638924  19.4589901   5.3761497  56.2650070  30.0493984  80.1780853
  56.7765274  29.9243793  79.3787460  55.8196411  29.2125740  80.3107758
  71.6528549  58.5069084   0.7298124  72.2246552  59.1786118   1.1014183
  71.3168945  58.8978081  -0.0767600  61.9614372  17.7930527  68.0068893
  62.6793556  18.2722816  68.4206085  62.2152939  17.7292156  67.0861740
  32.1028442  69.3687210  17.1944485  32.7757645  69.6903763  17.7944050
  32.5911980  68.9125366  16.5091496  61.4854202  18.0015621  51.0690804
  61.5846100  18.1755486  50.1330681  61.4608040  18.8691654  51.4726753
  50.6330376  50.5481186   2.7324095  50.7587166  50.6802483   3.6720786
  51.3425140  51.0440254   2.3238077  12.6037531  46.6465683  33.2357178
  11.8096266  46.1248055  33.3512955  13.2138414  46.0587273  32.7902260
  82.8861160   3.8615105  63.3459816  82.0070114   3.5090003  63.4843216
  83.1920700   3.4347944  62.5456429   7.4695449  60.8789291  61.2825584
   7.5535479  60.5253410  60.3970375   6.9114785  61.6499100  61.1806641
  79.5039749  58.5385208  31.6308289  78.9234543  58.1459122  32.2828140
  80.2284393  57.9180756  31.5506306  63.7314758  53.3785973  16.5325775
  64.6049728  52.9978027  16.6232986  63.4961205  53.2228775  15.6179237
  51.7596588   3.5092907   1.1635321  50.8528671   3.2471867   1.0046101
  51.7282829   3.9915736   1.9897587  44.3603172  66.5290985  73.0739746
  44.9803276  67.1940842  73.3733368  44.5214462  65.7773895  73.6442490
  66.3705292  45.8870506  87.8126984  65.5039749  46.0233803  88.1957550
  66.9801483  46.0755615  88.5261765  10.1310892  57.6553917  45.5045319
   9.3130083  58.1464043  45.4278259  10.2200813  57.2054939  44.6643524
  64.2365417  65.6351700  54.5666275  64.5547791  65.1088181  55.3000526
  63.6181755  65.0632553  54.1119080  77.0002823  42.9287567  69.9082184
  76.2536163  43.4172325  69.5616379  76.7030869  42.0190735  69.9278564
  80.9446564  64.6521225  22.7352505  80.5174484  65.5079117  22.7719345
  80.2785339  64.0384293  23.0448990   0.4726215  33.7406082  62.6528015
  -0.4291136  33.7914238  62.9698563   0.6183890  32.8080406  62.4937401
  84.4452820  58.6953011  22.7502060  83.5002365  58.7826614  22.8746662
  84.6331100  59.2157211  21.9691067  82.9468765  22.4378090  38.9519310
  82.1839600  22.2004452  39.4790497  83.1964417  21.6250401  38.5122070
   3.3039370  68.9333801  77.3767853   3.4848986  68.8320160  76.4423294
   3.6218846  69.8110657  77.5884857  77.4568863  15.6598482  23.3484497
  77.7104187  16.5827065  23.3314781  77.2429428  15.4534645  22.4385777
  17.8870926  24.8836689  13.0145845  17.8609943  25.2299957  13.9065533
  18.7218552  25.1922302  12.6621742  20.4142189   3.1211772  18.0008945
  20.6941204   3.3762364  17.1217861  19.5275517   3.4727108  18.0813675
  40.6428223  56.4550056  71.2556839  41.1437225  57.1499557  70.8286209
  40.7552147  55.6940346  70.6860123  43.7651863  54.3835793  14.9615030
  44.4950562  54.6825294  14.4191446  43.0379677  54.9581795  14.7222986
  33.3142929  46.7969246  60.3684959  33.7914963  46.9092636  59.5463715
  32.5020142  47.2874985  60.2429085  20.6140728   9.5413313  76.8013535
  20.4384785  10.4358816  77.0932083  19.8714294   9.0329275  77.1272964
  71.1878815  60.0178185  18.1550770  71.1173325  59.4405441  17.3948059
  71.6391602  60.7947006  17.8248634  64.9571152  37.3734856  16.4985924
  65.8650055  37.0845985  16.4063473  64.8155823  37.4203720  17.4441090
  10.9770699  70.6152344  75.8427277  11.6227160  70.4925232  75.1467972
  11.0346861  69.8161240  76.3665085  17.3199673  66.6169128   8.5233698
  16.8947144  65.9118805   8.0351963  18.0878468  66.2047958   8.9192886
  67.8891830  11.3290787  66.4177246  68.5373917  11.9879856  66.6665192
  67.4976044  11.6699972  65.6135635   8.0175228   5.6480732  18.7724590
   8.9165678   5.3196311  18.7638016   8.1105280   6.5993004  18.8248901
  13.6819839  68.0488434  14.6000271  13.1524992  67.3209381  14.2743883
  13.9757357  67.7631302  15.4650764  67.7458267  42.9498367  16.0831814
  67.0133820  42.8044701  16.6820374  68.5074539  42.6028023  16.5476379
  45.9224777  40.6501808  14.0785446  46.3785591  40.5280037  13.2459002
  45.5117455  39.8033981  14.2531595   4.3699150  66.2416687  16.3211689
   4.5057273  67.1350861  16.0055943   4.1959252  66.3420792  17.2570515
  86.1299210  14.3426065  82.2568741  86.6753464  13.9115314  81.5989075
  85.9766541  15.2190933  81.9040070  57.3702164  44.2706718  44.7325897
  57.4966660  44.6839828  45.5866470  57.0882530  44.9844170  44.1604919
  21.9886360  43.5038376  16.1708946  22.1395302  43.0561256  17.0033722
  22.2344475  42.8612747  15.5053711  49.3205414  43.6929092  42.2325745
  48.4384995  44.0109367  42.0399857  49.3480453  43.6263161  43.1870613
  31.3382568  47.9752998  33.4442558  31.5977554  47.1656036  33.0046158
  31.8157654  48.6632271  32.9806061  81.0684891  37.2359543  50.2805481
  80.3496170  37.6345749  50.7710152  81.6550064  36.8905106  50.9535255
  75.5950928  32.3094406  28.5225620  76.3868790  31.7811489  28.4214993
  75.3712845  32.5784111  27.6316090  18.1517982  37.4153175  18.8666763
  17.3085728  37.0408936  18.6117058  18.7993793  36.8869820  18.4000568
  65.4411469   3.6493757  19.1347809  65.0211334   3.4533441  19.9722710
  65.6198044   4.5890741  19.1705856  41.0314713  54.8156204  82.5610886
  41.3999405  55.2011223  81.7661972  40.1065331  54.6803169  82.3551331
  49.2486038  50.4179192  51.4184227  48.9394531  49.6549759  51.9068642
  50.1527939  50.2044830  51.1879539  51.6607971  63.7964897  53.5138054
  51.1654396  63.6738167  52.7039909  51.5808334  64.7311401  53.7042389
  68.6044464  43.4198380  34.5376663  67.6940536  43.4854927  34.8259468
  68.9163208  44.3246536  34.5212326  70.9154968  50.3129158  63.5813980
  71.0155334  51.2458611  63.3920860  71.0318222  50.2470322  64.5292130
  10.1361837  13.2474766  72.3324280  10.4444160  12.3923874  72.0323563
   9.4106722  13.0465965  72.9236298  42.3306885  36.4944267  84.8161392
  43.1956787  36.8355179  85.0434799  41.7219772  37.0198898  85.3353653
  19.1291771  47.8448181  52.3882408  19.6420918  47.3588333  53.0339737
  18.2409077  47.4999504  52.4792175  85.8961716  37.8579674  26.1720409
  86.1711121  36.9851685  25.8912106  85.1723862  38.0809784  25.5867004
  14.4611549   6.4692650  83.9735184  14.0007677   5.8471918  83.4102249
  14.6546936   7.2122178  83.4018555  10.1886206  28.0565224  88.8425446
   9.2735186  28.2502480  88.6393433  10.2929525  27.1316166  88.6191711
  68.7721405  27.7218742  61.6617241  68.0348282  27.5936432  62.2585144
  69.0401459  26.8357906  61.4182854  54.2969208  64.1083145  30.1113491
  53.5015373  64.4598846  29.7113571  54.0702896  63.9934502  31.0342121
  54.7160034  39.2535744  44.2368279  54.1034966  38.9068871  44.8855782
  54.9035835  40.1432648  44.5359879  60.9282799  26.1744385  41.7517548
  61.4689484  26.9562988  41.8640327  61.5350761  25.4441719  41.8731651
  50.5019646  13.7236357   5.6291409  50.4716530  13.7134533   6.5858068
  49.6218071  13.9910154   5.3644547  39.7774620  28.8636780  39.4958572
  40.7120476  28.9005508  39.6993752  39.6384735  29.5811176  38.8776360
   1.9137036  38.0859566  44.3540459   1.0513401  38.0707397  43.9389191
   1.7783784  37.6647530  45.2028694  42.6209831  32.7413063   7.2555370
  43.0797424  33.2362595   6.5767207  43.2322006  32.7215118   7.9919167
  59.2557793  22.8214264  86.4463577  60.1338806  22.6665707  86.0982361
  59.2833443  22.4634628  87.3336792  70.3413696  24.2418499  79.9932098
  69.7052994  23.6625633  80.4128189  69.8471985  25.0376358  79.7963562
  58.6530914  31.4223595  87.8790894  57.7788162  31.2306595  87.5397797
  58.9694939  30.5831852  88.2136154  67.6670837   7.7670298  16.3070164
  68.0451050   7.6300812  15.4383545  67.8027954   6.9353991  16.7611122
  77.6920090  23.6457729  72.2973480  78.0183640  23.2802525  71.4750824
  77.2516708  24.4561443  72.0411606  84.2985458  16.8499718   2.0178401
  83.3468704  16.9511070   2.0002561  84.4760284  16.3964691   2.8418958
  58.8929634  16.2925529  43.9446526  59.6402969  16.8894634  43.9069748
  59.1550674  15.5462894  43.4055557  25.0686169  49.3441277  36.8851089
  25.7389755  48.9334908  37.4312134  24.4963951  48.6222610  36.6249161
   1.5998466  38.7356796  27.3204727   0.6810434  38.6059456  27.0855236
   1.9921294  37.8660545  27.2423744  36.6500015  35.7916603  78.1158218
  37.2835083  35.7501526  77.3994598  36.0443382  35.0711098  77.9419937
  36.7594185  19.3152313  15.8088198  37.6882401  19.4318981  16.0086040
  36.6632843  18.3750057  15.6572742  79.1175003  41.1275597   3.7198381
  78.7292252  40.3183517   4.0524950  79.8748856  40.8382874   3.2110009
  16.3880005   2.9781327   4.3107896  16.3063335   3.6972222   3.6843133
  16.7152977   3.3921812   5.1093340  36.2168121   5.6070738  32.2392883
  36.1882324   4.6753845  32.4569359  35.6364975   6.0202913  32.8785973
  84.4852600  36.0977173   1.2761179  85.2019272  36.6790390   1.5304551
  83.8498154  36.1753883   1.9877380  36.4736671  55.7011757  83.0511703
  36.7149086  56.5601234  83.3979340  35.5762672  55.8129539  82.7374649
  64.1189041   7.6572833  13.6607656  63.9105263   8.0674658  12.8213835
  64.2520370   6.7332740  13.4493074  86.4116592  32.4514771  87.6473541
  85.9384766  33.2657166  87.8186646  86.4912796  32.4167442  86.6940994
   6.2206378  12.2702627  40.0635033   6.2585754  11.4858131  40.6107063
   6.2668495  11.9391079  39.1666031  63.8244667   7.1656885  76.8106689
  63.5888901   8.0658007  76.5858688  63.9366112   7.1777296  77.7612000
  78.4773026  36.4864388  30.2854671  78.9056168  36.6762276  29.4507484
  77.8737183  37.2176781  30.4166660  25.3070087  56.8327103  66.0648727
  24.9975185  56.9998093  65.1746292  24.5250454  56.9181137  66.6102753
  79.1159134  51.4870071   3.3914316  79.0133209  52.1789513   4.0448246
  79.7144928  50.8604469   3.7980714  77.5461655  23.6389179  88.1564178
  77.5128632  24.2944870  87.4597473  78.4388657  23.2954521  88.1196213
  73.2572937  14.1732321  80.5878601  73.0691147  15.1087627  80.5130157
  72.4513016  13.7431850  80.3020782   9.6266727  11.9728270  50.8573036
   9.7717590  11.5668039  50.0027122   9.9197073  12.8772030  50.7456474
  79.3899994  54.6383591  64.3469162  79.2347565  53.6969948  64.4241562
  78.5237732  55.0330124  64.4475937  85.3911667   2.9086118  74.1469269
  85.0298843   2.1184816  74.5486832  84.9558487   2.9653158  73.2963333
  71.9037933  42.3643799  68.6594925  71.1470108  42.8886337  68.9215546
  72.2179642  41.9731216  69.4746323  18.3471336  58.9131927  37.1641502
  18.5044079  59.7451172  37.6106911  18.1050968  58.3073883  37.8646164
  40.0693054   7.3898754  84.7689819  39.9693031   6.4420762  84.6800537
  40.2583466   7.5246902  85.6975937  13.0839930  54.6872559  79.6828156
  12.3413639  54.9074326  79.1204453  12.8639412  53.8290100  80.0450516
  23.0498180  14.9843178   6.0411868  23.1731892  14.5548630   6.8876972
  23.7522831  15.6330309   5.9970856  38.0879097  66.4254227  25.6073036
  37.3313179  66.3366089  26.1868820  38.0314484  65.6699219  25.0222683
  85.9777145  37.6088676   6.5653629  86.0328598  38.5518951   6.4108033
  86.6290436  37.2308311   5.9745235   9.4622002  64.1602478  86.4353561
   9.7144918  65.0052872  86.0632019  10.0648623  64.0315857  87.1678009
  78.6004715  53.7167168  50.1057510  78.4476089  54.6043129  49.7816544
  79.4909286  53.5085220  49.8229675  45.0410614  52.1224442  12.2113285
  45.4390640  52.9044075  12.5938978  45.0373917  51.4827576  12.9233837
  73.1080704  21.1115646  82.7781677  72.7104797  21.9821472  82.7627335
  72.3891449  20.5161419  82.5663681  33.2782822  42.7077827  73.1977692
  33.4752808  41.9581680  72.6360703  33.3499870  42.3649597  74.0885925
  56.3786201  50.1793976  56.7718010  56.1219635  49.3109741  57.0819702
  55.8667870  50.3095322  55.9734764  60.2717400  16.2458858  38.0871544
  60.2120552  15.7781677  37.2541428  61.0148735  16.8388977  37.9761658
  16.2075863  67.4983826  63.7558022  16.0265388  68.1299973  63.0597305
  15.4284649  67.5242233  64.3112640   2.8789575  18.7462864  75.1278381
   2.0133381  18.4131470  75.3643799   2.7295566  19.6654663  74.9064331
  19.1256390  59.3551064  51.6638565  19.9697552  59.7935295  51.7710266
  19.3512325  58.4578743  51.4182625  37.3933411  65.4472351  18.8672543
  37.6292877  65.7759323  17.9997768  37.2879829  66.2346344  19.4012375
  15.5356789  61.4410286  57.5453262  15.2371969  60.6334190  57.1271057
  15.7653179  61.1784325  58.4366989  71.5705032  19.2378025  57.2375603
  70.7350769  18.7738056  57.1827850  71.3404541  20.1075134  57.5645294
  41.4904137  60.3566856   7.5570049  40.6247444  60.7607040   7.6171498
  41.3138962  59.4166641   7.5190897  20.7771149  50.7010918  46.3054810
  19.8293114  50.5745621  46.2619858  21.0163746  50.4174576  47.1878281
  70.7800369  33.8004303  44.1878548  70.8782578  33.0901108  43.5537949
  70.2785645  34.4696198  43.7220802  24.4898777  50.3450050  59.1385651
  23.7143764  49.8309860  59.3635368  25.1436806  50.0894394  59.7893028
  13.7767048  25.2210255  27.3138924  14.3597660  25.9801197  27.3208866
  13.1112156  25.4241123  27.9712429  26.2920475  12.8139114   9.6382294
  26.3489189  12.0536900   9.0593853  26.1626205  13.5557318   9.0473137
  68.1801224  13.6494150  45.4009018  67.6807404  13.8588648  44.6116104
  68.2293930  14.4767685  45.8797417  62.6278496  47.0641632  85.6263733
  63.1577759  47.6499672  85.0857849  63.1203346  46.2435646  85.6440048
  49.6481438  59.1095123  22.3564110  48.9355354  59.7151184  22.5605373
  50.0019760  59.4272957  21.5257187  52.8280945  53.4677887  43.4698830
  52.3190956  54.1177139  42.9853783  52.3712845  52.6411705  43.3141251
   0.0646210   0.9911411  48.8143463   0.4374926   1.3825848  49.6042633
  -0.0649584   1.7296399  48.2193184  62.3328857  30.4885712  41.2192421
  62.4362221  31.4388084  41.1682510  61.3947906  30.3427601  41.0969582
  51.5155525  51.0544739  72.6349716  51.1623688  50.2012596  72.3829346
  52.3889999  51.0770912  72.2440643  33.0666313  52.0006828  82.3137054
  33.9140434  52.0326195  82.7576752  33.0975380  52.7229843  81.6863708
  61.4206581  41.5187035  11.8037310  62.0645218  41.3833046  12.4989576
  61.9098701  41.3769569  10.9932919  80.4732895  13.0603838  47.7761841
  80.7077866  12.8848429  48.6874619  79.9865494  13.8839550  47.8084984
  46.6424942  20.2250938  75.5113983  46.2444839  20.7932224  74.8518143
  46.9633293  20.8265076  76.1834106   2.9122329  41.3585587  76.8508072
   2.4424646  41.0548820  77.6275558   2.2463677  41.8043289  76.3272247
  66.8010483  64.9320221  13.9031029  66.7674561  65.7403259  13.3914919
  66.4246521  65.1691895  14.7506332  16.6808701  61.9676247  45.4794579
  17.5768414  62.1946526  45.7283058  16.3502197  62.7488060  45.0359955
  66.6245499  46.1598206  85.1247635  66.3558044  46.3574791  86.0219498
  66.5737076  45.2058945  85.0641632  25.7767429  17.2487526   3.2669120
  25.6034622  16.4446583   2.7773850  25.1465702  17.8805332   2.9205475
  67.1396561  42.4086151   9.0711966  66.2609024  42.7637825   9.2049522
  67.1792068  41.6444130   9.6462259   8.0661230   3.3100810   1.1420721
   7.8901072   3.9880116   1.7944986   7.9194264   3.7431231   0.3011283
  12.3290529  39.7543449  62.3960571  11.5086069  39.2728004  62.5019531
  13.0115843  39.0946083  62.5190582  71.8000259   5.5944066  70.6370697
  71.3330688   6.0419774  71.3426590  71.4286957   5.9603224  69.8342896
  48.0802040  48.0958138  24.6637402  48.9058685  48.1910172  25.1385536
  47.8803062  47.1611748  24.7159119  22.5551395  43.7063828  38.3977890
  22.0187187  43.6557388  37.6066360  22.3781223  42.8871002  38.8600349
  33.6510086  39.5848885  23.3217564  33.3715210  40.4739838  23.1035099
  32.8385696  39.0798645  23.3552723  28.2642708  62.4257202  38.0317497
  28.9760017  62.3100510  37.4022369  28.2090130  63.3727531  38.1594505
  52.5476875  18.1090603  35.2967873  52.6231194  18.7484131  34.5884323
  53.3692513  18.1902637  35.7812157  40.1040955   1.8013834  67.4660187
  40.8395576   1.6898898  68.0684204  39.8578415   2.7219329  67.5564575
  27.4592304  38.1177483  77.0341949  27.2586517  38.9410400  76.5890121
  27.3808765  38.3238678  77.9656525   3.5839112  64.4958038  12.2307959
   2.6911931  64.2509842  12.4744186   3.4828048  65.3095093  11.7369509
  56.3774910  13.0101862   8.1173162  56.3278732  12.7299385   7.2034059
  56.3952599  13.9662418   8.0740366  11.4642439  54.6069069  83.9688873
  11.1906643  55.0875244  83.1876144  11.7572279  55.2854385  84.5771561
  36.6422958  42.8375359   1.3588006  36.5238152  43.7204628   1.7089968
  37.2877388  42.4342422   1.9393058  52.8005524  26.0778084  23.1145744
  53.5567627  26.4930706  22.6999283  52.0438042  26.4604168  22.6705322
  -0.0460928  37.2017174  49.0329971  -0.3799146  38.0873909  48.8902512
   0.6188785  37.0841599  48.3545990  31.6386414  62.4583778  74.0035477
  31.8970184  62.8866348  73.1874161  30.7829437  62.0744934  73.8121185
  60.5627365  19.4265671  36.2688103  60.9646378  19.1605778  37.0958252
  59.6556625  19.1284714  36.3365288  53.4791718  22.9968090   3.8285542
  52.7369041  23.0243092   4.4323044  53.4039879  23.8040085   3.3196242
  52.8163605  69.3214035   1.8567349  52.5450211  69.2178574   0.9446576
  52.8649292  68.4273376   2.1951492  29.6995697  49.7540894  16.0490456
  29.5681572  49.6665039  15.1049633  28.8271675  49.6346893  16.4243965
  22.3506184  31.8638172  14.7259464  21.7659607  31.9709530  15.4762325
  21.8444824  32.1857414  13.9800091  83.9140930  33.2273178  47.1720772
  83.3689423  33.1626015  46.3879547  83.8289108  34.1398087  47.4483681
  87.0500565   2.4280119   6.5725293  86.9243088   2.6900303   7.4845424
  86.4385605   1.7026807   6.4452286  76.5614624  45.8160820  10.5765591
  77.4019394  46.2452583  10.7366886  76.1852341  45.6934967  11.4481401
  62.0438309  26.4182014  34.7857666  62.5748291  26.8945007  34.1474800
  61.1921005  26.8543434  34.7618408  48.0919800  61.4655457  22.6365337
  48.2889557  61.8322792  21.7745953  48.2388268  62.1902237  23.2444057
  83.3404083  68.8379364  23.0211277  82.7953110  69.3134460  22.3942394
  83.4560699  69.4483719  23.7492943  86.5235596  28.1393661  22.4727993
  85.9140167  27.4137421  22.6075401  86.2064514  28.5747643  21.6815319
  79.6070557  19.8680420  35.3161125  79.5812454  18.9652748  34.9989738
  79.2070923  20.3803024  34.6133652  22.6448784  45.1043282  10.6281958
  23.0538101  45.9214630  10.9133196  22.6158428  44.5630150  11.4171019
  21.7317715  15.1480923  17.8068905  20.9554482  15.2734041  18.3526459
  22.4407997  15.5598135  18.3008499  14.3925152  46.9110031  10.0157671
  14.2612896  46.4634514  10.8516560  15.3410444  47.0210495   9.9493256
  35.1370468   2.0267451  76.1766281  35.8239288   1.5229669  75.7400055
  34.7142830   1.3982208  76.7618256   5.9703202  26.5631065  70.2152634
   5.7344565  25.6366253  70.2625122   6.8441677  26.5681744  69.8246231
   4.1867366  27.5949459  41.3222847   4.2256589  26.9371338  42.0165482
   3.4915137  27.2880783  40.7402802  24.2003784  65.8691254   9.0445976
  23.3145485  65.6697845   8.7416105  24.2884865  65.3822403   9.8639975
  44.8082733  29.3760967  25.0303421  44.1221313  29.9942627  24.7787170
  44.3365593  28.5763988  25.2631454  65.0037613  19.8050346  18.8612309
  64.2750092  19.3898830  19.3225365  65.7129135  19.8264351  19.5037880
  63.7010155  70.2905960  16.9108162  62.8033600  70.1273270  17.2002792
  63.6671066  70.1939240  15.9591131  22.4787388   9.4366779   7.7238884
  23.2383385   8.8556185   7.6837821  21.9886284   9.1376638   8.4897957
  86.1577148  52.6507797  27.2604713  85.3397827  52.9794579  26.8873844
  86.2330017  51.7580452  26.9234428  70.9850388  68.7794037  59.5068588
  70.2431564  69.2189789  59.9223366  71.6229248  69.4769669  59.3560638
  13.9586077   0.9810417   5.0777717  14.0100079   1.9356132   5.1265893
  14.3478632   0.7632223   4.2308555  75.1335373   1.8623071  62.3766174
  74.7884674   2.7210639  62.6209450  76.0114670   2.0435867  62.0410423
  43.4663887  21.5393238   2.9651587  44.3222580  21.2981606   2.6108170
  43.3595047  22.4602890   2.7271900  23.2876492   7.1577516  26.7073288
  24.1033192   6.8756161  26.2934284  23.3794193   8.1064634  26.7953930
  83.4540253  53.4621773  62.4065666  83.8771667  53.4381065  61.5483093
  82.6994629  54.0385590  62.2855072  58.5728302  57.8016014   7.6773744
  58.3646698  58.6118240   7.2121401  59.4701080  57.5977249   7.4136329
  36.0214233  20.5890160  29.6677685  36.6467018  20.6201115  30.3918476
  36.1202850  21.4342136  29.2294769  66.0638199  34.2668915   8.3180046
  65.4601288  34.8170090   7.8188400  66.9188156  34.4253082   7.9178514
  77.9540634  32.8435478  11.8516569  78.1760788  32.8989677  12.7811031
  76.9974518  32.8143311  11.8352375  49.2937012  57.6739311  81.4748077
  50.1485062  57.5516357  81.8878250  49.4940186  57.8344650  80.5526657
  62.7980461  14.0697889  17.5882530  62.9198723  14.0335493  18.5369778
  61.9671669  13.6195469  17.4360981  73.2513428  45.3103638  31.6560555
  73.1786804  45.7826920  30.8266830  73.2207489  45.9945335  32.3247948
  13.1943846  70.2799911  33.8756409  13.6659021  71.0973434  34.0363884
  12.6213436  70.4758606  33.1343651  78.0520782   5.2695765  39.1721916
  78.2049332   4.8160243  40.0011406  77.7160797   6.1286936  39.4276390
  68.2872696  36.5205231  13.0314026  67.5666733  37.0964241  12.7758484
  68.0510483  35.6663551  12.6697054  51.0926704   7.4355474  81.8590317
  51.9508018   7.6760597  81.5097504  50.8073387   6.7044802  81.3109818
  12.5596170  57.1154938   8.4920931  13.3775024  56.8349609   8.0814877
  12.1807318  56.3106918   8.8456001  65.0823059  22.4578438  55.9195328
  64.2252884  22.4916878  56.3445129  64.9661102  22.9496422  55.1065941
  81.1524124   0.3879188  65.9650803  80.2684631   0.7535752  65.9311523
  81.4125671   0.3047124  65.0476761  64.0486298  44.1097794  37.5091629
  64.5703125  43.3704529  37.8213806  63.2426414  43.7120895  37.1798477
  54.4838715  52.7911797  41.0758057  53.5366592  52.7508736  41.2077065
  54.7703247  53.5253448  41.6191139  83.9634171  33.5554886  70.8792648
  84.5327606  34.2316589  71.2465210  83.7014465  33.9005928  70.0257416
  54.6165848  43.9960175  66.6730118  55.3497467  43.4747429  66.3459396
  53.8936920  43.7911949  66.0799637  83.3835220  51.3093529  46.9476967
  83.5307007  52.1164665  46.4546089  84.1244354  51.2591743  47.5516510
  38.1530457  21.0554314  18.2147198  38.7097435  21.5990677  17.6572437
  38.2056160  21.4652805  19.0781384  54.3598328  23.0273037   6.6787667
  54.5607300  22.9291954   5.7480426  53.6677856  22.3867950   6.8432322
   6.6779251  23.8654785  60.5633163   6.3434553  23.1760788  61.1369820
   7.6287313  23.7580338  60.5889091  72.3571320  30.2088852  79.6609116
  72.0212784  30.7889595  80.3442459  72.2931747  30.7240181  78.8566818
  69.2523041  46.3017311  19.2298813  68.4133835  46.2105103  18.7780762
  69.0164490  46.4424286  20.1468391  13.1901655  70.8473053  17.8548965
  13.0365181  70.2303848  18.5704594  12.3213844  71.0082855  17.4867439
  43.3762741  52.2340508  27.9846935  43.3632927  51.6059685  27.2624893
  42.5639763  52.7304993  27.8849926  51.5115547  41.8730011  36.9925575
  51.5495605  42.4293175  37.7705688  51.2694321  42.4688606  36.2836418
  14.1107588  49.2571030  80.1429443  14.6147366  49.8670540  79.6042404
  14.7390871  48.5774040  80.3867569   4.1064043  43.8886185  57.9838791
   4.7620082  44.1031914  58.6474876   3.3153954  43.6887932  58.4844856
  14.2743998   8.3798800  82.1783981  13.4415903   8.7120810  82.5135193
  14.9278908   8.9981422  82.5054092  10.5788746  46.5419693  16.0635223
   9.9397430  46.5437622  15.3509636  11.2661037  47.1403008  15.7703581
  65.6159363  43.9069862  56.4143944  64.9999619  44.6345749  56.3282051
  66.4725494  44.3265686  56.4943962  39.3349533  50.2672958  25.2088203
  38.4033165  50.3271790  24.9974003  39.7675629  50.1730461  24.3601761
  77.2669144   2.2811975  57.7949028  77.3711929   1.5271749  57.2145500
  77.9243622   2.9081886  57.4934502  56.6821671  10.6805153   9.3608875
  55.8895874  10.6761761   9.8975754  56.6435432  11.5091991   8.8833714
  86.3958206  59.2835121  48.1341248  85.9271469  59.3524284  47.3023643
  87.0629196  59.9685860  48.0906296  85.2352982  10.5731401  73.1491394
  84.9748154  11.0659695  73.9272766  85.3383713  11.2377834  72.4680634
  76.2391968  44.0220795  72.5207062  75.4560547  44.2820358  72.0355835
  76.8957520  43.8558083  71.8443069  26.8764172  46.6277771  32.7524643
  27.0454292  46.8212166  31.8303776  27.3174171  47.3308182  33.2294159
  69.5437241  13.4653826  53.7736320  70.3738937  12.9912634  53.7260208
  68.8840485  12.7819729  53.8919754  82.0774460  28.2757301  76.1830902
  82.7136612  28.9716225  76.0181580  82.5895081  27.4681168  76.1407928
  82.4561844  37.2070274  60.7854767  83.3804626  37.3735161  60.9704857
  82.4643707  36.4934616  60.1475182  56.7768593  28.4015579  31.2537937
  56.1843987  27.7993832  31.7039146  57.5076408  28.5172329  31.8610897
  73.2580566  64.3698959  24.6214447  73.7889328  64.1793137  23.8480873
  73.6528702  63.8455162  25.3181381  12.7011051  12.5021086  14.6447115
  13.2449303  11.9125328  14.1223249  13.0920095  12.4776697  15.5181122
  22.8637390   6.0133438  86.6527710  23.0051575   5.5510855  87.4789352
  23.6147041   5.7708368  86.1110382  13.6392050  59.2746735  38.2283249
  13.4094152  58.4545593  38.6651802  12.8743658  59.4826622  37.6916771
  64.7498932   1.6266814  73.5191956  64.9047546   2.0548639  74.3611603
  63.8061295   1.7057321  73.3802872  52.2221489  31.7944183  62.0160332
  52.4879074  31.4238491  61.1744385  53.0439110  32.0481911  62.4361992
  17.2181129  53.1086044  -0.1222019  17.4371777  54.0221214  -0.3058669
  17.6996193  52.9032936   0.6791912  82.4539108  21.1541615  76.2534332
  82.7382050  21.3231163  75.3551712  81.6620941  20.6247845  76.1584778
  54.3738556  44.7433472  80.9647446  55.0437012  44.4325943  81.5738220
  53.5576897  44.3667374  81.2937927  78.1743622  69.7487335  58.1954079
  77.2626419  69.5003586  58.0427475  78.6799469  68.9824677  57.9243889
  82.8214493  16.2832050  77.0433731  82.1852570  15.9043589  76.4367676
  83.2540436  15.5269928  77.4399109  60.0658226   5.4619908  47.4774933
  59.3776550   5.6448293  46.8377876  59.6342888   5.5553460  48.3267860
  27.1836662  65.6041031  16.3790913  28.0327835  65.9846497  16.6036243
  27.3096313  64.6606750  16.4806252  62.6525307  50.6129646   3.7889011
  62.4592819  50.4848061   4.7175899  63.4465599  50.1005783   3.6365530
  56.6254807   4.2392039  31.8137589  56.6658592   4.3001628  32.7681618
  55.8727722   3.6735239  31.6415195  42.2320595  51.6065445  10.2107277
  41.8563309  51.9937248  11.0013943  41.5402603  51.0397377   9.8695822
  13.2419014  15.8030891  45.8535080  14.1233349  16.1579838  45.9690742
  13.1243801  15.7579651  44.9046249  68.7729874  35.2662506  34.0085716
  69.0155945  34.5343971  34.5758133  68.9121552  36.0442123  34.5486069
  75.5970383   0.0181486   3.3141856  75.5071106   0.9630265   3.1902936
  75.8486481  -0.3135530   2.4522681  58.0698242  42.2115669  81.4985428
  58.6805382  41.5516243  81.8267746  57.8787346  42.7604065  82.2591324
  15.1406546  36.2914696  31.5161724  15.8149986  36.9666519  31.5911446
  14.3254004  36.7415810  31.7375202  65.4706192  31.1880322  57.1498108
  65.2810745  32.1261673  57.1353416  64.7482910  30.8053875  57.6478577
  82.6745453  46.9393044   0.9111292  82.0561295  46.2098503   0.9522241
  82.1357574  47.7181892   1.0499685  23.1657715  14.0066757   8.7478695
  22.8414955  14.0864410   9.6449289  22.9073830  13.1256390   8.4772377
  50.4151764   1.8465838  31.3962193  49.9738884   2.6017387  31.0073223
  50.7913666   2.1819181  32.2100143  55.9751511  60.4093170  53.4857101
  55.1866493  60.9517899  53.5006599  56.5514641  60.8063889  54.1387253
  46.9117584  20.1141167  60.1446037  46.6431160  21.0327015  60.1283340
  47.4963341  20.0488720  60.8997536  51.1109619  56.4136124  76.0363388
  52.0592194  56.4655838  75.9165878  50.8310509  57.3242149  76.1295242
   0.5512666  58.6797142   5.6022048   1.3437207  59.0667191   5.9743280
   0.0535869  58.3763161   6.3614783  59.3946304  71.8979568  68.9763718
  59.9077835  71.0981598  69.0914230  58.4841385  71.6032486  68.9959793
  12.4243212   7.0072231  18.3524704  13.2034559   7.1484842  17.8146744
  11.9913206   7.8605738  18.3756027   1.1114947  19.4252872  49.1870728
   1.9513872  19.8838634  49.1642609   1.2709186  18.6608982  49.7407227
   0.7510228   4.8764763  13.4276247   0.7422157   5.5598264  12.7574110
   0.1046736   5.1647487  14.0721121  32.8651733  43.6949387   2.0591655
  33.0743599  44.5463905   1.6751003  33.2604065  43.0594025   1.4624135
   4.1326175   3.3857348  28.8443165   3.7956874   4.0672450  28.2627201
   4.1724544   2.6016810  28.2966805  30.8306713  17.7969990  23.1295357
  30.7305946  18.7481709  23.1680889  29.9363823  17.4651012  23.0499954
  13.0451727  67.3540039  49.2817955  12.9347763  66.4336548  49.0430222
  12.3869600  67.5061264  49.9599152  44.7968407  29.2096024  61.9066925
  45.4857826  28.5949593  61.6540947  45.0687599  29.5346680  62.7649612
  58.4023170  15.8992386  83.4600754  58.7562790  15.0129385  83.5336761
  59.1527557  16.4710331  83.6217041  10.4116611   3.6094577  60.8795052
  10.7643871   4.3813567  61.3222122   9.9666681   3.9586618  60.1073227
  39.1353264  23.5858727  14.3275919  38.6428299  23.9257221  13.5804768
  39.1134758  22.6353912  14.2164974  37.8443336  58.7414093  57.1774445
  36.8992805  58.7213478  57.3281174  38.2137604  59.0312462  58.0115585
  72.9462204  31.0088120   4.5149269  72.2567444  31.0646172   3.8533027
  73.5858383  30.4011345   4.1436458  13.4798231  68.9698334  75.1286163
  13.9331465  69.7980728  75.2859497  14.0419044  68.3086548  75.5325165
   8.8999538  44.9960938  62.2326622   8.6210375  45.8435516  61.8858910
   9.5167313  44.6620445  61.5813332  73.3179550   3.0092309  40.2344894
  73.7942810   2.2316239  40.5254669  73.9335709   3.7303288  40.3658791
  51.0296898  11.8590908  14.9015751  50.6273994  12.0957413  14.0658770
  50.7599030  12.5536327  15.5024567  69.4159775  10.8758049  21.8978710
  69.0295563  11.3923922  21.1907330  68.9965286  11.2058992  22.6924362
  13.5975828   6.9921699  86.6411819  13.6400900   7.9475231  86.6827087
  14.1416159   6.7607141  85.8883972  64.2006989  36.2677078  66.4726562
  65.1077271  36.5082397  66.6615295  63.7298431  36.4519386  67.2854233
  23.3223324  41.3571281  31.3010597  22.5810146  40.8323212  31.6031456
  23.9408550  41.3406715  32.0313988  46.9071388  56.6771889   0.3861759
  47.6977119  56.1379013   0.4060592  47.2285652  57.5684929   0.2501876
  76.4486237  28.0490780   9.7775383  76.5939636  28.9514771  10.0617685
  76.6775131  27.5179272  10.5402451  49.1763878   5.3351102  79.4365005
  49.6724167   4.5673299  79.7205811  49.8174896   5.8782573  78.9780121
  81.9239655  57.0612106  16.7313347  82.7411194  56.9125443  17.2071342
  81.6869812  56.1999474  16.3873920  23.9179726   9.9348526  80.2954636
  24.2929039   9.2782211  79.7085342  24.6725655  10.3065605  80.7522507
  70.1211853  27.5357704   4.3293500  69.4470749  26.8677673   4.2045460
  69.8655853  27.9865494   5.1341467   5.8455529  68.7809753  79.2660370
   5.0846963  69.2157059  79.6511917   6.1153283  68.1416397  79.9253540
   7.9209938  57.2585716  82.1030426   8.0500011  57.4433403  83.0333405
   7.0137615  56.9595566  82.0418015  50.4168320  61.5540085   6.7878861
  49.6034660  61.9671173   6.4980516  50.1415787  60.9250679   7.4548955
  29.2335472  45.3915939  57.3531151  29.2038441  45.3779984  58.3097572
  28.7757206  44.5939102  57.0879135  67.9366226  70.5702438  79.8727264
  68.1707077  70.2650681  78.9961929  68.7461090  70.9448776  80.2200241
  77.7615814  65.6326370  38.5598755  78.4884186  66.2509766  38.4850082
  77.0232086  66.1655197  38.8549500  16.2459412  60.6677551  22.0612640
  16.4741402  61.2541885  22.7825508  17.0691509  60.2349930  21.8348255
  62.4827385  32.4010582  64.0469742  63.0998116  31.7002602  63.8364105
  62.8750916  32.8483925  64.7967682  82.5634155  69.7966003  11.3092260
  82.7367630  70.7079010  11.5452719  82.0791702  69.8505478  10.4853191
  31.5480938  42.5461235  17.2899837  32.1391525  42.6136894  18.0398617
  31.1266613  41.6929245  17.3933048  44.9445343   9.1516619  84.0749741
  44.6791954   9.6964569  84.8159409  44.4483223   8.3404598  84.1843109
  70.1482468  57.8206673  86.9878922  70.0294952  58.7537346  87.1654129
  69.4555740  57.6056519  86.3632278  48.8733864  55.4504356  78.9554672
  48.4078979  56.2243385  78.6382446  49.5886497  55.8017731  79.4857407
  66.0302734  15.2233067  10.9569731  66.1251678  14.8710346  10.0720263
  65.3082123  14.7233438  11.3376322  19.6679020   7.6155047  47.5283890
  19.9526196   8.1309986  48.2829971  20.1011219   6.7691841  47.6392632
  70.7645798  11.1013546  59.1454773  71.3857498  11.5238285  58.5522690
  70.2201996  11.8177309  59.4721031  27.3252678  66.1174545  82.0024414
  27.7379990  65.3724289  82.4392700  28.0410213  66.7359695  81.8562393
  45.5996399  54.8542862  82.0517654  45.3727646  54.1030998  81.5036011
  46.5000114  55.0668602  81.8060532  44.3727493   3.6990526  33.0614624
  43.8624382   3.1833479  32.4370728  44.7989082   3.0475752  33.6184158
  50.2556992  47.4269257   3.9824796  50.2040977  46.8563499   3.2156615
  50.9908905  48.0112267   3.7972157  52.2960014  60.9261971  57.6103325
  52.4332581  61.2780724  56.7308006  52.9762459  60.2603035  57.7107430
  12.9972839  58.3165779  26.7740555  13.4537544  57.5526810  27.1266613
  12.8287258  58.0934181  25.8586197  71.9476624  30.1763420  83.4226608
  72.0106430  31.1220932  83.2891617  71.3691025  29.8736629  82.7227402
  57.9332466  48.2360420  45.2193451  57.3947220  48.2770081  44.4290657
  57.4220963  48.7008400  45.8818550  41.0687523  11.8947077  83.0943680
  40.7183914  11.1417589  82.6184006  41.4523926  11.5195904  83.8870468
  81.0071793  50.1081467  80.4116974  81.5663452  49.9909859  79.6436844
  81.6115112  50.0854912  81.1536560   7.2925777  62.2858124  18.2880955
   7.5915070  62.0389595  17.4129162   7.1851530  63.2360039  18.2453518
  23.9470978  17.4788551  15.1380119  23.9600887  16.5433884  15.3404102
  24.5069447  17.8760452  15.8051281  40.2502365  12.3687468  29.5347195
  39.6373558  11.6552448  29.7122726  39.7933311  12.9256811  28.9044075
  70.9523621  69.9731293  89.3255005  70.1515656  69.4759293  89.1589279
  70.8504028  70.7718506  88.8079300  37.7784500   1.2136505  22.5849228
  38.6690788   0.8959310  22.7334595  37.4813385   0.7393379  21.8084011
  51.7367096  15.0139732  84.1619568  51.5740051  15.1779623  85.0908585
  50.8859749  14.7479239  83.8131027  83.1372757  45.9883118  85.5718613
  83.0186310  46.9145050  85.3613281  82.2697067  45.6022568  85.4513626
  59.2545128  42.0176010  58.2319641  60.0039749  41.4222145  58.2244606
  58.5028114  41.4589195  58.0343590  35.8172493  68.3432083  74.4842072
  36.2174149  69.0671768  74.0025711  35.9683342  67.5758591  73.9323120
  55.1409950  27.7158508  36.0353584  54.3309708  27.8882465  36.5153313
  55.5700035  28.5694065  35.9751396  52.8391075   5.0616736   9.4282875
  52.8387032   6.0164361   9.4965544  53.5707397   4.7825007   9.9787502
  59.0085831  50.9765854  77.2462082  59.1708069  50.4730721  76.4484711
  58.3162155  51.5917625  77.0045166  40.9616470  45.7901573  80.1716919
  40.9674225  45.9050484  79.2214279  40.2705688  46.3765106  80.4796448
  31.8477364  45.9263840  68.9875946  31.0680237  45.5143547  68.6154251
  32.3893738  46.1432571  68.2287674  17.1229820  23.2313251  80.9189835
  16.7235565  22.3620033  80.8877792  16.6140270  23.7512226  80.2969742
   3.0571218  44.7634659  64.2840576   2.5547383  45.2105370  63.6029053
   3.6158295  45.4457245  64.6563568  22.7229004   7.7363563  75.8758545
  22.2809067   8.5049562  76.2365875  22.9919014   8.0050526  74.9974060
  41.0642738  47.2243576  21.2367935  41.1296844  46.5663300  20.5447311
  41.4805031  48.0029984  20.8670578  12.9388494  53.9901237  39.7352753
  12.8881226  54.3745499  38.8601303  13.1606531  53.0718422  39.5810127
  31.5737534   3.1589973  75.2720947  31.7091866   2.3124926  74.8462830
  30.6868458   3.4151843  75.0191193  77.9340515  49.0974655  22.6656227
  77.6058731  48.9919281  23.5585918  78.8535156  48.8361473  22.7159176
  16.7145748  66.9737320  53.6890793  17.5577908  67.2634277  53.3408012
  16.2263565  67.7833481  53.8387451  70.1023636  31.9981537  72.0989532
  69.2220764  32.3654671  72.1789627  70.1965714  31.4327679  72.8655624
  59.2818222  63.3763962  54.5714798  59.6559906  63.1711655  53.7146759
  59.2349091  62.5324669  55.0207138  72.0643387  55.5118065  12.4970446
  72.4334717  55.7374878  13.3508844  72.7325821  54.9647331  12.0842495
  60.0472412  35.7000313  48.8142776  60.6472435  35.6627808  48.0694008
  59.1909790  35.8744621  48.4236107  51.0080910  22.3200474  81.3820724
  50.4096336  21.5735435  81.4105377  50.4350929  23.0867691  81.3885651
  69.8492203  28.7580223  13.1798506  69.3435364  29.2477074  12.5312166
  70.7521515  28.8063393  12.8658400  31.6816483  22.2472076  19.5397549
  31.2907696  21.4023094  19.3170662  32.0234299  22.5792389  18.7095890
   2.5634596   0.6415957  76.3357162   2.6620235   0.3932371  75.4165649
   3.2895489   1.2431660  76.5004578  51.3978348   4.7108388  81.4853058
  52.2323074   4.4911780  81.0710144  50.8189316   3.9830544  81.2585144
  46.4839668  29.5593243  14.1319466  46.9886513  28.9391575  13.6057167
  46.2993965  30.2848854  13.5355177  33.5041008  63.8050880  40.3819923
  33.2642975  63.6412926  39.4699097  33.9642906  64.6441650  40.3616753
   1.2981176  12.9347839  75.9780884   1.2492300  12.7843828  75.0340424
   1.0276769  12.1032133  76.3674240  12.4049406  27.0846367  79.8963089
  13.2825394  26.7716389  80.1155930  11.8232002  26.5909061  80.4742737
  63.2046013   5.2990484  31.0571480  63.3128548   4.4455009  30.6376591
  64.0950928   5.5721464  31.2777863  82.5469666  55.8221855  43.6505203
  82.5076294  56.5796776  43.0666618  82.6035004  55.0691223  43.0623627
  65.8634949  25.6004677  83.5012360  66.0098419  24.6900558  83.2444000
  65.1429520  25.5590801  84.1299973  47.8628387  10.7611284  59.1856880
  47.1042099  11.1813669  59.5907974  48.5241356  10.7424908  59.8774757
  84.4484634  19.3364964  79.5480194  84.1341400  20.1928730  79.2581024
  85.0088577  19.5289726  80.2997818  65.4230270  22.5852985  41.8116226
  64.6527176  22.9959373  42.2043419  65.8520279  22.1355553  42.5395813
  24.7481594  57.4211197  16.2249680  24.9710808  57.6024437  17.1380177
  25.5686684  57.1223412  15.8328848  10.4302282  70.1850815  85.1965485
  11.2983742  69.7821732  85.2112732  10.2367163  70.3707123  86.1154251
   7.1474118  34.8533821  30.5040894   7.9701104  35.2957077  30.7132511
   7.1923127  34.0254211  30.9823132   4.4647446  40.6723442  44.5449905
   3.5320742  40.6637878  44.3298531   4.4933791  40.5355721  45.4919357
  41.3593979  21.2996235  78.0554276  42.2506905  21.3914242  77.7186661
  40.8419609  21.9133224  77.5340195  77.6639557  53.1991463  23.2367172
  77.2780762  53.8004417  22.5997105  76.9187088  52.8762169  23.7432327
  43.7083778  58.0885468  35.5505219  44.0759697  57.3449364  35.0728683
  43.3720779  58.6691246  34.8678322   6.6479588  71.2946701  21.9264622
   6.4172406  72.0314941  21.3606949   5.8453093  71.1053162  22.4123936
  82.0820084  27.9647408   6.0133624  81.4886398  28.6877728   6.2167568
  82.4788437  28.2085724   5.1771226  26.2322254  43.4533501   5.4107962
  25.5098343  44.0706100   5.2951465  25.9338512  42.6521072   4.9804296
  72.4086227  12.6098728  54.5244102  72.6022720  11.6955748  54.3175507
  73.1540146  13.0977249  54.1742401  57.7088165  21.8130398  69.3780899
  57.5074692  21.4300995  70.2319336  58.5909042  22.1710072  69.4781342
  73.3477554   2.7706082  31.3326397  74.2276535   3.0653968  31.5673943
  73.1858215   2.0205598  31.9048595  81.6412430  60.3627663  53.7043762
  82.5639801  60.6059570  53.7795372  81.5346146  59.6352234  54.3171921
  55.8624687  44.2294540  58.1076965  55.0535431  44.6726723  58.3634872
  56.5594177  44.8237839  58.3856659  79.3231201  45.2331657   4.4111342
  79.0013809  45.6580963   3.6160574  78.6372223  44.6067886   4.6422796
  56.3340797  42.8614922  62.2288017  57.1258049  43.2871094  62.5578232
  55.9705276  43.4850769  61.6001511  74.8133087  51.3511353  78.0383987
  74.6277466  51.4496155  77.1045303  74.2791061  52.0236626  78.4609680
  83.4673080   9.7202406  54.7078400  84.3542480   9.7335882  54.3481255
  83.0138779   9.0457850  54.2021370  16.4252853  39.5057487  21.4426193
  16.8005161  40.3627586  21.2402020  16.9818287  39.1592941  22.1400871
  45.2814980  13.2188225  26.1281204  45.8226166  13.1350737  26.9132366
  45.7364960  12.6973066  25.4668865   4.6414042  39.5693016  57.1931305
   3.8897648  40.1609116  57.2287560   4.3259735  38.8105927  56.7021179
  50.5259438  24.5984936  77.3926544  49.6554031  24.7667294  77.0319824
  50.9748306  24.0979366  76.7113495  49.8759308  32.1180534   5.5784507
  49.7893867  31.5530376   6.3462377  50.6262665  31.7621174   5.1024923
  73.0688705  13.8070126  31.6375656  72.9909286  14.7467537  31.4731159
  73.0256805  13.4074450  30.7688236   6.0487800   1.4513278   5.8937902
   5.2440109   1.3351073   5.3887439   6.7328563   1.5588295   5.2329464
  58.0691757  68.2337875  57.9890251  58.4693794  68.5497360  57.1789322
  57.7093506  67.3768616  57.7600555  14.5572462  33.1443901   7.9962091
  13.8988476  32.4998055   7.7368755  14.3356924  33.9284744   7.4938579
  10.2638149  23.0026588  30.5164909  10.3446226  22.1641254  30.0619984
  11.1272879  23.4064713  30.4294167  22.1352558   8.7471132  29.6042976
  22.1078243   9.1455612  28.7344017  21.3243694   8.2417707  29.6619492
   5.2812366  53.4334946  82.6300125   4.3667393  53.1905785  82.7746429
   5.5429893  53.8734283  83.4388275  20.3506622  29.3616428   9.7671204
  20.1907997  28.4913216   9.4021282  20.4934483  29.2072182  10.7009287
  45.2536316  19.7961674  21.7515926  45.1436386  19.4515343  22.6377983
  46.1993904  19.7819481  21.6047459  32.7002220   4.9056888  86.8779297
  32.5398712   4.0682678  87.3129501  31.8267708   5.2585845  86.7082825
  51.5956688  14.1992130  17.0123730  51.7723618  15.1162996  16.8027000
  51.5150490  14.1827936  17.9660320  54.9552612  20.6740456  22.1560631
  54.8271904  19.7505188  21.9394379  55.3276558  21.0569630  21.3617535
  72.1980820  53.8770561  16.6398373  71.7651367  54.6882935  16.3739738
  72.9731674  54.1659584  17.1215115  76.3898544  49.1112862  54.6756706
  75.6432877  49.3320961  54.1188011  77.0922775  48.8984108  54.0612450
  53.7354584  67.6155624  29.8177013  53.6379471  68.4824829  29.4237709
  52.9935760  67.1140289  29.4796104   0.8569629  65.0848160  78.4053574
   1.1904233  64.3182755  77.9390411   0.2408203  64.7270126  79.0445633
  10.4681883  50.6136513  65.2300873  10.1201811  49.7259483  65.3143845
  11.2324133  50.6270332  65.8062973  32.4098015  55.8598213  67.0015488
  33.2796783  55.7883492  67.3945389  32.1418762  56.7621803  67.1753311
   7.5592461  65.2672119  27.8725624   6.9476190  64.6146240  28.2135372
   8.0746078  65.5333633  28.6340084  81.8268051  31.2237854  28.7052994
  81.3390045  30.5169563  28.2826042  82.5934525  30.7929859  29.0833225
  67.5507431  50.5130806  53.8955193  67.3069229  50.3228455  52.9896507
  67.7568054  51.4478378  53.8968391  63.9585266  46.3282356  81.8250275
  64.2850342  45.4476166  81.6402740  63.0723877  46.3359337  81.4631882
  40.8612022  57.5860939  73.9895020  40.5558815  57.3181305  73.1227798
  41.0462761  56.7637444  74.4430618  34.2259560   7.4349155  18.9721699
  33.7346306   7.1755595  18.1927052  34.7904510   8.1478233  18.6732674
  35.7370033  62.4817085   5.4543180  36.0691605  62.7183914   4.5883613
  35.7711678  63.2968254   5.9549627   3.9581718  30.6101265  57.1654663
   3.6085927  30.2672844  56.3429794   3.1894534  30.7199802  57.7251396
  49.5889740  25.8563900  86.6617050  48.8806648  26.3219967  86.2170258
  49.9295769  26.4875641  87.2956161   7.4856234  28.7428284  39.5780945
   7.3479037  28.2346439  40.3774757   7.1482859  28.1840458  38.8779526
  75.9328918  38.4037552  88.9809113  75.5454941  37.8285179  88.3211670
  76.8515549  38.1378822  89.0207901   3.6840901  35.6995430   1.5289378
   3.4778299  36.6196327   1.6936220   4.3529181  35.4839745   2.1788843
  28.0334721  45.0045624  88.2446289  27.7173405  45.4863052  87.4802856
  28.1637096  45.6762390  88.9140472  78.6637039  21.7951183  57.9876938
  77.7256317  21.7568836  58.1741867  79.0577393  22.1036682  58.8036385
  77.5302200   1.4743501  26.7306671  76.7187271   0.9698109  26.7867794
  77.3585052   2.2622757  27.2463417  46.0235901  57.9416275  46.0463676
  45.3550797  58.5408401  45.7142906  46.8482208  58.4126625  45.9266243
  81.4662094  15.7364340  21.2292290  81.7836380  14.9760695  20.7420807
  82.1635437  15.9271250  21.8565998  49.8128929  21.7027512  28.0185070
  49.1330223  22.3541241  27.8461132  49.8335419  21.6247692  28.9723015
  56.8688164  57.2044716  13.4364100  57.3965187  56.9048271  14.1766644
  56.5799065  56.3993759  13.0067720   8.6422119  14.2960119  76.1397018
   8.9803629  14.5631094  75.2849808   7.9064870  14.8865967  76.3014145
  47.1205368  67.1623306  13.1350279  47.1357613  68.0119629  13.5756245
  47.8050232  67.2256546  12.4689207  29.3315907  61.5892105  89.2343063
  29.0641937  60.9076080  88.6177368  30.0569630  62.0358734  88.7977753
   4.0793443  61.6301575   8.1893091   4.7789545  62.2743034   8.2981749
   3.5097120  61.7649231   8.9466658  48.0388908  12.9709578  24.7069168
  47.8360291  13.3946762  25.5409088  48.9666977  12.7449026  24.7725525
  64.5060272   3.4599247  28.4739170  65.4448547   3.2777793  28.5146675
  64.4391327   4.2557554  27.9462719  37.2154579  68.0069275  57.9166946
  37.0742722  68.7159576  57.2893448  36.6969452  68.2569885  58.6814499
  84.1849823  45.0262070  63.3640099  83.7657242  44.4976044  64.0429993
  84.2247925  44.4489250  62.6015167  74.6973648  14.0796499  53.0769234
  75.5313568  14.4556656  53.3585472  74.9428864  13.3105927  52.5626221
  33.5459938  10.4646711  76.8330536  33.3623009  10.9729242  76.0430069
  34.3069229   9.9313803  76.6032333  33.2983360  66.8101807  37.4866714
  33.9144058  66.9230652  36.7628326  33.0892258  65.8761215  37.4797554
   1.1740804   2.7826777  64.1371155   1.7937182   2.8905663  64.8586655
   1.0283875   3.6709876  63.8116722  33.0556450  63.7541733  64.0940781
  32.8712959  62.8224640  64.2130890  32.4503212  64.0322037  63.4066772
  26.4615097  50.7895660   7.3821850  27.0768681  51.4237442   7.0142412
  26.5370331  50.9043808   8.3294687  16.9699669  45.5103455  28.2993507
  16.4228687  45.1958504  27.5796223  16.9574718  44.7980347  28.9386406
  58.7442284  25.7429180  64.3313217  58.9146576  26.3308372  63.5954323
  59.5349464  25.2076607  64.3983688  83.5657501  48.6320839  59.7721672
  82.6434326  48.7858658  59.9769020  83.8790359  48.0733261  60.4834137
  77.3569565  65.7676697  30.8863392  78.0270157  65.8644028  31.5630207
  77.7166595  65.1160126  30.2845173  24.4051914   1.3792543  15.2614317
  24.5648098   0.7077704  14.5982103  23.4518776   1.4566554  15.2993088
  25.7288380  25.4805012   1.6287335  24.9969273  24.8933697   1.4394789
  25.9471741  25.3038406   2.5438030  62.0072136   6.4723310  86.6921921
  62.3957062   7.3163323  86.9223404  61.5873642   6.6248012  85.8456039
  27.0506897  45.4218521  43.9292526  26.5296001  44.6244316  43.8353539
  27.0756950  45.5819283  44.8726387  41.8256302  43.3751106  84.6355286
  41.7998123  44.3096390  84.4300461  41.9065208  43.3416100  85.5887146
  12.8395939   2.2138321  10.0682411  13.4467669   2.6891437  10.6353855
  12.4668980   1.5355283  10.6314764   8.6492138  67.2082825   7.0452409
   9.3039246  66.5451355   7.2639112   8.7676296  67.3618164   6.1078849
  41.9117470   8.6594458  28.7550430  42.0254326   8.3422499  29.6509743
  41.8334312   7.8644943  28.2276440  32.0632439  58.8764534  29.1447983
  31.9334221  58.2900772  29.8901443  32.4739380  58.3274612  28.4768391
  79.6412430  39.1397285  48.0445633  80.3292847  38.8951454  47.4256897
  79.1335678  38.3376274  48.1675949   6.1953683  33.0320854  83.5306244
   6.5116806  33.4531364  84.3299332   5.2875290  33.3243446  83.4491119
  21.6252060  58.7595329   2.8117304  21.3117466  58.9448204   3.6969674
  21.5746403  59.6012077   2.3586736  69.6728134  45.9460869  33.9301376
  70.4887466  46.4255562  34.0736351  69.1323700  46.5426445  33.4121971
  62.7771606  47.4605179  29.4818707  62.0371590  47.0967598  29.9679852
  63.1040993  46.7279053  28.9597340   6.0496860  36.4535217  28.4369164
   6.3421016  37.3147812  28.7351742   6.5219312  35.8342590  28.9934521
  19.8009357  67.3779449  52.5301323  19.5062389  66.6807480  51.9442177
  20.6893826  67.1225586  52.7784576  23.6247654  44.2075691  35.0246124
  24.1267986  43.3930969  35.0533905  22.7262249  43.9421272  35.2205582
   1.8575941  45.9466171  86.8463516   1.5481486  45.5743713  87.6721268
   1.1829375  46.5799103  86.6013794  13.6557674  48.2927284  43.6464119
  13.3851624  47.5661392  44.2077255  14.5967531  48.3767700  43.8004074
  79.7347946  14.3455257  25.5578518  80.0620804  14.5477772  24.6813774
  78.8220444  14.0922451  25.4201431  51.4349174  51.0284576  69.1932983
  50.7263718  50.4222984  69.4095459  52.2258301  50.4897156  69.2144470
  24.5191212  65.8909378  15.7965937  25.4675388  65.8328094  15.9121714
  24.1578979  65.6184769  16.6401100  86.3953400  60.0525856  13.8383484
  85.8518906  60.4753952  14.5032692  85.8651657  59.3191185  13.5266285
  45.1440926  30.2197285  84.4674911  45.1831512  30.8480511  85.1885376
  44.7499809  30.7084904  83.7449799  52.3667831  61.2634201  69.1119690
  52.2620773  62.2032089  68.9634323  51.5011749  60.8950768  68.9351120
  73.3027420  38.1512032   1.8885354  73.2970428  39.0537910   1.5698947
  72.7119904  37.6847229   1.2972302  12.9604635  52.0861816  52.3184319
  12.6198082  51.3797455  51.7696800  12.1915874  52.4256668  52.7764854
  58.9455490  57.6564713  20.5380898  59.6658974  57.0746994  20.7807178
  59.3023033  58.1989555  19.8347626  40.7853203  62.4094467  67.3042908
  41.5822525  61.8794060  67.2905655  40.5408897  62.4983177  66.3831024
  72.1375809  28.9548416  75.6216888  72.6774521  28.1688881  75.7056198
  72.7220001  29.6066456  75.2346039  63.1417046  18.8530674  55.0055008
  63.9185371  18.5141258  55.4503403  62.7514954  19.4602699  55.6342087
  60.4580040  13.3131857  12.4719772  59.6639977  13.7590322  12.1770105
  61.0999947  14.0146875  12.5814066  18.1380043  46.8059158  25.0954056
  18.3781281  47.1716728  25.9467545  17.9082108  45.8956375  25.2820053
   2.1587639   0.9634758  15.1462698   2.3077760   1.1198835  16.0787735
   2.7157171   1.6041009  14.7039642  27.8759918  49.1569519  30.4284573
  27.5774612  49.4169159  29.5569458  27.5698280  49.8568726  31.0051746
   5.3587451  67.1392059  69.8602524   4.9390512  67.3182983  69.0188141
   5.7082753  67.9857330  70.1385498  28.2636528  66.9323883  70.5553665
  28.7152519  66.8187485  69.7190857  28.3189163  66.0743179  70.9759521
  43.2146149   7.6752667  23.8777599  43.0935326   8.1176062  23.0375767
  44.1615791   7.5569649  23.9518795  81.7761230  27.5401516  35.2809219
  81.0003586  28.0087547  34.9729843  81.5493393  27.2577019  36.1669350
   6.5178452  14.4038467  10.9365139   7.2860770  14.9192314  10.6906891
   6.4400096  13.7456350  10.2459126  21.2538033  53.2292709  45.4130592
  21.0858727  52.3431511  45.7337265  22.1647606  53.4015350  45.6512070
   2.4188731  46.7025871  62.4558792   1.5697119  46.6734047  62.8966789
   2.2194993  46.5126915  61.5391312  60.7006035  22.4162922  66.8314972
  60.4088860  21.6000748  67.2376022  59.8935738  22.8407707  66.5403824
  18.8532429  47.2421608  70.8984985  18.1124821  47.7248077  70.5316772
  18.6439018  46.3223724  70.7360306  64.0765457  40.4205360  27.4596863
  64.9827194  40.4089775  27.7678299  63.5750084  40.0311203  28.1759605
  34.1797867  30.6146622   3.6909859  33.3582306  31.0049706   3.3927689
  33.9244461  30.0430336   4.4150515  57.0334816  51.5628319  85.0233612
  57.0400505  51.6309700  85.9781036  56.5852089  52.3559608  84.7297134
  21.0071030  52.2402687  56.3549156  20.7639599  51.3360176  56.1562996
  20.6256180  52.7529182  55.6422501  32.9719925  31.4068413  86.5392380
  32.6510582  30.5246067  86.3524323  32.6972656  31.5758247  87.4404526
  36.1875076  55.9585457  49.0606232  36.8715401  56.2801781  48.4733582
  35.6128273  56.7122498  49.1944275  28.6806278  48.6533356  33.7695274
  29.6368504  48.6604843  33.8121719  28.4100113  48.1604691  34.5441780
  75.7258377  45.1165009  83.3441162  76.3653107  45.0789299  82.6328506
  75.8315048  45.9925079  83.7151718   6.2474680   6.7535071   7.3879943
   6.0102830   7.0580320   8.2639170   5.9253650   5.8528419   7.3521657
  73.7979736  54.0187836  10.3588715  74.3487778  53.3775597  10.8079500
  73.8312302  53.7599182   9.4379406  51.5245743  62.9066467  31.9599037
  51.1058006  62.4265480  32.6743011  52.0136452  63.6050186  32.3950081
  10.5393162  40.2237816  77.6334839  10.8051729  40.9322166  77.0472488
  10.0339031  40.6583214  78.3204803  30.7033672  40.2537918  18.7969017
  30.3941269  40.3296738  19.6995888  31.5812149  39.8802872  18.8750553
  42.1752319  47.8441200  58.6391525  41.6891556  47.4474945  59.3620949
  41.5075417  48.2891388  58.1172523  76.7532578  52.1717567  62.3940735
  77.2131500  52.3107071  63.2219810  76.6877441  51.2202263  62.3132477
  64.6284943  64.7453690  61.5669823  65.2902451  64.8660507  60.8859863
  64.6416473  63.8059082  61.7499275  32.0203171  26.1118793   2.5392528
  31.8891525  27.0439949   2.3655005  32.6794662  26.0879803   3.2329249
  47.6349411  39.4576187  12.1093359  46.9953308  39.3272285  11.4092436
  48.2417641  40.1106911  11.7607775  50.8735390   6.1965055   6.8254571
  50.1006927   5.7294340   6.5079904  51.2147446   5.6445122   7.5291009
  22.8472691  -0.0598711  18.7687206  22.1907635   0.5922128  19.0137062
  23.6857319   0.3631797  18.9537563  48.2752228  18.1054478  14.0355320
  48.9858017  18.7459831  14.0035105  48.3423500  17.7166595  14.9076395
  85.3818970  57.5971069  13.5107679  84.4909592  57.3374825  13.7454176
  85.6633835  56.9394112  12.8748131  40.2150803  45.9840698  16.5997734
  40.6897888  46.2464676  15.8110838  40.4212227  45.0553322  16.7055397
  16.2174435  60.2294083  38.3440781  16.6344032  59.6782684  37.6817932
  15.3298159  59.8798065  38.4223480  71.6881180  51.5971603  76.9311523
  72.4879990  51.0740242  76.8787308  71.7373352  52.1861076  76.1781921
  78.8115463  28.0202179  59.9947014  78.9585114  28.7897968  60.5445976
  77.8923950  27.7950535  60.1385498  72.3434906   4.1774874  36.9426613
  73.1093521   3.6098731  37.0292625  71.5995560   3.6071913  37.1364555
   3.6737001  22.2672234   5.4429083   3.9559667  21.8748016   6.2690825
   2.8602808  22.7228241   5.6597242  56.8559303  20.7713356  23.9825687
  56.1560593  20.7275620  23.3310356  56.9355888  19.8750858  24.3090954
  23.4872551  47.8779984  80.9851761  24.3285961  47.5979118  80.6247253
  23.6373577  48.7789612  81.2714844  84.2499542  70.8566818   8.6573439
  83.3239670  70.6176910   8.6980600  84.3601074  71.5073242   9.3507166
  22.5078201  66.8345871  46.0545845  22.8468285  67.3856812  45.3491821
  23.1931095  66.8521347  46.7226448  12.0992241  20.1009750   9.5478020
  12.9294014  19.6567860   9.3753681  12.3149805  20.7669182  10.2006435
   7.0407410  70.4237366  87.4587708   6.7078137  71.0395203  88.1116104
   7.9919500  70.4585114  87.5598755  85.8362427  24.7962856  34.9694901
  85.6323395  25.0788021  34.0779533  84.9881744  24.5615826  35.3462296
  16.4684429  54.1594048   8.4150314  16.8286781  54.4336281   7.5716667
  16.1290588  53.2787170   8.2555494  12.9911060  31.0456619  83.2380905
  12.2208500  31.2373524  83.7730637  12.6344833  30.7947540  82.3859787
  45.8357086  46.0080795  40.1222763  44.9029083  45.8398552  40.2557487
  46.2580414  45.6477776  40.9020500   7.9435754  18.9867916  71.5872498
   7.2568913  19.3515015  72.1455307   7.6080441  18.1299610  71.3236389
  65.5356674  44.0913467  72.4436874  64.9884720  44.8712845  72.5359116
  66.3431320  44.4114647  72.0414963  11.5949392  67.9753876  36.1971474
  11.6211042  67.4360657  35.4067841  12.2175760  67.5581665  36.7925301
  20.3213158  62.2801895  30.4457092  19.9304047  62.6154556  31.2525654
  19.5812206  61.9347725  29.9465313   9.4693756  38.7548866  72.4378510
  10.1010933  39.1882896  71.8639832   8.9246292  39.4661598  72.7748642
  59.5229034  19.4365425  14.9895992  59.1665039  20.2662411  14.6720896
  60.4098358  19.6516590  15.2782259  19.3298492  68.1162643  71.3349533
  19.9216747  67.8061981  72.0204010  19.8935814  68.6036682  70.7342300
  20.7607651  56.8414345  56.2655754  19.8322144  56.6377106  56.1536789
  21.1333637  56.7502213  55.3886032  10.3008547  12.9240866  80.5720901
  10.3125639  13.5571651  79.8542404   9.3880920  12.6411028  80.6270065
   5.3679957  14.1678429  78.7102509   4.4993567  14.3443575  79.0715561
   5.3481445  13.2384577  78.4820404  41.5407715  57.5038338  52.0123520
  42.0600967  57.8316879  51.2781525  41.3969383  58.2715378  52.5656853
   5.1684484  21.9421082  81.5105362   4.9350314  21.6844025  80.6187210
   4.9080739  22.8612843  81.5701447  53.1219330  68.5584869  13.9973879
  53.3683090  69.0568008  13.2181482  52.1911621  68.3703461  13.8769941
  11.5721483  62.8214378  29.8192539  10.9073343  63.4626274  29.5679970
  11.8390141  62.4170837  28.9937153  68.6746521  20.8372917  25.4634914
  67.8323593  20.9938431  25.8904171  69.2292328  21.5608387  25.7553101
  64.4376831  29.7828579  75.9755402  64.4272461  29.0209198  75.3962555
  64.1169128  29.4506855  76.8139877   9.4647341  41.3355370  61.5667191
  10.3327894  41.6867905  61.3684006   8.9806728  41.4150391  60.7447701
  39.7034187  28.0734367  15.1225109  40.5548553  28.4935417  15.2441692
  39.1098633  28.7929497  14.9075069  55.1055756  65.7516022   4.6851320
  55.7928047  65.7798386   4.0194364  55.2711372  66.5188599   5.2329845
  42.7748108  67.2411804  86.3448715  42.2457047  66.7456970  85.7197495
  42.1394119  67.7598572  86.8383026  73.9245605  28.4884186  34.8607140
  73.6962357  28.6983166  35.7662773  74.7551804  28.9403610  34.7122192
  10.4400787  38.8091049  82.3930130  11.0170708  38.3975945  83.0364227
   9.7660475  38.1516762  82.2206650   2.7528133  51.7333145  82.3637238
   1.9698372  52.1673470  82.7025452   2.6402237  51.7439804  81.4132309
  63.6682549   5.7928863  43.4855194  63.1161118   5.5413637  44.2258606
  63.6746902   6.7498503  43.5057678   8.2943707  56.7063408  38.3614960
   9.0600386  57.2569313  38.5253067   8.4803343  56.2802811  37.5247650
  15.4216108  34.7803764  82.2266388  14.8509302  34.1764221  81.7514648
  16.0957546  34.2202644  82.6113892  21.4191456  64.2065048  40.0991478
  22.3670959  64.1754532  39.9700851  21.2983913  64.7901459  40.8481522
  67.7933273  60.9091263  54.4548950  67.1042938  60.3285332  54.1318321
  68.5846481  60.6164513  54.0028000  80.1808777  31.4085312  76.7475586
  79.5128784  30.7530479  76.5466766  80.4024124  31.7925053  75.8991928
  20.6055565  59.9106216  83.6504059  20.6348152  59.2308044  82.9771805
  20.9475822  60.6922722  83.2165070   2.4720292  48.8948517   5.4180107
   1.8243408  49.2819939   6.0069518   3.1935675  48.6370354   5.9917231
  18.3163166  11.5421371  15.3317528  18.3334427  12.1197138  16.0948677
  18.8957596  11.9652023  14.6981163  37.1430283  46.4949112   8.9790459
  36.3982925  47.0958672   8.9576826  37.1458931  46.0862007   8.1134939
   7.7644863  23.4826508  76.7484360   7.8523173  23.9028015  77.6039963
   7.2936420  24.1225777  76.2145538  78.2719421  52.8251915  75.6085663
  78.6464233  52.0899963  75.1232986  77.7310944  52.4157715  76.2839127
   0.5036850  42.0024185  81.8535843   0.7220708  42.8868179  82.1474838
  -0.4345381  42.0368462  81.6670837  67.5222015  51.3280258   3.6491396
  67.4299393  50.3790245   3.5647514  68.4452896  51.4966698   3.4602048
  24.3137531  67.1070099  47.9944420  25.2620220  67.0350189  48.1032410
  23.9606514  66.9687042  48.8733177  75.3367996  30.9274197  21.6963634
  75.4895325  31.7839012  22.0955448  74.9265747  30.4099388  22.3892994
  19.4314346  53.1309166  54.0337601  19.3299618  52.1791115  54.0345535
  20.1246586  53.2973518  53.3950348  57.5307274   4.7010875  80.3395538
  56.6589050   4.3059850  80.3467255  57.7134819   4.8947649  81.2589645
  78.7621613  60.5067368  37.5566483  79.6966400  60.5484314  37.7597389
  78.6967773  60.8374176  36.6607628  12.5489759  64.3020401  67.2267532
  11.9209576  64.9645386  67.5147171  12.0907784  63.4700546  67.3454285
  67.5564880   2.8925824  22.1740971  67.1308289   2.3231916  21.5331287
  67.1739502   3.7561476  22.0186825  52.7034149  13.0552902  33.3200226
  52.7534904  13.5758686  34.1217232  51.7775879  13.0767908  33.0779228
  37.9200478  54.1947174  69.5660095  38.4076500  55.0182800  69.5809555
  37.2782898  54.3090286  68.8650742  55.1765060  34.3530312   0.6846218
  56.0777435  34.2644348   0.9947157  54.8632126  33.4526558   0.5985827
  25.7620239  52.4900894  62.5822296  26.0843906  53.3467178  62.8624039
  24.8100796  52.5878410  62.5603676  46.5154724  21.5558186   9.2334547
  46.1201248  21.1418686  10.0006428  46.7786484  20.8240185   8.6753874
  60.5657845  41.5906448  38.9748878  60.4558067  40.8761024  38.3475380
  60.6823120  42.3702774  38.4319115  24.1342297  45.1078873  70.8143311
  23.9369793  44.3422165  71.3538437  23.5362225  45.7847404  71.1313324
  58.9276733  15.1213102  40.5578384  59.8230820  14.7959871  40.6507797
  58.9240341  15.5752678  39.7151413  19.6260605  62.1174240  24.8480415
  19.5367680  63.0701447  24.8722706  18.7346745  61.7901726  24.9687519
  24.9293861  14.8825445  26.2361660  24.8972683  15.0769405  27.1728668
  24.9820347  15.7405682  25.8151493  80.9603043  11.0695248  79.0640793
  80.0809860  11.2995853  79.3642578  81.5151596  11.1877604  79.8350372
  32.3018494  60.7397766  20.1386738  31.7779293  60.2468681  20.7701645
  32.4858246  61.5706863  20.5768242  23.6250324  57.6104851  64.0523834
  23.1980934  56.8168678  63.7296906  22.9382877  58.0738487  64.5318680
  73.5651016   8.1062012  56.3781395  73.7988434   8.2832031  57.2893295
  73.7241516   7.1687751  56.2678299  39.5621490  19.9567280   4.4540401
  40.2071266  19.8288593   3.7584207  39.4915504  20.9071236   4.5434566
  17.9831390  54.0163612  41.4901810  18.2872486  54.4255714  42.3003006
  18.5793018  54.3451309  40.8173256  17.5421219  52.9459419  67.2992935
  18.3327370  52.7199631  66.8093033  16.8274727  52.5624046  66.7909622
  19.2267456  36.3167381  15.9930782  20.0063877  36.0181732  16.4613152
  19.4463120  37.2018623  15.7022505  51.7170296  67.8480148  74.7483368
  51.5206985  66.9129105  74.6912231  50.8614044  68.2752686  74.7083893
  63.4077682  67.5318146  57.4133453  63.3722038  68.3580093  57.8953934
  63.8475189  67.7523346  56.5922356   4.7072444  47.4081459  65.0534515
   4.9394732  47.3034325  65.9761276   5.5232830  47.6742744  64.6297913
  42.4008904  42.0135498  82.4574051  41.4864349  41.7614555  82.3291550
  42.4211197  42.4054375  83.3304749  86.1837387  14.2647619  45.2307549
  87.0038528  13.8001595  45.3974342  86.2793655  14.6083555  44.3424835
  76.4731140  49.8465729  74.8458023  76.9679260  49.2427788  75.3997192
  77.0213699  49.9638443  74.0699921  55.5619812  61.2176018  61.7457771
  55.2391205  61.7635460  61.0288811  56.3248787  61.6887512  62.0807953
  61.5774765   3.0141778   8.5510302  62.0671806   3.4085410   9.2727642
  62.1945496   3.0056715   7.8193345  -0.0510817   1.5305135  31.6969757
   0.8312753   1.3373523  32.0137825  -0.1291216   2.4816811  31.7706089
  16.4935760  41.9599228  77.1230316  15.7331314  41.8859749  76.5464172
  17.1519413  42.4109955  76.5945282  72.9387283  19.0963383  48.8656006
  73.5267334  18.6599693  49.4820938  72.1023331  19.1482105  49.3281822
  16.2951450  35.4882812  56.2205505  16.3036079  36.1159935  56.9431419
  15.3723392  35.4162140  55.9766922  55.5347786  21.3707581  39.8029785
  55.3465805  20.4322510  39.7989159  55.6416054  21.5896149  40.7286797
  85.7509384  32.5944977  49.3013916  85.7340088  31.6795139  49.5820160
  85.0753174  32.6503029  48.6256332  80.8092575  21.5931377  29.8802090
  80.1685410  21.2224350  29.2733345  80.9120178  20.9248199  30.5577221
  19.5713844   5.8320889  34.1720619  18.6739120   5.5308795  34.0304756
  19.4883671   6.5405474  34.8103600  81.5622253  25.4952354   1.2874453
  80.8092194  26.0770359   1.1838963  81.2203064  24.7452602   1.7741275
  16.6504173  64.5164490  84.3884583  15.8377504  64.1621246  84.7493820
  16.4838867  65.4548416  84.2995148  76.3196411  27.7118168  18.5118351
  76.7045441  28.0682888  19.3124657  77.0570450  27.3162022  18.0471210
  54.2402420  45.4597054  73.5722275  53.9278717  45.3660164  74.4721603
  53.8583221  44.7151909  73.1073990   3.8991094  49.4786682  15.3975029
   4.8535829  49.4407921  15.3360453   3.6446056  48.6105537  15.7102957
  64.7716217  31.6250210  72.3106766  63.8761253  31.3732815  72.0849686
  65.0625000  30.9506321  72.9245377  78.8876266  64.4601288  83.0876923
  78.0988235  64.9877319  82.9625473  79.4326324  64.9804306  83.6780090
  19.0580101  54.1270065  25.1149635  19.3234768  53.2081375  25.0770187
  18.9274673  54.3765717  24.2001381  55.1318703   9.4398756  55.8469582
  54.7424774  10.2526512  56.1694489  54.3837051   8.8698568  55.6693001
  70.6550522  54.1293106  75.5827713  70.0427704  53.4976273  75.2055283
  70.7437057  54.8067093  74.9123230   3.1908069   5.0244694  86.8188477
   4.0588684   4.6220021  86.7919998   2.5833082   4.2892647  86.7372894
   7.5782981  13.0248852  84.9975052   7.7229924  13.5124331  84.1865845
   8.4450817  12.6978416  85.2382584  86.3890915  37.9023209  43.3060379
  86.6460495  37.2481766  42.6561966  86.5342636  38.7423286  42.8706703
  31.5249290  11.1988497   3.7275212  30.8766308  10.9082031   3.0860653
  31.3113804  10.7099686   4.5222688  62.6819839  20.5219936  34.7509003
  62.0513344  19.9450321  35.1817513  62.1454964  21.1031857  34.2118034
   6.6065688  10.1688995  84.0249939   6.6130095  10.7057285  83.2325287
   5.7102060   9.8381300  84.0829468  45.4176598  32.3851433  27.8214302
  45.1821594  33.2192612  27.4152050  44.6436005  31.8344746  27.7038250
  70.7305756  66.6929321  57.2354965  70.0216370  66.8756561  56.6188545
  70.5110474  67.2075424  58.0121651   3.2896852  64.3967514  46.6325760
   3.0458627  65.2476959  46.2683296   2.4634285  63.9176598  46.6958237
  24.4400234  67.4110794  61.5524101  25.0218849  67.2798004  62.3010330
  24.2102585  66.5259628  61.2695427  78.2281418  71.1305161  62.6493568
  78.3112793  71.2258759  61.7005539  79.0821533  70.8042984  62.9330368
   9.3514967  50.1345215  14.4177217   9.6819725  50.5744209  15.2009888
   9.4097948  50.7964020  13.7287016  65.4227524  64.3000641  56.3504448
  64.8841629  63.8373413  56.9923439  65.7265091  65.0818481  56.8117218
  79.4875031  63.8050766  42.0285301  79.9055862  63.1968918  42.6380768
  79.1012878  63.2431984  41.3566971  70.8991776  22.7578392  70.6933212
  71.8496780  22.8566113  70.6383972  70.5543213  23.4259510  70.1009293
  40.5451965  47.2512970   4.9126668  39.9893532  47.7776184   5.4873462
  40.1205139  47.3022003   4.0563459  40.4303246  56.1718063  88.7706299
  39.7600365  56.8508072  88.8474655  40.2730064  55.7758560  87.9134827
  36.3248558  64.7891617  35.1227837  37.2816162  64.8163605  35.1327438
  36.1123810  64.0360107  34.5715599   5.7184334  66.2309113  34.5222054
   6.3387904  66.9598083  34.5119591   6.2482257  65.4624939  34.3098869
  40.2960243  68.0583649  69.7839279  39.8664856  68.4563370  70.5411224
  39.6963043  68.2205048  69.0557251  82.2414398  47.6878548  33.2547646
  81.3171844  47.6523514  33.5011635  82.5188751  48.5725937  33.4924698
  50.4345093  54.8638191  12.3992634  51.0008965  55.5157280  12.8121195
  50.7783203  54.0227585  12.7003422  50.0959129  45.8630104  59.1754646
  49.3035889  45.3417320  59.3047943  50.8140144  45.2544937  59.3494377
  69.3461151  35.5391388  72.2978210  69.6171417  35.6653938  73.2071228
  70.0632629  35.9062729  71.7809601  27.6240273  61.7583847  84.5034103
  27.5734406  61.0336990  85.1267090  26.8630009  61.6391602  83.9352036
  70.1844940   4.7841535   0.3390799  69.5420151   4.0820670   0.2364857
  70.2076721   4.9518127   1.2811971  17.9005394   1.9488461  49.4081192
  17.8044186   1.5963093  48.5234070  18.1926193   1.2033017  49.9326019
  30.1371803  28.5865765   2.7283907  29.4510422  29.2494316   2.8062975
  30.3326340  28.3368778   3.6315410  80.9884644  41.4522705  70.7585068
  80.3946915  40.7065468  70.6715546  80.6407776  41.9502869  71.4983139
  75.9208527  30.5029583  54.6971207  76.1570511  30.5075951  53.7695312
  76.7586365  30.4527950  55.1573639  46.6617050  58.0517731  81.0921555
  46.7880096  58.1593933  80.1494446  47.5478401  57.9700317  81.4447403
  55.0517197  29.5114670  20.0248756  54.5658302  30.1386604  19.4893646
  55.2280540  29.9794178  20.8410606  69.5627136  18.7151623  23.5589008
  69.2331314  19.1232910  22.7582512  69.4374542  19.3802319  24.2358227
  72.4617386  29.7997608  26.3514385  72.5653076  30.1141891  27.2495689
  72.1768570  30.5698261  25.8594322  67.0530243   4.1329966  13.8047810
  66.6167603   4.9597292  13.5988131  67.9199753   4.2141309  13.4072399
   4.0023022  35.1883202  53.2282906   3.5200424  35.3311996  52.4138947
   3.3433099  34.8669243  53.8436470  81.1883621  70.3661880  28.7290726
  80.2580566  70.1844864  28.8623066  81.6272049  69.5456772  28.9535904
  12.6464396  37.8142242  32.3914680  12.7404566  37.7976990  33.3438988
  12.5248842  38.7395515  32.1788101  22.6036224  51.4339447  86.3590622
  23.5423298  51.6135902  86.3062439  22.4112911  51.4384308  87.2967300
  52.6578941   5.0775046  20.0607643  53.5687790   5.0189180  19.7725143
  52.3789673   4.1672072  20.1597118  57.2566452   7.8194308  54.2189255
  56.4752731   7.3006907  54.0276299  57.0699654   8.2315121  55.0624695
   2.1931918  15.0787086  16.5971260   3.0576377  14.9078274  16.2232742
   1.5932064  15.0099058  15.8544846  53.0443459  47.2622414  35.6633911
  52.6923637  46.8462296  36.4503288  53.9910278  47.2782936  35.8039780
  65.6714706  11.2988987  30.8351059  65.4978180  10.3746910  30.6564579
  65.9933701  11.3122473  31.7364578  79.7259674  52.1372681  21.1898136
  78.9766617  52.3275185  21.7542381  79.4499054  51.3809891  20.6720638
  39.9814529   6.8245220  21.9625187  39.5754204   7.6006680  22.3484802
  39.6508904   6.8027906  21.0644703  80.0151901   1.4043680   9.6157360
  79.5625992   1.5924681   8.7935362  79.5321732   0.6686741   9.9921455
   1.5694449  52.1354637  61.7094383   1.8473635  51.7614441  60.8733139
   0.9756008  51.4818039  62.0786400   6.9885836  65.2319107  42.7422256
   7.1917381  64.6024551  42.0503082   6.2217212  64.8650284  43.1821709
   0.3028173   5.0520124  56.0142441   0.7860099   4.3321838  55.6085281
   0.8731713   5.3552198  56.7206383  79.7231064  64.3669815  87.4159393
  78.8480988  64.5989609  87.7270355  80.3117981  64.6753387  88.1048431
  26.8286285  64.0392761  86.4726639  26.5558147  63.1218185  86.4810181
  26.8376923  64.2948685  87.3950653  37.2675858  66.6249466  72.9280472
  37.1211166  65.9640045  73.6047516  37.1470261  66.1541901  72.1033707
  48.9427605  53.1039429  15.8807516  49.4948921  53.0666656  16.6617718
  49.0024452  54.0134583  15.5884304  35.2798424   7.3555818  78.5062332
  35.0091476   7.7006984  77.6554413  36.0522766   7.8707824  78.7389221
  57.8118744  45.8557472  67.2479630  58.2715073  46.5044937  66.7149582
  57.7017441  45.1030502  66.6669693  15.6423626  39.1419716  10.3757429
  15.4046383  40.0592041  10.2401047  16.4703045  39.1774445  10.8547907
  14.5087204  30.8703194  32.5426788  13.6507902  31.2947464  32.5497665
  14.7057486  30.7439194  31.6145458   6.6424203   8.9787207   3.4345050
   5.9583058   9.0716438   4.0975170   6.1783347   9.0477638   2.6001852
  53.0016098  45.4988518  41.7431145  53.8056107  45.6755447  41.2546577
  53.2224770  44.7584953  42.3082008  10.8551273  14.2500410  35.4246483
  10.9451246  13.7460413  36.2334251  10.7266455  13.5895348  34.7438736
  18.2122765  61.5004387  48.2491989  18.7810535  62.1703377  47.8697739
  17.6729774  61.9745750  48.8821144   4.7460923   9.3741808   1.0405695
   4.1969719   8.5944872   1.1228867   4.1325526  10.1065331   1.0994016
  85.6223221  46.1524696  66.3945694  85.4530334  45.2196770  66.5267410
  84.8777466  46.4601326  65.8776627  44.2773170  53.8727913  43.2531471
  44.4309158  54.7321129  43.6458359  45.0719223  53.3754654  43.4468155
  68.7330856   5.9445019  81.1228027  68.7016296   6.3650603  81.9820938
  67.8486938   6.0497980  80.7720947  38.4030609  56.4850273  13.3785257
  39.0602341  56.6600952  14.0521002  38.7702751  56.8659897  12.5808706
  82.1068726  27.0455551  39.3676338  81.3216553  26.7051468  38.9389229
  82.2835464  26.4231205  40.0730362  16.3205833  40.9359550  14.3259926
  15.8579798  41.5899010  13.8019810  17.2257652  41.2461624  14.3515224
  66.6213531  29.4262810  51.9486084  66.5947418  30.2828751  52.3749504
  66.2530518  28.8250046  52.5959511  55.1949959  34.2637825  32.4477921
  56.0609818  34.6714745  32.4571533  55.3519974  33.3615494  32.7262840
   0.5884106  20.3481503  29.2398224   1.2173406  19.6344700  29.3463078
  -0.1094211  19.9741573  28.7018700  54.1952782  44.2436447  22.2766724
  55.0509949  44.6614418  22.1795540  54.2475548  43.7824249  23.1137943
  22.9527760  23.9513664  26.1460285  23.7146492  23.4315968  25.8898659
  22.2210503  23.3350353  26.1152935  44.0995598  14.8290291  78.9337234
  43.1912766  14.7214727  79.2160110  44.5916786  14.2049875  79.4672241
  19.6417332  32.8190346   1.3281362  20.1847782  32.0413475   1.4567149
  18.7717686  32.4733353   1.1284301  73.6933365  42.6771126  82.4413910
  73.9356995  43.4724503  82.9156570  72.9044952  42.9186859  81.9559937
   7.1273608   2.3435147  32.3859825   6.6340995   2.8638165  31.7517815
   7.1618071   1.4674158  32.0019302  31.7240543  23.5205498   8.3965034
  31.4729366  22.8298569   9.0097857  31.1555119  23.3859577   7.6382976
  21.3303127  46.3426552  80.0840454  22.2097473  45.9657593  80.1119232
  21.4490833  47.2490692  80.3678360  14.5933781  43.3745003  61.1024284
  14.9202242  44.1129951  60.5885925  15.2574425  42.6938858  60.9928169
  64.1487427  13.5307302  11.6053591  63.7244797  13.6197958  12.4587650
  63.8021240  12.7123966  11.2498055  84.7413788   7.6064677  33.9583130
  85.4617004   8.1728172  34.2350998  84.4320679   7.1995382  34.7676163
  64.1999969   2.6314600  69.4416809  64.1296005   3.3873794  70.0246582
  63.7507668   1.9265943  69.9081421   1.6740692  64.3385620  39.6710777
   2.0964971  64.6749802  40.4613991   0.7703753  64.1680603  39.9365921
  16.6823730  27.9319191  64.6658783  16.1778240  27.2358208  64.2450333
  17.3823490  28.1300201  64.0437622  53.6019249  18.7164230   6.8033266
  53.9915924  17.8622112   6.6170144  52.8072777  18.5145721   7.2973151
  57.5819054  45.1103973  49.0848122  58.1898422  44.3791237  49.1938133
  57.8175507  45.4938889  48.2400398  17.8933582  51.2097778  45.3891983
  17.8299294  51.1447411  44.4363213  17.5432625  50.3785973  45.7098312
  50.6524620  47.5013123   6.5861359  50.5541687  46.6657600   7.0426707
  50.4432411  47.3017387   5.6736512  59.7460556   0.9119278  87.0194702
  59.6082077   0.2777104  86.3159027  58.8736420   1.2612803  87.2013397
  52.1669960   8.7576828  65.2345886  51.5965080   8.0057163  65.0754623
  51.5886612   9.4220362  65.6092834  56.8568916  -0.0181422  60.1007614
  57.0422287   0.8964586  60.3138046  55.9621162  -0.1595199  60.4099884
  83.5227966  18.2218170  74.3407364  82.9170609  17.9922314  75.0454330
  83.4203339  19.1676788  74.2354813  72.1570587  26.8503246  88.6686325
  71.7697601  27.7026844  88.8679047  71.9623108  26.7094784  87.7420959
  50.9947815  64.0792236   7.8044386  50.0669785  64.2521820   7.9641232
  51.0250130  63.1596642   7.5403843  66.6235046  35.6219788  84.0110779
  67.5332336  35.5931320  84.3073730  66.2009583  34.8919792  84.4636078
  22.0161133  40.0563126  86.1882553  21.9149151  40.7654724  86.8231506
  22.1785717  40.5010071  85.3563385   7.8848553  20.3561707   7.8185539
   8.0939159  20.9224319   8.5614367   8.4892502  19.6186295   7.9020462
  24.6149406  47.1831703  61.0357094  23.7442951  47.5028954  61.2723198
  25.1214619  47.9759789  60.8592949  12.3740559  20.0334682  74.7345123
  11.5286055  19.7646790  75.0939484  13.0129118  19.4837494  75.1882782
  21.7637177  13.9162521  84.3381271  21.3731632  13.9953070  83.4678192
  21.0593472  14.1578064  84.9395828  33.9256020  12.9575977  20.5230579
  33.3603477  13.0193300  21.2930641  33.6032715  13.6397696  19.9340096
   6.5141358  48.5707970  87.3350754   6.5725455  47.6983261  86.9456940
   7.3941975  48.7431068  87.6697845  38.9733467  35.4908028  16.8052349
  38.0195389  35.4128113  16.8252220  39.1977539  35.9001389  17.6408882
  40.1534157  62.1596222  37.5078430  39.4425049  61.5279961  37.3988266
  40.8300705  61.8663216  36.8976402  40.9411163  48.9704857  15.9460068
  40.8022995  48.0755157  16.2558270  40.2840996  49.4892464  16.4101715
  77.3594818  44.2071075  58.7806702  76.6238174  44.1079063  58.1763573
  78.0175705  43.5903244  58.4601593  58.6457138  65.6605148  55.8651733
  58.9211998  64.9241791  55.3191452  59.3951263  65.8286133  56.4364471
  21.9277344  46.6272926  71.1527863  21.4470177  47.0510101  70.4417267
  21.7384491  47.1635551  71.9227371  75.1414108  15.3679485  42.6014786
  74.2107468  15.4505453  42.8094978  75.5846786  15.4638615  43.4444160
  73.2607117  64.1449814  67.4873505  72.8470383  64.8400421  67.9992065
  73.7345810  64.6066132  66.7955627  79.8455048  17.6228218  87.8227844
  79.6397934  18.3311138  88.4328918  80.7969971  17.6595993  87.7251358
  10.8973904  18.2828941  86.9478683  10.3376570  17.7223415  87.4851837
  10.3152981  18.9772377  86.6391830  14.4212770  38.9159508  28.7925320
  14.7178717  39.6837730  29.2811184  15.1884861  38.3447914  28.7551537
  62.2587662   7.9829636  38.6074257  62.9778976   7.7849827  38.0075226
  61.6960220   8.5823231  38.1171989  82.6221619  53.8135490  36.5154533
  82.1531982  53.3853607  37.2316666  83.0197525  54.5859184  36.9174461
  43.1375351   7.3189530  32.9226341  43.2123489   8.0463381  33.5403290
  42.1964455   7.2267580  32.7740288  74.0431900  31.9980450  33.9801292
  74.6751404  31.3189030  34.2160034  74.5808105  32.7364159  33.6937523
  76.1703949  11.0082817  68.6233063  76.9701538  10.9584999  68.0997314
  75.5359497  10.4766388  68.1426163  82.9194641   9.1749554  78.7660828
  82.8789825   9.0102720  77.8240204  82.1065521   9.6403818  78.9630127
  48.2613716  50.0421715  22.7198505  48.1351967  49.4350891  23.4490719
  48.6279640  49.5023842  22.0195141  19.1377430  -0.0560478  67.4516983
  19.0196953   0.8879298  67.5575485  19.7630444  -0.2973425  68.1350784
  59.9779892  59.4638138  51.1032181  60.6127739  59.9793472  50.6057243
  59.3290405  60.1026917  51.3980598  81.4398651  19.4279156  62.5288086
  82.0033112  19.1318111  61.8139038  81.3782654  18.6727314  63.1137314
  31.9095917   4.2307630  25.3570690  32.5737724   4.0790472  24.6847000
  31.2702122   4.8058333  24.9366913  65.0961838  23.9160748  53.0547600
  64.8229446  24.7980156  52.8022652  65.3623657  23.5033703  52.2331429
  32.0960121  70.8679810  80.6091309  31.1784859  70.9106140  80.8785095
  32.0783920  71.0490494  79.6693802  48.1860809  32.1474495  88.9696655
  48.7308884  31.6574192  88.3537979  48.7753143  32.3612099  89.6930847
  71.0149765  68.6304169  37.2078094  70.5392914  68.4754791  36.3917503
  71.9337082  68.4875412  36.9803391  52.4773483  10.8996916  30.6355877
  52.6059036  11.7538910  30.2232170  52.3732338  10.2930698  29.9025097
  34.1650238  24.7858067   7.5872288  33.3057098  24.4376125   7.8250747
  34.5350266  25.0957394   8.4138317  37.0576210  24.9648151  38.9581184
  36.1973419  24.5929012  39.1526299  36.9853058  25.8836460  39.2164803
  17.3194504  69.2105408   0.4047586  17.3917484  68.4339828  -0.1501849
  17.0496788  68.8708801   1.2580388  17.9711266   9.5273256  24.0832863
  18.7931080   9.0628529  23.9256611  17.7019596   9.2476425  24.9582481
  66.7747803  57.7068062  59.9446411  66.2547836  57.6613350  60.7469902
  67.0909653  58.6097870  59.9149971   1.3264456  12.7915888  46.3933105
   2.2059987  12.4703465  46.5918617   0.7901713  12.4902172  47.1266708
  58.1677895  22.8025322  14.8257599  58.9468880  23.2184162  15.1949148
  57.7810097  23.4743118  14.2642031  72.6589890  58.6326370   8.3213921
  72.0635071  59.0190773   8.9634943  72.9930496  57.8439865   8.7487869
  41.5659065  64.1373978  56.1348763  40.9342613  64.4903259  55.5082207
  41.5373955  64.7466507  56.8725929   1.1356716  41.6344681   8.6046457
   1.1145276  40.8484459   8.0587912   1.6007833  41.3638763   9.3962793
  55.1638565  63.6593246  50.9246597  54.5295143  64.2851028  50.5750313
  55.4911079  64.0714188  51.7242317   4.3044434  50.9110413  61.1346092
   3.4767208  51.3219147  61.3841858   4.2260613  50.7680931  60.1913910
  76.4149857  65.1669159  60.0647926  77.0907516  65.3378143  59.4087715
  76.7774200  64.4644394  60.6046066  62.8864441  36.4804497  59.6160202
  61.9301567  36.4708862  59.5753288  63.1510429  37.0541801  58.8969574
  81.8418198  18.9611378  36.7289505  81.2422104  18.3452473  37.1501122
  81.3103180  19.3939285  36.0607948  74.4024277  58.3521957  25.7991905
  74.1291962  57.6769676  26.4201927  75.2254715  58.6865120  26.1556435
  24.6618843  59.4641037  86.9250031  25.0372448  59.2433014  87.7774048
  24.3538857  58.6280746  86.5751114   3.7507184  28.7055950  37.4070473
   4.2587781  29.3881817  37.8454323   2.8678234  28.7967205  37.7654114
  27.7273293  10.0003452  84.9563522  28.1363506  10.7955999  85.2976761
  28.4284019   9.3486652  84.9628983  38.6951332  31.1074238  38.2441673
  39.2557487  31.8119164  37.9191628  37.8036880  31.4230824  38.0961113
  53.8790741  39.2700310  70.7408752  53.0972672  38.7343826  70.6063766
  53.9094734  39.8455582  69.9766235  85.0948639  31.7003632  81.9238663
  84.5216522  32.4594612  82.0307846  85.9675598  32.0744209  81.8025589
   1.1528414  29.6511936   6.0560298   1.4124037  28.9106293   6.6041393
   0.2682126  29.4333839   5.7623920  43.2548294  41.1766472  56.2335548
  42.4555779  40.9164352  55.7756042  43.9607811  40.9631958  55.6233864
   7.1197753  35.9155731  47.8668594   7.8049998  35.9689331  47.2006378
   7.5383444  36.2332497  48.6669312  17.6528683  56.0446129  57.1754837
  17.7534122  55.9748726  56.2261353  17.8977261  55.1804504  57.5063896
  24.9961586   6.5436754  82.7883987  25.2120304   7.2018595  83.4490280
  24.1773224   6.8528485  82.4009018  27.5457306  52.6645126  89.1072617
  27.1544952  52.0726624  89.7498245  26.8196964  52.9085655  88.5332031
  72.1703720  62.3545494  20.5970688  71.2607880  62.2461166  20.8747978
  72.4556427  63.1635704  21.0217323  53.9002762  63.6042671  33.0272408
  54.8071709  63.8943062  33.1254845  53.9230728  62.6709633  33.2385635
  24.7248707  49.4207687  70.8773804  24.7178173  50.0127525  71.6295319
  25.6414700  49.3930931  70.6029510  36.3505936   4.8395433  23.6171036
  36.5799789   5.6970072  23.9753895  36.8246727   4.7922435  22.7868977
  67.8448181  10.4075403  81.6598511  67.8625336   9.7661982  80.9495010
  67.0324249  10.2212400  82.1305389  82.5418777  50.7686081  61.7685814
  82.6320801  51.7042694  61.9492226  83.1388092  50.3467255  62.3865852
  50.6867142  19.8724098  13.3503838  51.1334686  20.3951149  12.6844864
  50.9781342  18.9755554  13.1861906  70.5886078  41.3550949   2.0622342
  71.0143280  41.7747536   2.8098199  70.5002899  40.4377289   2.3208280
  36.1062622   0.7005324  41.3824768  35.4694939   0.8801521  40.6907425
  35.9460487  -0.2115894  41.6245422  11.6608963   7.8036356  77.2642593
  11.1715984   7.0689464  77.6344681  11.0511894   8.5405836  77.3016434
  33.2077217  26.9960346  87.5318451  32.9325523  26.6118622  88.3642731
  32.8794403  27.8946533  87.5626373  10.6386862  32.1635170  84.3173523
  10.9604187  32.6703377  85.0629120  10.1409922  31.4471893  84.7115707
  48.1806488  10.2609377  28.7049141  48.3295479   9.5054016  28.1363850
  49.0395432  10.6766186  28.7807007  31.7124748   7.1774788  76.6087265
  31.1740971   7.7349687  76.0469589  32.5792923   7.5830064  76.5885468
  61.0054703  68.5994110   6.4872904  60.2479820  69.1743164   6.3780656
  61.7193680  69.0568619   6.0430861  36.4081345  54.1346130  72.5628510
  36.5097580  54.8713570  71.9602661  37.1929474  53.6038055  72.4266891
  24.9921932  44.2707863  38.7224045  25.1528358  43.3271713  38.7185440
  24.0523834  44.3544121  38.5611610   8.2985973   7.5181832  39.4279747
   7.6270051   7.6314077  38.7553864   9.1043262   7.8315091  39.0170517
  16.4643898  51.2032013  13.1665640  17.0248489  51.7957191  13.6676016
  17.0323830  50.8639793  12.4747953  67.0718994  15.6034021  84.0517883
  66.3689957  15.0308809  83.7445755  67.8761063  15.1263437  83.8470764
  52.8659706  38.0934219  74.0055618  53.5219879  38.0736084  74.7023315
  52.0296440  37.9977112  74.4612274  12.9454861  41.5862160  51.9612808
  12.2310810  42.2195625  52.0300674  12.9277029  41.3034744  51.0469666
  66.0182648   5.8835979  40.8632812  65.7866135   5.3488145  40.1039543
  66.2890015   5.2506771  41.5283699  47.4776878  51.2145996  49.2904015
  46.8310661  50.5157890  49.3893013  48.0723305  51.0972900  50.0312614
  59.7605476  64.0236435  18.9354439  59.1733742  63.3434677  18.6055565
  60.2876396  63.5825577  19.6016655   1.0449554  20.6802940  36.9969635
   1.0882148  21.4771442  36.4683914   0.3164803  20.1843204  36.6233788
  59.3301201  18.1139240   7.8883128  59.1437798  17.2984715   8.3536577
  60.2108231  18.3568230   8.1739588  13.0501461  24.8436775  64.7800217
  12.4080410  24.1502819  64.6279144  13.1094761  24.9103069  65.7330551
  86.2134628   9.2227354  10.7042618  86.2307739   9.4620600   9.7776251
  85.3022614   9.3511219  10.9678097   2.2930951  60.7217216  16.7370110
   2.7085345  59.8810120  16.5450401   2.8321970  61.3656845  16.2777615
   3.5249786  55.3548698  75.9312210   4.1197319  55.8758469  75.3917007
   3.8525248  54.4589424  75.8521042  56.9165497  65.8678665  67.1149750
  56.5522118  64.9947815  67.2605820  56.6640663  66.0861969  66.2178574
  15.8316889  11.0705967  52.4031029  16.6411114  11.1722374  51.9023705
  15.6358976  11.9511833  52.7232056  84.0273361  62.1688538  58.9218292
  83.8657837  61.4064484  58.3660698  83.4689636  62.0302200  59.6868362
  38.8475075  40.1756554   7.4777465  39.7273598  40.5360794   7.5881219
  38.3134918  40.6474800   8.1168413  81.9310837  17.8127060  19.3704643
  81.7079315  17.0331821  19.8791618  81.1289749  18.0249748  18.8931904
  31.0794792   9.0803881  74.9908524  30.9125729   9.8537703  75.5296097
  31.4012470   9.4317341  74.1606369  64.2341690  53.5907822  26.4683208
  64.2454224  53.5527039  27.4246979  65.0791779  53.9745255  26.2339420
  51.7773476  40.9968910   1.6216552  52.1617355  40.3019142   1.0873443
  51.3039055  40.5336533   2.3126647   1.3522718  42.5892982  36.0604553
   0.5770953  42.8995056  36.5285416   1.9315176  42.2604332  36.7478828
   2.0388680  41.5001068  33.7495461   2.8007236  41.8776512  33.3099251
   2.0239792  41.9227867  34.6082382   4.9074230  61.1659927  88.6692581
   5.0524888  60.5430946  89.3814316   5.6694145  61.7445793  88.6981888
  68.4463654  53.3041573  20.2971420  67.6969070  53.7271233  19.8780537
  69.1681900  53.9210014  20.1758919  13.4912663  68.9564209  39.7428322
  14.2437372  68.9845963  40.3337860  13.7406549  68.3256760  39.0674057
  69.1899414  57.7290916  51.5295563  69.1380234  58.5185432  52.0683479
  70.0264282  57.8068123  51.0707703  68.7376556  35.4048729  52.2108421
  69.4714890  36.0159988  52.2759666  68.5525589  35.1555061  53.1162643
  25.9945145  51.4209938  57.2570114  25.6388550  51.1534576  58.1044579
  25.2231045  51.5917511  56.7166405  72.8172684  46.6195259  28.7877998
  73.0715332  45.8225327  28.3226376  73.0545959  47.3304214  28.1923676
  65.9789963  59.6897736  63.2800674  65.4470596  59.6881828  64.0758514
  65.8482285  58.8198242  62.9028244  32.9169273  58.4992409  17.3338280
  32.4454956  57.8480339  16.8142986  33.8385391  58.2576523  17.2416458
  53.7838097  13.8182764  69.9491882  54.6679535  13.8154888  69.5824280
  53.8433342  13.2566996  70.7220535  48.7619438  47.6720428   0.8896017
  48.8283539  48.1930389   0.0893628  48.8848648  46.7686272   0.5981209
  27.7592659  67.2451248  74.0054703  28.4224930  66.9452972  73.3838043
  28.1553307  67.1032028  74.8652496  84.0106049  33.6479034  56.6274643
  83.6486206  33.6135635  57.5129128  84.6563797  34.3537025  56.6599159
  53.6357384   6.3908625  88.7188492  53.6636353   5.6074395  88.1695786
  52.8895645   6.2485838  89.3012695  41.1507492  40.7421188  73.7348328
  42.0982323  40.6329269  73.6536713  40.8750076  41.0818062  72.8834763
   7.0997682  62.6526337  70.9416962   6.4779167  63.2462082  70.5207367
   7.9428754  63.1005173  70.8723831   1.0700684  43.7974243  78.2359695
   1.8546246  44.2585144  78.5327911   1.3569024  43.3087807  77.4644928
   4.5501571  30.1410351  75.7212296   5.1297026  30.5020046  75.0503616
   5.0631790  29.4448566  76.1315689  53.4609375  55.7530098  10.2139139
  53.3438873  56.2912064   9.4310522  53.2453041  54.8651276   9.9286070
  74.0996704   9.9824629  66.9770737  73.7853394  10.8390894  67.2662506
  74.1654282  10.0602474  66.0253143  26.9064617  13.3143673   2.8186059
  27.5438004  13.9427223   2.4791942  27.2892799  13.0045805   3.6394067
  43.8633842  20.9727554  77.0568542  44.4119759  20.6596146  77.7760315
  44.3213692  21.7449760  76.7249527  21.1580696  68.3932190  68.3211060
  21.5901222  68.7821732  69.0815506  21.8753433  68.1569595  67.7329483
  78.8453979  71.3198090  24.6376152  78.5261154  71.6471252  25.4785442
  78.0683060  70.9599228  24.2100201   9.4403019  61.0003242  16.5428944
   9.3785200  60.0634422  16.7290916   9.5492659  61.0490913  15.5931673
  17.0468502   0.0044252  51.5834923  16.1018887  -0.0184934  51.4326477
  17.1759872   0.7396442  52.1826630  22.6037140  15.4947634  80.0706024
  22.6623249  15.7250023  79.1433563  23.1658688  14.7254820  80.1623688
  86.5292282  63.8226624  80.7836685  87.2870483  64.2476578  81.1853104
  86.1832047  63.2518578  81.4697342  45.3571129   0.5306321  22.4137630
  45.8358994   1.3542747  22.5065365  45.6276169   0.0098606  23.1699753
  15.1686172  32.3078232  19.6710205  15.0781717  31.6939259  18.9421978
  16.1033134  32.5124969  19.6971893  53.9991150  63.3462143  15.4842119
  53.7279968  62.5626488  15.9624920  54.9165535  63.4699249  15.7276020
  66.1403427  43.0831833  14.0547895  66.6152954  43.0491180  14.8851442
  65.2731476  43.4143562  14.2883053  26.8533459  50.6625404  33.5229378
  27.2612514  49.7978973  33.5701752  27.4997578  51.2081680  33.0749702
  64.4497910  56.3993416  87.5392990  63.7406654  56.8928032  87.9514465
  64.1746216  55.4848671  87.6044769  63.8177795  46.0721474  34.2477875
  64.5483475  45.8096542  33.6877899  63.0366096  45.8694763  33.7330780
  71.1784744  58.3563499   4.1565638  70.6295242  58.4811058   3.3824060
  71.2113037  59.2197227   4.5685606  60.0060997  68.6886902  83.6398849
  59.3393402  68.3243332  83.0577316  60.7316742  68.9179535  83.0591888
  57.2063828  58.4895859  74.6114273  57.4617577  59.2899323  74.1526642
  56.6206398  58.0406265  74.0018616  11.7621975  50.4309387  69.8291168
  11.9391050  51.3268089  70.1160736  11.7938652  49.9114494  70.6324615
   5.7168193  38.4930305  84.8120575   6.2260776  37.7867126  84.4145584
   4.8047113  38.2435646  84.6635361   7.7939239  53.0899925  60.0128136
   7.0477691  53.4558754  60.4878044   8.4447460  53.7918930  60.0118484
  62.1604729  16.2944775   3.2071197  61.9205666  16.9575081   2.5597646
  61.3441734  15.8274946   3.3854935  82.9639359   8.6824579  61.7415237
  82.4900131   7.8509059  61.7294655  82.3176498   9.3221655  62.0403862
  69.9756470  51.9520645  43.6135674  70.5717239  51.2110252  43.5050392
  70.4408875  52.5499916  44.1986046  86.1625595   9.0529547  58.8921738
  86.0254593   8.4524393  58.1594963  86.7844238   8.5989342  59.4608459
  12.8601370  44.0899773  87.1603012  13.4724874  43.3626328  87.2709045
  12.2319603  43.9849701  87.8748627  54.0847206  13.9116983  21.4983921
  54.0086021  13.3111820  20.7568951  53.4682388  13.5711765  22.1466427
  41.1765060  48.9585724  51.9015503  40.3387489  49.3080177  52.2053299
  41.2442245  49.2541199  50.9936409  50.1214142  25.3512115   9.9247875
  50.6549263  25.9488583  10.4486303  49.3563919  25.8694630   9.6750097
   0.1905254  49.8625374  39.7310410   0.5764764  49.1781349  39.1843567
   0.2107332  49.5011063  40.6171494  17.0268841   9.0591736  88.1845932
  16.0861645   9.2046432  88.0840073  17.1333141   8.1118240  88.0983810
  23.6961479   6.7858882  79.1310501  23.7330379   7.4746590  78.4673691
  24.6129074   6.5957742  79.3301468  63.6639442  12.5260210  33.7686234
  63.5191803  12.9858227  34.5955811  64.6121826  12.5550766  33.6412277
  62.2185402  44.9767113  45.9892807  62.2436409  44.0230865  45.9105110
  61.8570938  45.2765007  45.1551857  46.1351929  32.4738731  76.8362732
  45.8343697  32.7006226  77.7162247  45.7897148  33.1705284  76.2781067
  13.6598043  52.8003731  18.4222298  13.0706558  53.1427994  17.7500095
  13.6217966  51.8502312  18.3125916  78.3781815  39.4542198  41.6021538
  78.8425980  39.0370789  42.3277931  79.0519257  39.5978279  40.9375648
  71.5896378  55.3640862  65.4356766  71.5818710  56.2119064  64.9914093
  70.6752167  55.2094841  65.6726608   6.8894720  60.1111374  71.6152420
   7.0884161  60.1822319  72.5488358   7.0264592  60.9945831  71.2732010
   5.2375679  11.0658617  43.6369057   4.5832810  11.7577763  43.7338257
   5.1824174  10.5681028  44.4526443  70.6460571   2.7409406  40.3657036
  71.5358124   2.8500397  40.0300560  70.2292175   3.5901680  40.2197914
  42.4431000  57.4980202  55.0861282  42.9179306  56.8649445  54.5476303
  41.7047615  57.0036354  55.4420395   2.1374052   8.5500069  38.6223526
   2.0947804   9.4848070  38.8237610   2.6471803   8.5022507  37.8135986
  68.9452133  53.7271042  27.8362560  68.4040375  53.5274124  28.6001205
  69.7226028  54.1525192  28.1980858  84.1553268   4.8558397  12.4845457
  84.3430405   3.9940991  12.8565645  84.2471924   5.4599624  13.2213144
  73.5324631  60.7263870  81.3420563  74.0638351  61.5079842  81.4936371
  74.0269470  60.0172081  81.7528915  83.2495880  53.8092766  45.5420837
  83.3041382  54.7077217  45.2164268  82.3553848  53.7286835  45.8739433
  41.5874748  35.7872696   5.5842724  41.0143318  36.3097076   5.0232077
  42.1990509  35.3687401   4.9784322   6.9556904   1.7074071  27.0378475
   7.7192354   1.1347455  27.1105804   6.2090130   1.1090097  27.0128517
   5.7351356  34.5307083   5.9357696   5.8046279  34.4696312   4.9830513
   6.6167684  34.7650146   6.2256942   9.3466396   5.7114420  28.3013306
   8.4666176   5.9123797  28.6197891   9.2102137   5.0536456  27.6194763
  72.7359695  27.0179482   4.0272999  73.2071533  26.9201794   4.8547406
  71.8903656  27.3912945   4.2758727   4.4080591  10.2491322   9.5264082
   5.0488343  10.9244928   9.3038607   3.6419468  10.4607821   8.9930143
  75.6863785   8.7779913  71.1567383  75.7984161   9.6301279  70.7353821
  75.7261353   8.1479445  70.4372330  11.0610714  37.9355125   4.9255285
  11.4028816  38.7900391   4.6625080  10.2111263  37.8730621   4.4897261
  71.3036804  50.6330948  38.2487717  70.8879013  50.7806778  39.0982285
  71.3162689  51.4961967  37.8350868  59.7170563  11.9357376  60.9208565
  59.1432686  11.2147036  60.6618004  59.1651688  12.7153215  60.8584023
  63.2521286  50.4340935  49.6035843  63.0429077  51.1945038  50.1460190
  63.6982040  50.8001289  48.8398666  38.5696754   3.8355298  21.9450455
  39.1649208   4.1545682  22.6233711  38.5566063   2.8859828  22.0651340
  41.3655319  66.1152420  58.3302002  42.1875954  66.4002609  58.7292061
  40.9815102  66.9165955  57.9743919  57.7328682  60.1424637  43.4821815
  56.8609352  59.7991905  43.2869110  57.7025871  60.3568497  44.4145737
  56.3604393  29.9178448  56.6143646  56.2277107  28.9742489  56.7051468
  56.1228256  30.2764988  57.4694290  78.5489807  60.2229156  20.0018082
  79.1060715  60.6430473  19.3465500  78.8949280  59.3334694  20.0755234
  71.4388809   1.6099788  56.6002350  71.5546188   1.2317464  55.7285805
  70.8197021   1.0238824  57.0353584  81.9481964  23.5327282  54.8196602
  81.1202469  23.7606716  55.2424736  82.5725479  24.1774387  55.1524658
  81.6803589  18.9983234  79.5713806  81.3997116  19.4469738  80.3689957
  82.6351013  19.0660686  79.5817719  49.1385422  20.7392044  18.0883102
  48.4690742  21.1794529  18.6119747  49.6046982  21.4502811  17.6486511
  42.6063995  16.7999725  11.0146942  41.8580132  17.2037392  11.4541464
  42.8882904  16.1060066  11.6106653  70.5571136  23.6946831  12.7160063
  70.0693665  22.8881779  12.8829756  69.8871231  24.3340454  12.4740314
  40.7124138  70.9159393  59.4078712  40.2134705  71.2011948  58.6424179
  41.5404091  70.5969849  59.0488091  64.2582550   9.8443918  62.0284576
  65.0498581   9.6169147  61.5407600  63.8418274  10.5281038  61.5037117
  63.6137733  63.8693924   5.6924438  63.3266983  64.5152283   6.3379793
  63.5673790  64.3307800   4.8550649  78.4990768  13.1482477  79.1449356
  77.8171310  13.7970791  78.9711685  78.3154068  12.8394680  80.0321503
  40.6757736  58.4103584  48.9046478  41.6103745  58.5195541  49.0802307
  40.2473564  59.0327950  49.4922409   9.0567980  36.3913307  81.7212372
   8.7656937  36.2750130  80.8168259   9.3747883  35.5274239  81.9834900
  76.7115936  44.7968903  61.3312225  75.8124619  44.4955559  61.2009201
  77.0876236  44.8162346  60.4511871  49.6777191  55.7884560  69.9276352
  49.1057777  56.1725807  69.2631302  49.8297653  56.4979591  70.5519104
  69.7967377  15.1830091  41.8527260  69.3334656  15.9915209  42.0716248
  69.5293045  14.9894676  40.9542503  71.2761536  36.6961594  53.1196518
  71.6286316  36.6442337  52.2312317  72.0476227  36.6666412  53.6855087
  35.3960876  42.1653824  20.5301762  34.9842682  42.6034927  19.7853985
  35.4530411  42.8422050  21.2046432  81.0494537  31.0097504  48.0455894
  80.8920288  31.2282314  48.9641304  81.5307388  31.7613907  47.6997032
  18.2183018  26.0304565  79.8664932  17.9356213  26.6840553  79.2268600
  18.3000641  25.2212009  79.3618622  65.2244873  42.2732315  52.8114510
  65.2732697  41.7700233  53.6242447  64.2881393  42.4176407  52.6749840
  82.8497086   0.0988625  23.0694351  82.3801498  -0.3079534  23.7976151
  82.1638641   0.5040438  22.5387001  63.4348106  29.3397522  48.1004181
  64.3393555  29.5800533  47.8997154  63.5056801  28.7374992  48.8410263
  81.4679260  13.3296461  50.7498703  82.1194382  13.9808388  51.0100861
  81.9487839  12.5021181  50.7357750  40.0911293  62.2810631  25.8387222
  39.9965439  61.8290634  25.0002823  39.2289429  62.6627121  26.0036793
  69.8194427  37.1564064  56.1320038  70.3110962  37.3755074  55.3404846
  70.3611984  37.4854736  56.8492546  19.1529617  26.2464638  56.8749390
  19.0424995  25.9238110  55.9805527  18.6449833  27.0573177  56.9014931
   4.2350683   1.4954886  56.6464195   5.0548944   1.3414868  56.1769524
   3.9318321   0.6214203  56.8919487  29.2586784  65.0069656  25.0478802
  28.5514221  64.7557220  24.4538288  29.1399040  64.4443817  25.8131466
  44.8377953  60.9143982  74.0915756  44.3633461  60.7191963  74.8996735
  44.2058411  60.7387848  73.3944168  73.4535141  56.8994637  10.1745844
  74.2873383  56.8815079   9.7048464  73.3087540  55.9913788  10.4403944
  79.9902420  28.3879280  47.6391449  80.9280167  28.4561863  47.4598122
  79.6803207  29.2935619  47.6415939  40.0692596   1.8730055  17.6352348
  41.0050507   1.8584943  17.8360367  39.7463112   2.6697402  18.0561237
  68.4023666   7.4616756  36.3392601  69.2388840   7.3126473  36.7800217
  67.8858109   6.6800060  36.5351906  36.4043999  54.1329231  20.4752522
  36.7341156  53.5778008  21.1819057  36.4747238  53.5890236  19.6907406
   6.3831234  10.5496674  36.3456535   6.4438143   9.9955263  35.5675278
   6.1806092  11.4206638  36.0042076  17.4259834  55.1670151  27.2181053
  18.0434570  54.8337593  26.5670319  16.6503563  55.4076920  26.7114410
   7.5342054   1.7218680  77.7007828   8.3493052   2.2228050  77.7308807
   7.5517173   1.2869316  76.8482819  62.9510078  22.1800003  77.4622574
  63.8888206  22.3715477  77.4556961  62.7372665  22.0613136  78.3877106
   5.4575214  10.9044971   6.4448981   4.8511429  10.5122213   5.8166814
   6.2974830  10.4835157   6.2619462  69.3486862  42.9258919  53.6422691
  68.8317261  42.7244377  54.4222717  68.7498322  43.4145966  53.0776672
  50.1259308   2.8661768  80.0680008  49.8424568   1.9530505  80.1135559
  50.5216751   2.9511213  79.2005920   6.0166383  42.5262070  86.7998123
   6.4255743  42.1850090  86.0044556   5.4276099  43.2141991  86.4900665
  61.7381516  71.2236404  56.2371407  62.2386017  71.5996628  56.9612846
  61.8602219  71.8407898  55.5157127  74.0908966  71.0970688  62.7894020
  73.1619949  71.2568588  62.9562454  74.4814148  71.9702377  62.7532654
  22.5440426  50.8454285  26.2497749  22.0498142  50.0509758  26.0477428
  21.9625416  51.3514481  26.8172531  30.1015682  70.3223267  45.3883324
  29.6369648  69.4855423  45.4012375  29.9990807  70.6668930  46.2754631
  38.3656731  53.2118301  51.8667450  38.2075844  52.4188042  51.3545456
  37.6425018  53.7946281  51.6352196  36.8846931  60.4298668   6.5675235
  36.4984589  61.1874352   6.1280394  36.1334038  59.9201622   6.8708329
  55.9381180  50.5420151  40.7909927  56.3813400  50.6102142  39.9453392
  55.1211700  51.0266876  40.6730080  46.4348335  64.2686539   2.1091835
  46.9659958  64.7261353   2.7609596  45.9503403  63.6138382   2.6118858
  84.3115921   0.7832143  88.2224503  85.1668930   0.5460044  88.5808105
  84.3587875   1.7310419  88.0974426  40.0953827  11.2274847  18.2782459
  39.5139236  10.4922066  18.4719028  40.3695526  11.0839071  17.3724594
  59.4953423  48.3776131  40.9883728  59.4518623  47.7425766  40.2734795
  60.4217148  48.4057961  41.2276878   9.8470011   9.2322788  61.4215469
   9.4131050   9.5623894  60.6347885  10.3855944   9.9639435  61.7229080
  15.7017202  11.4608984   2.1157396  16.4828167  11.1560869   1.6539932
  15.4025373  12.2152748   1.6081599  37.6560478  50.4621162  61.1339455
  37.3171883  50.1563606  60.2925644  37.0158958  51.1097641  61.4288902
  32.6437988   1.5488238  83.4666824  32.7375908   2.4935622  83.5887680
  31.8760700   1.4552509  82.9027100  65.0041428  59.0578270  34.2109718
  65.0876160  60.0084114  34.1357841  65.7357101  58.7966499  34.7702866
  36.0573463  54.6170502  51.4006462  35.1802406  54.7683144  51.7528381
  36.0107231  54.9324646  50.4981117  77.4486465  67.8923264  27.7041340
  77.9628220  67.0850296  27.6933708  76.5698547  67.6131744  27.9611168
   2.6746187  31.2696552   7.9138761   3.1015193  31.7646294   7.2145991
   2.2396884  30.5455284   7.4636455   5.9495301  33.9404831  27.2447624
   5.5348992  34.5977097  27.8036613   6.8731122  34.1911545  27.2249680
  14.1821260  55.0153885  72.6332092  14.6965933  54.6871147  73.3706360
  13.6048365  55.6745682  73.0185089  73.3692398  38.8331490  82.7702408
  73.1640320  39.5577545  83.3610611  72.5233078  38.5765305  82.4031143
  85.8588791   5.0847197   0.5041201  86.5923996   4.5698667   0.1677932
  85.9957886   5.1063647   1.4512315  72.3970413  63.4876404  74.0924606
  73.2266006  63.0337868  73.9438782  72.0070419  63.5649757  73.2217407
  81.7271042  71.2043533  62.9778328  82.5811386  71.0768738  62.5647736
  81.3825378  72.0011292  62.5745316  52.9063873  48.2934380  20.3605194
  53.1810188  47.7350044  21.0878143  53.6629791  48.8545723  20.1904526
  43.3429451  26.7530098  22.6356888  43.2384872  27.7026196  22.5760059
  42.4484062  26.4165115  22.6886272  76.3572769   5.3980408  45.6131020
  77.2886810   5.3447709  45.8272934  76.2496338   6.2672868  45.2270279
  47.5400276  61.2044373  53.2288322  48.2842369  60.6711769  52.9495049
  47.3865547  60.9443855  54.1371536  24.6745815   7.0640588  14.9549446
  24.2522736   6.8942747  15.7970018  24.4387741   6.3113642  14.4126549
  61.0705643  10.2997875  19.2841129  61.8358421  10.4373121  19.8423901
  61.4339104  10.1618452  18.4093666  10.3339415  21.8995228  55.3314934
   9.5956268  21.2904510  55.3190765  11.1025372  21.3471546  55.1887283
  53.2422829  45.6777000  83.7288589  53.0987244  44.9218102  84.2982941
  52.7110748  46.3735275  84.1160049  72.1148605  63.8394699  81.3280258
  72.8542099  63.3319588  81.6627350  71.4650726  63.1815300  81.0807953
  59.6085243  59.8720741  69.9685898  60.0804825  59.2114487  69.4615707
  60.1907005  60.0725517  70.7014694  18.8381557  54.6222038  48.5770569
  19.7749901  54.5434151  48.7569618  18.7148628  54.1656799  47.7448196
  65.7645874  50.2469101  13.4392920  65.9565811  49.5217667  14.0338840
  66.5086594  50.2665901  12.8374605   1.3043700  59.6413612  21.4644318
   1.4723425  60.5781136  21.3619022   0.4382678  59.5097084  21.0787296
  86.4472198  22.3571472  17.5572186  87.3113937  21.9691048  17.4198685
  86.0459747  21.8142071  18.2357807   8.2099743  11.1034117  12.7471895
   7.5979800  10.4034967  12.9748154   7.7347593  11.9105949  12.9443150
  63.9116554  50.4354591  67.2879944  64.4999161  49.8004303  66.8794327
  64.1580124  50.4296227  68.2129288  23.9143085  20.6262131   5.3950572
  23.2972527  20.0679779   4.9219327  23.6739788  20.5222397   6.3157434
  81.6704712  45.7233047  79.2615814  82.0136337  46.3559723  79.8926163
  81.4437485  46.2490273  78.4944839  80.5433578  25.7471886  37.4361496
  80.1384735  26.6128426  37.4904556  79.8481827  25.1779022  37.1061859
  63.1932755  56.6028442  26.7270145  63.1072235  55.7533455  27.1596527
  63.9893456  56.9818573  27.0996456  66.8169785  10.9757996  50.8811226
  66.3380814  10.8643761  50.0598602  67.2872086  11.8026094  50.7738991
  15.2101641  69.3152695  85.7101974  14.3670301  69.4649582  85.2824707
  15.4938707  70.1851425  85.9913788  17.3755779  35.0536079  53.7833290
  16.8746204  34.2456856  53.8952942  17.2253780  35.5426254  54.5923653
  21.4385433  52.1599541  80.4024124  22.3783436  52.3246422  80.4791336
  21.1158199  52.1899071  81.3030701  28.0912666  56.4195900  39.3108330
  28.4449806  57.1677780  38.8298569  27.2836323  56.7486382  39.7054024
  80.8185272  36.2776489  43.9509850  80.3799896  35.4742279  44.2310410
  81.6894531  35.9915924  43.6754990  27.1737347  41.8631477  36.9259300
  26.5018711  41.7689552  37.6011772  26.6825600  42.0218163  36.1198273
   2.8165190  53.1960144  32.1543427   3.4710333  53.6885757  32.6495438
   2.7327096  53.6723709  31.3283329  40.5954094   9.7656403   5.9898601
  40.2399750   9.9288788   5.1162176  41.5234032   9.5843830   5.8408632
  41.5658951  44.5221329   8.9543114  40.9803772  44.6486816   8.2077274
  40.9815750  44.3234749   9.6859779  63.0841446   7.2052479  51.2430267
  62.3117409   7.7348723  51.0452271  63.2255211   6.6835275  50.4530563
  27.1032200  61.1681061  77.4116440  27.3732662  61.8904343  76.8445892
  26.7677994  61.5949974  78.1999969   3.3367028  53.4589729  53.5413780
   3.2878430  53.5322685  52.5882416   3.2174356  52.5254669  53.7162399
  13.3388567  32.0527840   0.9252514  12.8915129  31.4385471   0.3431633
  12.6880598  32.7319374   1.1025959  74.9362030  43.3655853  19.6202621
  73.9897232  43.5082817  19.6135902  75.1985168  43.4560204  18.7041588
  50.9461670  25.7530327  81.3430405  50.8953552  26.7006969  81.2182083
  51.7187119  25.4868603  80.8444901  45.6196404  46.3872299  81.0560532
  45.4414291  45.9657745  80.2153168  45.9398804  45.6796684  81.6155548
  51.9617386  22.5133095  31.6340809  52.0525703  22.4748993  30.6819744
  51.0618553  22.2326031  31.8003502   5.6766415  12.6490154  21.6093044
   6.0918198  11.9236889  22.0759525   4.9287767  12.2505970  21.1641159
  65.3076401   9.0161266  20.0643482  64.7419052   8.2634907  19.8919735
  65.5897751   9.3072538  19.1972389   2.3724616   4.6270442  62.0650711
   1.6360251   5.1886392  62.3069496   1.9749129   3.9106860  61.5700798
  55.6409760  38.4655838  23.2273407  55.8509293  38.8329506  22.3687420
  55.5920677  37.5213127  23.0783730  56.6628914  55.2064056   1.7646475
  57.4212112  54.8706398   2.2426047  56.4659958  56.0433578   2.1853318
   3.6752388   4.1992688  47.9789200   4.4465528   4.7560873  47.8728065
   3.7084227   3.9156775  48.8925438  48.2209969  60.0423546  83.7306747
  48.2217522  59.3306580  84.3707657  48.5752296  59.6480255  82.9336472
  27.2631340  61.6338921  50.2849426  28.0173397  62.0968475  49.9201431
  27.3890858  61.6802864  51.2326851  83.1698990  15.1114779  87.0983505
  83.6366882  15.0077238  87.9275513  83.8202133  14.8983536  86.4291077
  79.4177933  45.2641373  62.4018974  79.7289047  45.8494034  61.7113152
  78.5443497  44.9979019  62.1147537  71.1247940  34.1377029  38.9303398
  71.8096161  34.2744446  39.5849724  70.3530579  34.5689163  39.2973747
  70.5246887  36.3864250  48.2596130  70.0354843  37.1643372  47.9917259
  70.1581879  35.6786804  47.7295036   5.8224835  13.0870247  61.4140434
   5.8012748  13.1870127  62.3657722   5.7761607  12.1416407  61.2714424
   3.9598734  25.4341526  38.8591728   3.3811147  26.1429710  39.1399689
   3.7317457  25.2881374  37.9410934  63.1017685  66.9903336  70.9064484
  62.5879250  66.2348938  70.6209412  64.0067978  66.6786270  70.9053650
  30.1503067  60.1098099  72.8297272  29.8996792  59.1979713  72.6815033
  29.5434132  60.4186935  73.5024109  33.0987091  65.8451004  27.4714527
  32.1821289  65.8099213  27.7450867  33.2836647  66.7791061  27.3732281
   6.3162661  27.1239281  37.8344536   5.9460821  26.6745853  38.5942459
   5.5743675  27.5865574  37.4448433  54.1948929  32.8608208  86.8350067
  53.3862190  32.9414711  86.3292618  54.4259491  33.7614326  87.0624847
   8.6064367  23.5015297  87.7797470   8.5393734  22.7579308  88.3787384
   8.0239544  23.2776871  87.0539093  25.7776127  71.0063629  31.9435539
  24.9399586  71.3795776  31.6691818  26.0073185  71.4906540  32.7366028
  16.3672562  44.1835060  51.9731102  16.2279816  43.4800377  52.6071167
  15.8139200  43.9478340  51.2284584  73.8847046  35.7669029  22.0565319
  74.2372818  36.5917282  22.3905754  73.0844803  35.6260834  22.5625381
  20.4977703  49.6196136  87.5423203  20.8531494  50.4620552  87.2590714
  19.6447601  49.8342476  87.9198532  25.8564701  17.4868069  21.5436554
  25.9563427  18.2487125  20.9729023  25.8596191  16.7384300  20.9468689
  52.4555969  51.5924835  30.5481701  53.0928917  51.5094681  31.2575321
  51.7837105  52.1781578  30.8971481  70.1675110   1.4332901  69.0815811
  69.8845367   0.9708867  69.8704681  70.4476471   0.7393800  68.4847260
  25.6526852  52.6761894  76.3588104  25.8568535  52.7514000  77.2909546
  25.0861931  51.9069443  76.2990036  58.2021523  62.3171082  26.6373749
  58.0427322  61.8176308  25.8365383  57.4891281  62.0637741  27.2235928
  63.4582062   2.0241349   1.0892800  64.0658798   2.7463689   0.9300842
  62.8064842   2.1014574   0.3924900  27.4406433  56.5135155  15.7433558
  27.9910698  56.2911758  16.4942398  28.0489960  56.8762856  15.0995083
  15.2166672  45.8731728  60.2845192  14.4050608  45.9223099  59.7794304
  15.2231054  46.6757240  60.8061523  32.6386337  68.3354797  22.1400604
  32.1511421  67.6298218  22.5650616  33.3812027  68.4977798  22.7218533
  58.3303795   9.8999748  52.6326408  58.0194588  10.7034054  53.0498466
  58.1193466   9.2076664  53.2590637   9.9545851  62.1986046  42.2302132
   9.8958797  61.2999344  41.9059029  10.8793259  62.3145332  42.4484940
  78.3238907  51.0629730  44.6576118  78.6734314  50.5039368  43.9636879
  77.7648163  51.6911163  44.2003403  75.8688965  66.7133484  74.3202820
  75.2917862  66.1383057  73.8177872  75.6551895  66.5275116  75.2346268
  67.5538101  26.0361633  47.2819138  66.9349289  25.4467297  47.7129440
  68.2490692  26.1666584  47.9267464  71.8857803  19.3458862  70.3873749
  71.5622406  18.4582710  70.5413055  72.5497971  19.2438908  69.7055283
  36.2232513  25.3254299  82.4919815  35.6108894  25.9578457  82.1160889
  36.4184608  25.6699181  83.3634491  35.3348007  52.3615646  61.1743202
  34.4695396  52.5924301  60.8362999  35.9470329  52.8172569  60.5966110
  17.9448204   6.4364614   9.3063374  18.6926441   6.9883547   9.0774174
  18.3166218   5.7437363   9.8523474  63.3136826  22.0020428  43.8481064
  63.8473778  22.7808876  44.0056000  62.4121056  22.3021069  43.9636688
  48.7546463  18.3185825  27.5734730  49.2495689  17.6209412  27.1438446
  49.4238968  18.9109688  27.9161301   7.7600484  13.6857014  30.6345673
   8.6936302  13.4743814  30.6353798   7.3917136  13.1406755  29.9392204
  36.4125786  50.7416992   3.9425800  36.0049896  50.2591972   3.2233479
  37.3493538  50.7162361   3.7475452  73.4607544   6.7498260   8.8769293
  72.9466400   7.3385305   8.3243504  73.9966507   6.2502112   8.2609491
  75.9825439  16.0225925   2.8209515  76.4465866  15.2098532   2.6200690
  76.6762924  16.6710091   2.9413834  26.1306190  57.9065552  40.4800110
  25.7008095  58.5522385  39.9191246  25.4170990  57.3546295  40.8001633
  63.5858688  27.9518795  88.6819534  63.3627968  28.7071419  89.2260590
  64.0201263  27.3448429  89.2812500  43.7941170  44.6561165  48.0999680
  43.1615639  45.3644257  48.2199898  43.7378082  44.4398727  47.1692162
   8.0468197  24.0785828  84.3400192   8.8576851  23.8378811  84.7881165
   7.6642427  24.7634048  84.8885498  52.5882263  56.0136108  26.6370068
  53.1320496  56.7332115  26.3165874  52.2241096  56.3371010  27.4610252
   5.2693682  38.8832855  53.7439804   5.9671874  39.3934364  53.3328514
   5.1868353  39.2546463  54.6223373  81.1425476  20.1976585  23.4426212
  82.0718307  20.2882919  23.2318134  80.8588104  21.0853596  23.6610546
  15.0956783  49.3824959  14.5285912  15.1206579  48.7638016  13.7986403
  15.5008945  50.1776657  14.1825619   8.3671408  44.2914886  38.3739662
   8.5624304  43.3729782  38.1884117   8.6262188  44.4116096  39.2875748
  59.9335022  65.8421936  67.7139587  59.3863869  65.6543198  66.9513245
  60.5048790  66.5553207  67.4289856   5.0428357  36.2225609  24.5094643
   4.3952751  35.6177483  24.8715439   4.7135243  37.0915565  24.7388840
  60.2866211  70.5668945  63.5172348  60.0761681  70.6289444  64.4489517
  59.4465103  70.3922195  63.0930443  53.0112877  67.9942703  36.2214241
  53.4231911  68.0527573  37.0834846  52.2374763  67.4487228  36.3622284
  20.8086491  32.8763390  16.5106659  21.0804195  32.9729385  17.4233780
  20.0607338  33.4667435  16.4196911  68.5654144  58.9419975  63.7055702
  68.8069534  58.6691284  64.5906906  67.6206970  58.7951012  63.6590729
   8.9616394  40.1669312  80.1706619   9.2853765  39.8408546  81.0103607
   8.0086422  40.1193237  80.2465591  58.9496384  51.2243919  44.6788025
  58.2763977  51.7831497  45.0670891  58.4595146  50.5622520  44.1913795
  80.0633926  51.9584656  24.9342690  79.1409149  51.7640610  25.1000404
  80.5080414  51.7219582  25.7482624  57.1240616  33.4281883  65.6683960
  57.1381836  32.5039482  65.9170151  57.9197273  33.5489998  65.1501770
  56.8645554  21.6202793  88.2644882  57.1108437  21.9284954  89.1365967
  56.0230446  21.1828327  88.3938522   5.0219393  39.1816978  69.4450531
   5.1212001  38.5735397  68.7125778   5.9160643  39.4505272  69.6560135
  71.6829758   0.8095675  14.1350002  70.8335342   0.8955261  14.5677795
  71.8646240   1.6830852  13.7882996  35.9762802  41.2203140  28.6492100
  36.6553879  41.8581886  28.8686810  35.2675056  41.7440376  28.2756042
  29.5889568   5.8807788  77.6797256  29.2221985   6.5484271  78.2593536
  30.3581238   6.2973590  77.2910385  57.2310791  15.3116131  30.2980881
  56.5630302  15.0254211  30.9210148  57.3293266  14.5736847  29.6963882
  33.9153976  55.6697311  54.6059914  32.9976501  55.6015244  54.3427086
  34.2214928  56.4805794  54.1997070  66.2474594  68.5834122  22.2641411
  66.6545029  69.4089661  22.5268307  65.5318222  68.4601212  22.8877583
  43.1436539  60.2836533  27.7103519  42.9754715  60.9911842  27.0879822
  43.9327660  60.5581017  28.1774845  31.8743820  34.9454269  19.9554710
  31.8714085  35.1883545  20.8813267  32.8009872  34.9245720  19.7162991
  51.1604500  29.7516193  34.4003601  50.9615326  29.3636513  35.2524986
  50.5511398  30.4858150  34.3233528  72.5298462  67.7211533  88.9094086
  72.1319885  68.5810089  89.0457458  71.7865372  67.1241837  88.8236694
  78.7624817  60.1281700  88.0357056  78.3836060  60.9446144  87.7099762
  79.6584702  60.3604546  88.2795944   7.2351103  68.5889511  19.6897888
   6.9349761  69.4905930  19.5748940   7.1546469  68.4276886  20.6298695
  14.2878456  22.9594421   3.0091228  13.6495132  23.6208076   2.7419899
  14.9300804  22.9460316   2.2994843  61.6055794  28.2042484  56.2173996
  62.2750778  28.3581314  55.5508232  62.0984459  28.0896492  57.0299110
  56.4369926  57.5055084  78.0838928  56.1600266  57.5081596  79.0001373
  56.8744202  58.3483543  77.9634628   3.9490337  62.7085762  56.6417122
   3.0193324  62.7148018  56.4140091   4.1845551  61.7810173  56.6615639
  45.3922386  52.8969345  47.3821564  45.8193779  53.7095261  47.1110840
  46.0505142  52.2185364  47.2315521  30.5675049  19.5983200  16.1616154
  30.7401371  19.8086014  15.2438936  29.9472122  18.8700809  16.1278820
  45.2303658  45.8878479  76.6071701  44.2797279  45.8420143  76.7092285
  45.4092140  45.3958817  75.8057861  20.8896275  51.5286789  36.8506508
  21.7607441  51.2131920  37.0911827  21.0492821  52.1643028  36.1529922
  67.6898956  36.0500870  77.6718750  67.4224625  36.9235115  77.3857880
  67.3117218  35.4586678  77.0211563  45.8385277   1.1504565   5.0892873
  45.2372169   0.4541833   5.3535986  45.4528046   1.9493221   5.4488196
  10.7723436   7.0921531  83.5934906   9.8507347   7.2724838  83.7788239
  11.2140503   7.2146082  84.4338074  62.0717659  46.1243706  43.2109909
  63.0133820  46.2253685  43.0717468  61.7211723  47.0113640  43.1300087
  17.1177635  45.3700790  14.2818556  17.5806427  46.1150665  14.6652241
  17.0066986  44.7572861  15.0087547  25.0092030  37.4385910  13.9854784
  25.0892467  37.0285301  13.1242733  25.5739422  36.9146729  14.5536413
  13.3627024  58.5972290  85.8803558  13.1236000  59.3177757  86.4633408
  14.3096848  58.5071373  85.9868393   8.9757566  28.6473198   6.5113459
   8.7985754  27.7074051   6.4739261   8.6849117  28.9113102   7.3842430
  27.0157433  11.7346878  23.5465603  27.1094456  12.6722097  23.7153893
  26.4235878  11.6844606  22.7961864  40.5373726  26.8271770  77.7999954
  40.1134186  26.7211819  76.9483719  41.4250946  27.1179314  77.5910950
  41.5772514  19.6425152   2.6883926  42.1135712  20.4351635   2.6710722
  41.5739937  19.3356724   1.7817125  85.3557968   2.4145825  51.0825272
  84.6083679   1.9258507  50.7379646  85.6228180   2.9840314  50.3609581
  50.3426971  53.2098885  28.4489937  50.5834160  52.7659798  29.2621555
  49.9784241  54.0483932  28.7326336  58.8230324   3.1215217  25.2712898
  59.2177086   2.5751572  24.5916195  59.0983543   2.7167623  26.0938473
  26.7086506   3.9825325  18.7696800  25.8505573   3.7189286  18.4373837
  26.7357388   4.9302268  18.6378727   3.0998666  69.4003067   3.8310418
   3.4852688  69.4740448   4.7041168   3.8055391  69.6527710   3.2356246
  72.2153931  20.2907600   1.4758451  72.3670807  21.1831818   1.1647061
  73.0899048  19.9520512   1.6675273  60.0782585   5.8734851  43.5591965
  60.0066452   6.3224578  42.7168617  59.3084831   6.1610627  44.0500946
  59.7732315  15.9380026  74.8102112  60.5665245  15.6734781  75.2759857
  60.0387993  15.9838581  73.8917389  82.5869904  63.2952271  55.0599632
  83.0525360  62.4812584  54.8677330  82.6871033  63.8214836  54.2667007
  61.1351547  70.7336960  39.7973747  60.7590752  70.9333344  40.6546593
  60.5892830  70.0256882  39.4553566  19.7855015  34.2028046  75.7041092
  19.6792450  34.8986168  76.3527908  19.1094799  34.3798904  75.0499954
  59.3093796  21.3153553  57.2740173  59.0882645  20.4314938  57.5674973
  58.7543793  21.4590626  56.5074959  70.9024353  13.4167147   8.4168406
  70.7892227  13.5792713   9.3533192  71.0467529  14.2842159   8.0388918
  67.7500000  39.1502914  39.3546600  67.5382843  39.6901245  38.5930939
  67.9529114  38.2892876  38.9889679   3.6492810  22.0573959   8.2665386
   3.5278778  21.4147377   8.9654560   3.2478271  22.8578129   8.6047697
  20.8164005  54.4115868  29.9604168  20.6111946  53.6661186  29.3961468
  21.1573677  55.0773544  29.3631516  82.6387939  28.7327042  48.1290512
  83.5416183  29.0158978  47.9843445  82.1163788  29.5250835  48.0047379
  20.6260509  14.2763510  81.7804794  20.1591206  15.0833006  81.5635910
  21.4515877  14.3408728  81.3003159  45.9770012  38.7615318  60.4083099
  45.1093369  38.4681129  60.6863365  46.0122032  39.6827698  60.6658134
  15.0758848  67.3621063  11.6489849  15.2063255  66.8759003  12.4631233
  15.9350414  67.7357712  11.4528866  73.2966385  58.4196091  61.1714973
  73.6816177  59.0858078  61.7408829  73.9608002  58.2659836  60.4995422
  48.1913757  38.8013954  29.0606232  48.2565117  39.1992874  29.9287663
  47.8190727  39.4894753  28.5091114  86.1124115  54.4263802  67.5136795
  86.3143692  55.0327950  66.8011398  85.1801529  54.5599098  67.6848373
  76.4300461  23.2413406  20.9527531  75.5886993  22.8241558  20.7674618
  76.2677383  23.7717342  21.7328606  71.1489868   2.6040354  49.5148315
  70.6622620   1.8874724  49.1075592  70.4793549   3.2483211  49.7444420
  16.3379536   6.6018591  68.7178192  16.5422211   7.2162809  68.0128403
  15.3819408   6.6012392  68.7654800  12.3539963  50.6867027   0.1907061
  11.9324455  51.0518341  -0.5872443  13.0177670  51.3337440   0.4294125
  31.4378929  48.0813980  41.8244553  31.6905251  49.0030403  41.8790588
  32.0567932  47.6290359  42.3976593   7.8940625  31.0888519  25.5468521
   7.8340364  30.3451500  24.9472389   8.8337460  31.2435760  25.6432228
  17.0444813  65.4078140  14.9315147  17.4546337  64.7539139  15.4975700
  16.1220798  65.4011688  15.1871767  34.8506851  64.7678833   3.6791430
  35.0353203  64.4975662   2.7796583  34.7876282  65.7219543   3.6343637
  75.9610291  56.7263680  19.8565044  76.4037781  57.2989426  19.2301102
  75.4918365  57.3247833  20.4378719  18.6906548  47.5899048  28.9734459
  19.5938568  47.2760010  28.9295807  18.1701622  46.8733864  28.6102428
  18.0285168  58.2327499  26.9874210  18.0452957  57.3809738  27.4238033
  17.1594486  58.5840492  27.1811790  61.6401863  37.1500740  14.7827272
  61.1723709  36.6966133  15.4839802  61.3053703  36.7556572  13.9773912
  82.8179092  18.1454506  60.2863922  83.0081100  17.6937523  61.1086006
  82.8174438  17.4519234  59.6266594   4.8906803   2.4126914  46.0756950
   4.9344087   1.7333550  46.7486153   4.2685909   3.0527101  46.4215469
  39.9138260  15.5735378   0.7354254  40.5548820  15.1803961   1.3276405
  40.2845993  16.4277916   0.5140463  76.3672485  36.7994576  27.4956493
  76.3263245  37.4221535  26.7698326  75.5037384  36.8520317  27.9053078
   1.2603359  10.5950594  62.6411591   0.4920211  10.0405931  62.5051765
   1.9882745  10.0880175  62.2816544  30.2276154  17.8952923  88.2230606
  29.9847965  18.7401447  87.8442535  31.1424503  17.7730999  87.9693375
  48.8134995   7.3205714   9.6451588  49.2769012   6.4835019   9.6735277
  49.3507996   7.9098482  10.1745863  39.7747803  47.2946358  35.4673920
  39.1497231  46.6002808  35.6757202  39.2380524  48.0827179  35.3832054
   3.5096018  -0.2209002  78.9750443   3.8572488   0.6685978  79.0395966
   2.7390196  -0.1367190  78.4134903   9.5589571   3.5384488   6.0097027
   9.9337139   3.3552086   6.8712201  10.2962418   3.8611169   5.4915047
   2.2687314  29.7247963  53.7039757   1.5959996  29.2048225  54.1436234
   1.9358414  29.8443413  52.8145218  23.3309612  53.1384201  49.9487991
  24.0208282  52.7902794  49.3838959  22.8580303  52.3642731  50.2541885
  38.6194420  57.0206261  47.8210754  39.4161797  57.0453224  48.3510094
  38.5367012  57.9078636  47.4715080  59.2728424  29.4924831  67.4038620
  59.7992096  28.6933346  67.3807220  58.5861473  29.3085060  68.0448227
  26.0156612  52.2480812  20.2599812  25.3336105  52.6637077  20.7875118
  25.5631695  51.9602890  19.4671021  57.3894997  27.6979389  37.9943161
  57.5321198  28.4790192  38.5289230  56.7170372  27.9581070  37.3647614
  62.0974236  42.2480087  44.7733154  62.3981819  41.3794937  45.0406227
  61.1507339  42.1521301  44.6692886  46.4338608  35.4355087  71.7179794
  46.0381355  34.6123161  71.4316406  47.1487198  35.5855408  71.0993500
   4.3118153  70.2092209  43.1268425   5.2539611  70.3755188  43.1574707
   4.2273536  69.4028168  42.6181068  70.6433182  12.6346798  46.8028412
  69.8146515  12.9617329  46.4527359  70.5522003  11.6820240  46.7834129
  59.1318893  44.6987000  79.9374924  59.9847145  45.0312920  80.2173233
  58.8030090  44.2151260  80.6952667  68.9860077  40.2349014  64.8561859
  69.8651810  40.4701500  64.5596390  68.4203491  40.9162064  64.4927521
  78.8535004  46.6547890  12.7597980  79.6933823  46.2197418  12.6129704
  78.4932785  46.2246056  13.5353069  79.6204910  13.5865688  82.3572235
  78.8438263  14.1460447  82.3528671  79.8583145  13.5141344  83.2815781
   1.7549262  22.0466270  52.6279373   1.2027051  22.2165222  53.3911018
   1.1522520  21.7047024  51.9675598  51.7910767  27.4086494   0.5745623
  51.2921867  26.5917416   0.5755716  52.0461235  27.5346642   1.4885118
   6.0857115   7.9010277  37.6201439   6.3544021   8.7675514  37.3149033
   5.3516273   7.6643858  37.0532646  69.1154938  25.2443542  68.6527176
  68.4976501  25.9178982  68.9370422  69.9739151  25.6621284  68.7220764
  10.2550507  17.6567745  69.2818375  10.3067007  17.7313404  70.2347336
  10.8980284  16.9835835  69.0590744  68.1814423   4.8423295   9.3943367
  67.7090912   5.2869253   8.6904545  69.1003113   5.0640230   9.2434530
  78.1868591  45.1015396  14.9567013  78.4239883  44.3218269  15.4587450
  78.1047821  45.7933044  15.6131754  71.9013290  11.2163401  30.0583115
  71.3566742  11.6911964  30.6860771  71.4523468  11.3266010  29.2201653
  83.2118073  10.8777161  34.9053421  84.0852127  11.2692204  34.8945160
  82.9263458  10.9541311  35.8157845  52.4517937  63.7577515  27.0333939
  52.5938873  62.8236847  26.8799152  51.5428314  63.8165779  27.3276100
   7.4921002  32.7176628  32.0825653   7.1102047  32.3335533  32.8717728
   7.3018556  32.0834389  31.3913345  50.2342758  11.1437922   4.6449556
  50.7938194  11.9164371   4.7234430  50.5156403  10.5708475   5.3582582
  29.8238430  65.5897369  17.4088898  30.7521820  65.8227844  17.4191856
  29.7822800  64.7950668  16.8769112  52.1490288  22.7601910  25.7786140
  51.9681244  21.8221931  25.8391590  52.9587860  22.8156834  25.2712231
  15.2311811   4.2401547  40.5701523  15.8461571   4.8224177  40.1240540
  14.4180326   4.7427711  40.6191292  39.7949295  17.9880772  26.4853859
  39.1320114  17.2978592  26.5045853  39.5732574  18.5117226  25.7153931
  78.3937149  68.3959579   2.2757986  79.0772552  68.3565979   1.6068730
  77.8825684  69.1732559   2.0504804  83.8289566  24.0608616  27.9269371
  84.1135941  23.9893284  28.8380337  84.5619736  24.4836044  27.4794960
  77.3608551  46.2047424  52.4707756  77.8373337  47.0348549  52.4600754
  76.5629807  46.3801117  51.9719048   5.6516104  66.8399048  50.8756905
   6.1155772  66.4853439  50.1172371   5.8672309  66.2404404  51.5900993
  16.9523354   8.3589258  18.6259403  16.7586327   8.4874058  19.5544910
  17.8824482   8.1338739  18.6042080  58.4141197   7.5771255  13.9630432
  57.9581146   6.7477717  14.1060886  59.3421173   7.3576078  14.0459089
   4.0432649   4.0103221  23.5199299   4.7804174   3.8140180  24.0981178
   4.4318166   4.4977727  22.7935333  63.7377205  42.3409691   6.8941593
  63.1180649  42.6731567   6.2446127  64.5071793  42.9025307   6.8002553
   0.9545011   3.4211993  88.8814011   0.7504042   2.4873371  88.9311752
   1.4366866   3.6042919  89.6877518  78.5171509  61.3614731  83.0440292
  77.7529831  61.1309128  83.5723419  78.5066376  62.3180923  83.0123520
  67.7415390  47.3369255  82.8761139  67.2781830  47.1724930  83.6973877
  68.2034836  48.1623383  83.0228424  81.9735260  51.8292084  58.9096832
  81.3353271  51.3607101  58.3716774  81.9517670  51.3786812  59.7539482
  74.0011215  50.1014061  38.6220245  73.0482635  50.1809540  38.5775948
  74.1538696  49.1915817  38.8771973  34.5216179  46.5299110  70.9266663
  33.5947838  46.6934204  70.7520981  34.5262756  46.0170555  71.7348709
  51.8042755  13.4497719  23.2727737  51.9302063  13.4664001  24.2215080
  51.0054321  13.9569187  23.1282711  43.5999031  29.6548882   0.3820927
  43.4895859  30.5714588   0.1291900  44.2698441  29.6739597   1.0654987
  80.8150482  68.7001801  63.5371513  81.1815567  68.6216736  64.4179077
  81.0537567  69.5835495  63.2562523  70.2489090  55.1525154   8.2108936
  70.2344055  56.0446129   7.8642154  69.9261398  55.2388573   9.1078873
  32.8045578  65.1787491  52.5393829  33.6807976  64.7956924  52.5806541
  32.9101067  66.0578766  52.9030190  24.4952297  66.6149368   5.0867739
  24.7661552  67.2962341   4.4714150  25.1024628  66.7007675   5.8217120
  17.0202713  39.5108414  82.8293533  16.4868393  38.8436394  83.2612381
  17.8775387  39.4409676  83.2494049  44.3851585  26.2902946  79.3519287
  44.0065880  27.0141296  79.8508987  45.2960930  26.2493095  79.6430435
  71.0411682  64.4905243  62.7271996  71.5266953  65.1458511  62.2261581
  70.5913315  63.9669456  62.0640640  30.0580177   7.2957168  48.1170273
  30.9103756   7.1889691  48.5393105  29.7484303   8.1509819  48.4152069
  79.7581863  21.8361225  37.3940735  79.8291779  20.9958858  36.9410896
  79.9955597  21.6403751  38.3004761  84.3477020  44.0403023  50.1593094
  83.6810455  43.7015686  50.7568512  84.3148193  43.4516296  49.4052429
  67.6746063  55.9449654  64.5107193  67.1359940  56.1786118  63.7547150
  68.2769775  55.2791176  64.1790314  11.1623898  17.0816498  82.8028336
  11.6236639  17.6692753  83.4012985  10.4242210  17.5989590  82.4807663
  61.0932350  57.2093277   4.2082376  61.4175835  57.2840996   5.1057000
  61.4634209  56.3869362   3.8875105  54.5855560  12.3317719  36.7670746
  54.4445114  11.9883251  35.8848152  54.0030556  13.0890961  36.8252411
  64.4793320  63.9905663  10.8933487  63.9330826  64.2049713  11.6495743
  65.2438812  63.5520859  11.2667599  46.1265640   0.9271142  49.1397591
  45.9799881   1.4879038  48.3780098  47.0785103   0.8449953  49.1970940
  60.2325935  35.4202042  38.7969131  60.7493362  36.1923866  39.0270157
  59.3755913  35.5788918  39.1926346   7.2025118  70.6501770  58.2353935
   7.1921024  69.7311325  58.5027618   6.8277063  71.1205139  58.9800644
  70.8443298  68.2245255  12.2749290  70.3011703  67.5278091  11.9064093
  70.2482147  68.7223740  12.8344126   3.6171730  11.9437094  47.4835129
   3.9247117  12.4817028  48.2130432   3.5717788  11.0573511  47.8420372
  11.3136902  32.4651108  42.6412544  11.6069860  33.2693176  43.0695763
  11.0354881  31.8983231  43.3606911  43.0149460   9.2068243  17.9661503
  42.6638756   9.6515427  17.1946545  43.5524063   8.4989862  17.6107178
  62.9057961  64.8261871  25.8215675  63.8266411  64.8663483  26.0797634
  62.8202705  63.9869652  25.3692093  15.0295973  65.1468353  80.3241882
  14.6184759  64.6899719  81.0580063  14.6083746  64.7795181  79.5470886
  70.9522018  50.7547607  72.9010773  71.7998276  51.1757355  73.0443878
  70.3231964  51.3271255  73.3403778  83.7670135  64.9172821   5.2912793
  83.6211624  64.9868927   6.2347379  84.6715012  65.2047806   5.1668935
  42.9804344  70.8125076  31.6747169  43.1755524  70.0342941  32.1967735
  42.2463493  70.5503693  31.1191673  82.7417145  23.4384499  31.1252689
  83.0370331  23.0484276  31.9480095  82.0610123  22.8442841  30.8092823
   3.8602457  61.1060410  65.3670807   3.3953364  61.9426994  65.3575134
   4.7000742  61.2938957  64.9479980   4.5545363  66.9226913  39.1289825
   3.8619599  66.4675522  38.6500092   4.7560911  67.6873322  38.5895996
  46.0742188  50.5453911  69.3007431  45.6055260  49.9079514  68.7620163
  45.9734192  51.3744431  68.8330460  23.5609627  39.8542671   0.7246886
  23.3093491  40.6017075   0.1822339  22.7365799  39.5386734   1.0948551
  20.1536865  42.8279915  63.5968170  20.7041378  42.4875412  62.8916016
  19.2586422  42.7217712  63.2745667  64.7150040  34.3818512  16.2379761
  63.7622414  34.4634781  16.2804699  65.0280914  35.2806396  16.1360474
  22.0552540  16.1926270   2.9789081  22.4940147  15.4502583   2.5634437
  22.5276623  16.9605618   2.6574435  81.6209869  43.0581322  77.4781647
  81.1784058  42.2700462  77.7932510  80.9659576  43.5013008  76.9389343
  82.1895752  48.0693665   8.1298866  82.5330429  47.1900139   8.2880058
  82.9686127  48.6185036   8.0416975  86.4845581  40.6449203  32.2551270
  87.1498032  41.1865387  32.6797829  86.7858353  40.5608826  31.3504715
  67.3478317   8.0011873  69.0802536  67.9927444   7.9058690  68.3793716
  66.9044876   8.8272362  68.8870697  82.6723175  39.1189690  72.2288818
  82.9541931  38.2046089  72.2558594  81.8595276  39.1340446  72.7342300
  63.1016617   3.0015535  81.2246094  62.3896065   3.5351572  80.8717957
  62.7817383   2.1017711  81.1592331  59.7522774  47.9084206  14.8934593
  60.4620972  47.2844315  14.7417259  60.1490097  48.5975723  15.4262867
  48.4735374  54.0416985  88.9841614  48.2945518  53.4711876  88.2366867
  49.2787094  54.5017548  88.7469330  31.6268921   1.0770526  33.3746948
  30.9965172   1.7966948  33.4059219  32.3744011   1.4340708  32.8951149
  70.7122192  22.3065891  17.0510693  70.9756699  21.3980198  17.1970940
  69.8603668  22.2425117  16.6192322  74.0286636  43.4527016   3.0394387
  73.4347534  42.8051186   3.4190865  74.9040070  43.1245117   3.2451189
   2.5451751  55.3727226  55.1099205   2.5983615  54.6026192  54.5439301
   1.9658587  55.9742203  54.6421280  10.8902540  33.7986679  86.5869598
  10.9310617  34.7442245  86.7301178  10.5944510  33.4421539  87.4245911
  70.8878708  40.5765877  32.9704094  71.7092590  40.1033134  32.8378754
  71.1282272  41.4998665  32.8928261  26.8798676  59.5512886  23.1781483
  26.5952930  58.9079170  22.5290527  27.6088409  60.0083542  22.7587185
  64.9052505   2.1051683  59.4783516  64.1004333   1.6180664  59.3016319
  64.8386078   2.3512163  60.4009857  51.0968628  14.2483788  19.7596436
  50.7197037  15.0070829  20.2050056  51.2622299  13.6172638  20.4600563
  15.1251230  51.0290298  70.2629700  14.6689758  51.6736259  69.7219849
  15.0626802  51.3760262  71.1528702  66.5132751  12.6466265  61.3065491
  67.3911743  12.8505688  60.9841766  66.1274414  12.1005993  60.6215591
  26.0404930  17.2502537  85.3125153  25.4576073  16.5211773  85.1005707
  25.8917294  17.4128551  86.2439957  33.5539093  36.0601082   5.0653005
  34.3911285  36.4361458   5.3371339  33.7861671  35.2213097   4.6669235
  56.0418739  30.5117970  35.5126610  56.9495621  30.5719147  35.2148056
  55.9869728  31.1314831  36.2401276  72.9934998  21.0020161  66.0350952
  73.6700516  20.9087410  66.7057724  72.1817932  20.7538223  66.4775543
  10.9927816  30.5485020   5.4816914  10.9415073  30.0484486   4.6671062
  10.4626427  30.0492916   6.1029587   7.7275510  39.5592499  12.4533644
   7.6369891  40.2444763  13.1155510   7.3263264  38.7868080  12.8515940
  37.9078598  68.0365677  85.4479218  37.2263832  68.1262207  86.1140976
  37.8621483  67.1185989  85.1805573  75.8775177  42.6154480  14.8120098
  76.6276779  42.5874252  15.4058962  76.1493912  42.0923805  14.0578766
  66.5115814   0.0088994  29.4537163  65.9055634   0.2620763  28.7573872
  67.0667648   0.7784238  29.5795708  84.6004410  39.6813889  23.8953094
  84.0900421  40.3514595  23.4406357  83.9723434  39.2578049  24.4803734
  11.6944637  15.3667421  59.6021347  10.8720570  14.8926058  59.7249069
  11.4408703  16.1744976  59.1555328  46.1775894  64.3041916  63.6163902
  46.5177460  63.6079140  63.0544968  46.9154510  64.9035645  63.7283630
  47.8496704  60.0770111  36.7918663  47.8025665  60.6216698  37.5775909
  47.7792587  60.6970634  36.0660477   6.1549945  59.7470436  42.2853088
   6.4716339  59.2696075  41.5184822   5.6890917  59.0892143  42.8014755
  64.6670914   3.8379188  78.9739075  64.7328415   2.9362912  78.6593018
  63.9575806   3.8163865  79.6160660   3.4887993  53.3779564  88.5510788
   3.2634845  54.2565079  88.8570404   3.8922677  52.9562531  89.3097687
  68.0389023   9.1729050  79.1231995  67.1234741   8.9913292  79.3359604
  68.0024872   9.6431131  78.2902527  77.6773911  32.4164467  83.6590042
  77.3809967  33.1669159  84.1739578  76.9571991  32.2423630  83.0529861
  77.8528442  14.0510750  30.7727795  78.5031967  13.6359987  31.3393345
  78.3456726  14.3150930  29.9958324  23.9425220  44.1787567  47.5896378
  24.0086975  43.6905556  46.7689590  23.0046329  44.2020416  47.7795143
  69.7929153  34.4716988  69.5005188  70.0508270  33.7638435  70.0909882
  68.8482971  34.3611450  69.3923187  69.1530762   0.7963277  15.1580391
  68.5045395   1.4722133  15.3550453  69.6386642   0.6848367  15.9753551
  18.5298920  36.0856171  24.9721203  18.2126522  35.1863022  24.8895416
  19.1277237  36.1975250  24.2329960   8.1281071  18.9266453  14.1549911
   8.5709429  18.2998161  14.7270184   8.1739225  18.5306129  13.2847652
  11.6432581  31.3132076  45.3129082  11.8264875  31.9111958  46.0375252
  12.2251959  30.5683956  45.4640236  84.6285706  63.7393494  30.8810863
  83.9466629  64.3224716  31.2145576  84.2348328  63.3247566  30.1134186
  14.1551123  60.1544685  18.4588375  13.3339729  60.0439034  18.9381485
  14.3954315  59.2684441  18.1878471   5.6169515  26.1937561  61.6587029
   5.1075201  25.4019241  61.8310776   6.3019443  25.9107323  61.0529709
  62.5702133  10.9097376  84.7339478  62.1373482  11.4798622  85.3694153
  63.4559021  10.7958612  85.0786514  26.0701046  47.9436874   6.8476863
  26.2639446  48.7875137   7.2558670  26.7093925  47.3412170   7.2279124
  56.2663765  25.2139587   7.3207464  57.0918350  24.9890461   6.8914847
  55.6199341  24.6369362   6.9140682  26.2109680  57.6800423  35.8060608
  25.5171223  57.3627129  36.3840866  25.8474846  58.4705811  35.4071121
  18.8355751  69.8858261  86.5072403  18.9332294  69.1761169  85.8724213
  18.2661648  69.5234146  87.1859589  86.5590363  26.2599277  86.6296005
  86.9024429  26.3167133  85.7379303  86.4984741  25.3206215  86.8035736
  50.4145126  23.8311062  69.4615326  50.0700493  24.6127815  69.0296097
  50.0154648  23.1007175  68.9887543  31.8660946  33.5711899  83.6354294
  32.2604141  32.7103729  83.7759171  32.5877533  34.1880379  83.7576447
  54.1842308  31.5377483  18.5561543  53.9997749  31.6324043  17.6216755
  53.3211250  31.5108643  18.9691353  55.3371239  51.8671722  74.5673676
  55.9712563  51.5493240  73.9246521  55.8517036  52.4132004  75.1617508
  80.3321075   4.7516341  15.5232086  80.3153381   4.2087440  16.3113842
  80.8033524   5.5420132  15.7867680  31.8359833  53.9653091  69.9683151
  32.6472702  54.4631844  69.8674774  32.1246567  53.0756607  70.1718445
  25.4020901  58.2975540  30.1697769  26.1192169  57.7841034  30.5417042
  24.7220688  57.6528320  29.9744892  33.7130928  14.7050133   5.6107888
  34.2706108  15.4506998   5.3886280  33.0150948  15.0795279   6.1481628
  41.4942322  55.3112946  75.4615021  41.8571358  55.1195374  76.3262329
  40.9695511  54.5403595  75.2456207  35.8340034  24.6580849  21.0454712
  35.6128311  25.4702988  20.5898151  36.7190475  24.8042164  21.3795033
  37.9124832  63.9895782  77.3931046  38.7014236  64.4047623  77.0446472
  37.7945709  64.3859634  78.2563629  75.5536346  47.3866272   6.9498153
  75.2002411  46.7970161   6.2837033  76.0707626  48.0231590   6.4562154
  21.0890408  22.1029873  74.7404022  21.7822990  21.4433136  74.7617035
  20.2808342  21.5982361  74.6495132  38.8077888  54.6976471  41.4642677
  38.9497757  55.6381721  41.3571281  39.3108902  54.4668999  42.2452126
  13.4922895  64.7457962  40.8920670  13.4650478  63.7902718  40.9416771
  12.5818138  65.0042572  40.7490120  24.6115074   1.9457285   3.0512214
  25.0782089   2.5955970   3.5766654  25.1300125   1.1463784   3.1429989
  71.7636032  70.2174911  55.6363373  71.6485901  69.3789444  55.1893044
  71.8498993  70.8562851  54.9287186  32.1248894  16.6575851  20.8170586
  31.9968777  16.8657265  21.7425442  31.3324127  16.1827774  20.5665112
  31.5418167  28.7434425  82.4088669  31.9567432  29.1460838  83.1717224
  31.8877964  29.2322617  81.6621475  15.0617208  29.6986008  79.2529144
  15.5105534  30.5254364  79.4293365  15.0480919  29.2485027  80.0975800
  13.0868158  39.1350021  73.6453629  13.9646873  39.1325531  74.0269012
  13.2257872  38.9187469  72.7233276  65.1154480  44.9572945  44.8370209
  64.3654785  44.5643730  45.2835541  65.1883621  45.8329811  45.2166176
  14.6297979   8.2331600  23.0584850  14.6505013   7.2778511  23.0020161
  14.1641588   8.4147997  23.8748283  13.4624414   8.6698847  28.4047165
  12.7746449   8.0400391  28.6202717  13.0173063   9.5172472  28.3967590
  73.7883987  30.0269127  46.4107437  74.3758545  29.5264015  45.8445168
  72.9534683  30.0344925  45.9426994  81.2150421   3.7362826  26.3632412
  82.1426620   3.8637331  26.1644783  81.2035446   3.0321178  27.0115089
  18.2988911  58.2829628  17.5890560  17.4300747  57.9732018  17.8448677
  18.8000031  58.2910423  18.4045639  79.4773712  70.9235687  69.1869354
  79.8135376  71.2064667  70.0373383  79.8214798  70.0372543  69.0761642
   2.1317856  37.9955750  34.9447098   2.9559262  38.4709282  34.8395348
   1.9762919  37.5937424  34.0899658  12.5822296  49.3139191   2.3665431
  13.3461714  49.8499985   2.5792487  12.2329073  49.7023163   1.5644495
  66.6416168  39.6104469  18.2690716  66.2320404  38.7453041  18.2671089
  66.9978790  39.7087822  17.3861027  65.3610458   2.8503747  49.6220665
  65.0984879   3.7668495  49.5362091  64.8718338   2.5311067  50.3803406
  32.6386871   3.3791001  19.2933865  32.0457268   2.6526716  19.4855556
  33.2437057   3.0279944  18.6400051  43.1037788  35.8728333  19.0240669
  43.5034332  36.3079681  18.2709656  43.7684555  35.9242706  19.7109394
  61.0542755  57.3958435   6.9085202  61.0642548  56.7534180   7.6180444
  61.8335609  57.9309311   7.0589237   9.4365711  56.9783134  71.4869385
   9.6853695  57.5299568  70.7453079   9.5699854  56.0832405  71.1750565
   0.6735515  17.4154701  51.0096359   0.0273632  17.6488152  51.6761360
   0.1861181  16.8861504  50.3783989   6.1777086  68.4202652  85.6275787
   6.7956991  68.6554718  84.9354782   6.3166299  69.0799789  86.3070755
  85.8604050  45.4676476  25.2653885  85.2819748  46.1927528  25.0290146
  85.8906174  45.4873886  26.2219086  56.6186447  33.4553833  14.8739557
  56.5857124  33.1704712  15.7871771  57.3847580  33.0103378  14.5116911
  71.8043900  55.9490395  44.8470154  71.6141434  56.3899803  45.6750298
  72.4041443  56.5408211  44.3927956   8.0052967   8.0040789  49.5081787
   8.2941580   7.8005700  50.3977737   8.4303112   7.3433752  48.9613113
  73.4735489  68.3439865  56.6094971  72.8919067  67.5881500  56.5280685
  72.8831558  69.0945358  56.6754112  46.9354286  51.3726616  73.3737030
  47.1087341  51.6290779  72.4679184  47.8034325  51.2737274  73.7648773
  75.1371307  40.8151016  44.0085144  75.7205658  41.1634483  43.3343544
  74.2573700  40.9455414  43.6546211  43.9262505  59.5227737  19.6563320
  44.7136688  60.0477524  19.5127850  44.2347946  58.6169624  19.6332264
   6.4281039  64.6242447  12.5703821   6.6044240  64.6737289  13.5099001
   5.4733944  64.6446381  12.5044603   4.8360271  29.8494434  53.4064789
   5.1160245  30.7508163  53.2472229   3.8803151  29.8849392  53.3666534
  12.9211931  36.9211044  38.0871429  12.7286148  35.9854851  38.0258331
  13.2358360  37.1585350  37.2148705  81.0478973   9.4940920  21.8135700
  81.0473862   9.4665346  20.8567677  81.0298996   8.5747986  22.0796680
  47.0859756  48.1737556  76.6697464  46.8293839  47.2706223  76.8561401
  46.9788284  48.2625999  75.7227249  73.3519058  38.5060310  60.7850037
  73.3015900  39.2020531  61.4401779  74.2770081  38.2609177  60.7665253
  28.7884235  34.5849113   0.0543608  29.2324696  35.4319878   0.0933088
  27.8619518  34.8044510  -0.0440450  84.4129333  71.3163605  49.7276764
  84.4833755  70.4860916  49.2565842  85.0101700  71.9050293  49.2661552
  33.6370735   9.2031879  39.0122833  33.0098228   9.4356327  38.3276253
  33.2556801   8.4339333  39.4353867  71.9737778  63.7936935  39.4679756
  71.5938187  63.4984245  38.6405220  71.2435532  63.7762146  40.0865936
  83.5805588   7.8057017  16.0428638  84.1562729   8.5600300  15.9172783
  82.9750748   7.8405976  15.3023176  69.3176346  49.5782967  15.2124491
  68.7683182  49.3965950  15.9749918  69.9960480  50.1682091  15.5410709
  27.0694580  59.2939568  85.6283417  27.0960102  58.6327820  84.9366989
  26.4639378  58.9368134  86.2779770  25.2836037  65.5276642  84.3663788
  25.6733570  65.2326508  85.1893539  26.0209389  65.8709030  83.8616486
  48.7978935  60.0166817  66.0692673  49.6171570  59.6643677  65.7215500
  48.6056480  60.7706299  65.5117416   1.0096711  22.6273460  34.9520798
   0.3550065  23.2614307  35.2446251   1.3608661  23.0012302  34.1439323
  45.6958275  67.1735992   8.2395592  44.8620949  66.7062683   8.2916832
  45.7086258  67.7283401   9.0195169  29.8338680  13.3704433  78.5032272
  30.0292854  12.8532896  77.7218246  28.8837471  13.3073339  78.6007843
  60.3917503  57.2658005  39.4891319  59.9677429  56.4124794  39.5801849
  60.2656975  57.6877899  40.3389931  75.6306839  24.6671181  44.9328842
  74.8737488  24.5252132  45.5013390  76.2787628  24.0300541  45.2335129
  62.9513321  54.6386986  28.9449062  63.7835350  55.0554352  29.1685200
  62.3176422  55.0321159  29.5448151   9.9143057  39.4111443  57.9186478
   9.1900511  39.9076385  57.5376244  10.6393337  40.0350266  57.9551620
   3.1054122   5.8589134  34.3476295   4.0207529   5.6345992  34.1800995
   2.9079120   6.5484419  33.7137718  44.3087425   7.6241522  76.4656067
  43.6753044   8.1123037  76.9916229  45.1620407   7.9193597  76.7833633
  76.5704346  20.1987152  64.9507675  77.1184921  19.6951199  64.3488922
  76.4901199  21.0589657  64.5387573  10.0805244   9.7350311  76.4778061
  10.5824718   9.6375113  75.6686249   9.4161940   9.0474339  76.4319077
  44.4666443   3.4048858  78.1856918  43.8756790   2.8752382  78.7209167
  43.9024315   4.0717330  77.7942734   0.8733169  64.1167297  12.9651794
   0.9098259  64.9916306  12.5785875   0.9814939  64.2652664  13.9045763
  44.1759033  54.9720192  26.8409805  43.5953522  54.3595505  26.3892326
  44.0019341  54.8254547  27.7707577  61.1820717  27.2483616  67.2765808
  62.0016479  26.8129063  67.0422592  60.7370415  26.6270981  67.8529587
  31.8393517  44.8070145  26.5664749  31.1237602  45.1024590  27.1293926
  32.1046677  45.5907097  26.0851612  84.4281464  57.5777168  66.9716797
  84.2495651  56.7298965  67.3785477  83.9436951  57.5541611  66.1464691
   2.6369936  49.3423843  65.2977295   3.4319947  48.9022560  64.9969101
   1.9928241  48.6398201  65.3853683  72.8241653  56.8983116  80.8859787
  73.4778366  56.3595085  81.3316650  72.5266876  57.5156898  81.5542450
  53.6213112  48.3056564  59.2519073  53.9523697  49.1999702  59.3345871
  52.6765251  48.3869896  59.3822784  29.9294491  51.3031845  38.1873093
  30.0034084  50.3511772  38.1206131  29.6412411  51.4585991  39.0867653
  11.1217508  38.9296494  65.7102890  11.4902925  38.8891792  64.8278046
  10.1994743  39.1471786  65.5749435  77.7201538  19.9206696  60.5233459
  78.0257339  20.1925793  61.3887444  78.5200272  19.7057762  60.0434990
  25.6154232  18.8021660  13.3137693  25.1434727  18.0781841  13.7252827
  24.9466400  19.2711678  12.8147707  68.4833374  65.4765015  66.5499420
  69.1415329  64.8096695  66.3541107  68.1174240  65.7096939  65.6967392
  73.4254074  29.8714943  89.3650208  73.3376694  29.7272568  88.4228210
  72.5744247  29.6225529  89.7256927  11.9322386  65.3134308  47.2836266
  12.6015749  65.0237350  46.6637077  11.8235846  64.5739975  47.8816795
  24.2811127  55.6587219  51.5246506  24.2422390  54.8041229  51.0952492
  25.1653271  55.7039757  51.8884468  56.5109482  63.3344917  32.8970757
  56.7440147  62.6042786  32.3237534  57.2621384  63.4282875  33.4828682
  34.1588287   2.4535148  73.4337997  34.3484421   2.9270020  74.2437973
  35.0159531   2.3160594  73.0304718  31.2758331  50.6093712   8.0661125
  31.7966366  51.2404327   7.5693669  31.8620262  50.3090248   8.7606640
  84.8389130  45.0689049  74.2187653  85.5476990  44.5558472  73.8306580
  85.2591858  45.5648880  74.9213333  37.2166443  45.0483742   3.1168718
  36.4734459  44.6232719   3.5448639  37.9223022  45.0035744   3.7620633
  62.8913651  30.8265343  33.8963509  63.2291870  30.8874779  34.7898827
  63.3644371  31.5050507  33.4146385  75.1653137  58.1570816  39.3338203
  76.1003571  58.2109489  39.5313759  74.7334595  58.4355316  40.1414108
  16.1513386  57.7737541   0.7677979  16.6566811  58.4175873   1.2641214
  15.3843584  58.2568092   0.4601750  78.4533691  50.9327087   7.7369399
  77.7790527  50.9617996   8.4156723  79.1552429  50.4058380   8.1190577
   3.6702962  32.5442657  32.0124931   3.8177850  31.8512383  31.3689137
   3.8643513  32.1338196  32.8551712   6.6016803   3.5492232  15.4559803
   7.5376835   3.6664481  15.6184235   6.1756506   3.9333436  16.2222576
   9.7182493  15.5921793   2.4004271   8.8564234  15.7338591   2.7921088
   9.6452751  15.9622393   1.5206759  79.3342743  63.8449059   3.0661271
  79.1275101  64.6594086   2.6077926  78.7192459  63.2052956   2.7071421
   3.6439095  43.2485199  19.1920776   4.0379272  42.5144463  19.6633701
   3.6006422  43.9528389  19.8388329   6.9194183   3.4343729   9.3294115
   7.7928071   3.8160224   9.2412739   6.4439368   3.7437272   8.5584059
  22.3815670   6.7544732   5.5756574  21.4573879   6.7860327   5.8228965
  22.7398376   7.5878458   5.8812127  23.4760799  53.7159271  23.6559582
  23.8567963  53.0917854  24.2738056  22.9069195  54.2674294  24.1927357
  21.5205269  64.3045883  45.3171654  22.0696964  63.7898560  45.9085197
  21.6310806  65.2080994  45.6132507  32.4663658  56.5766792  63.9772377
  32.0910225  55.7359161  63.7155762  32.8657150  56.4056282  64.8301697
  18.6350403  52.1418610  75.0371628  18.4783077  52.0085411  74.1023407
  18.2157135  51.3922424  75.4596176  42.0006828  65.4590607  38.5925102
  41.9695396  66.4115524  38.6821136  41.1845741  65.2336884  38.1459618
  79.9084015   6.6946416  42.1238365  80.7296753   7.1262121  42.3593864
  79.2692490   7.0393596  42.7474403  68.9605560  66.5106506  62.0036201
  69.4811020  66.2118454  61.2579803  69.5509796  66.4357300  62.7532997
   9.7170582  52.6787262  63.5512772  10.0864687  52.1716080  64.2741928
  10.1691303  53.5213509  63.5942268  53.2441444  24.1520061  69.7123566
  52.2963333  24.0564957  69.8059540  53.3554115  24.6619434  68.9099731
  29.5058937   1.7315853  59.8988266  30.0417957   1.2249922  60.5090752
  28.8945389   2.2109814  60.4579811  62.3581009  69.0585022  82.2396393
  62.6938782  69.5780411  81.5091858  62.7203712  68.1839066  82.0979691
  12.0223980   9.7610188  82.8125153  11.6951847  10.5404673  83.2615433
  11.4691248   9.0492640  83.1342697   4.7559299   9.4444485  79.7100525
   4.8298688  10.1533747  79.0711517   5.1204190   8.6803989  79.2632751
  58.5225906  66.4905853  19.6735516  58.4140968  66.8208466  18.7817039
  58.6970177  65.5558929  19.5632744  36.8563156  44.9085045   6.2665763
  36.5123024  45.2814598   5.4549179  36.1317062  44.3915558   6.6186180
  54.8468323  55.6692505  81.1797562  54.5064011  55.2626915  80.3828583
  55.3559875  54.9777908  81.6026993  10.6445274  49.6621284  54.9030914
  10.1614799  49.0672493  54.3294907  10.3606920  49.4263649  55.7863159
  51.2782516  19.7793121   3.1255805  52.1425285  19.8388767   3.5326569
  50.8074722  19.1364517   3.6559832  56.4032288  40.0175705  34.8997116
  56.7367821  39.2782249  35.4079857  55.5486832  40.2081032  35.2866020
  12.9700956  13.6950951  62.5816994  13.2889271  14.4904528  62.1551018
  13.6215334  13.0286121  62.3633804  48.1376114  13.0513296  87.9879837
  47.6101799  12.5370007  87.3768234  48.2420883  13.9003382  87.5584488
  43.6167679  26.3582630  13.1256104  42.6660538  26.4409523  13.0511971
  43.7801628  26.3120575  14.0676289  25.4171295  55.8839684  13.2772894
  25.6887054  55.6746941  14.1709795  25.4062347  56.8406601  13.2480927
  40.5675125  41.7968102  71.1834564  39.6246147  41.6368904  71.1433945
  40.6584892  42.7353058  71.0185928  83.3202972  67.8119278  49.2785149
  83.3912125  68.4227829  48.5449905  83.8424377  68.2114105  49.9742241
  72.1831665  18.1199112  23.2082481  72.5992050  18.8841820  22.8094521
  71.2931900  18.4093113  23.4092999  86.8354263  60.4170074  88.7251358
  85.8851929  60.4414368  88.8377762  86.9742737  60.6571693  87.8090210
   1.1158925  47.3751450  66.6587143   0.3354650  46.8470650  66.8269348
   1.4446179  47.6006851  67.5289459  46.0945549  44.1668243  11.4595633
  45.4113884  44.1608162  10.7891293  46.7818413  43.6019936  11.1062469
  17.0369949  46.8752327  83.9089050  16.6573639  47.4468575  83.2415543
  16.5132751  47.0414047  84.6927032  29.6188354  24.3170567  82.6043701
  28.8329067  24.3814526  83.1469574  29.7938385  25.2167931  82.3285446
  74.8278351  20.9175262  54.8702469  74.0435410  21.2074909  55.3361168
  74.5459061  20.8267078  53.9600296  15.4461851  68.7719269  41.7031021
  16.3696365  68.9742050  41.5529251  15.3274660  68.8810120  42.6466255
   8.9123507  19.3056011  36.7498817   9.8419905  19.4008198  36.5426712
   8.4594870  19.7154598  36.0128860  83.0694199  42.4261665   4.5246449
  82.3035889  42.0459976   4.0942850  82.9399414  43.3718147   4.4524102
  27.4124508  32.8333359  21.4750996  27.2183304  33.5738983  22.0496559
  27.4696903  32.0813942  22.0646229  43.3139915  63.3612709  47.3523026
  44.1565132  63.2561913  46.9103203  42.6698914  63.3569107  46.6442451
  64.5897598  50.3720627  58.0422211  64.8824158  50.6668205  57.1798401
  64.7472305  49.4279137  58.0388031  57.0428276  37.2211494  74.5769958
  56.5550232  36.4387207  74.3199234  57.8902969  37.1288338  74.1416702
  64.5055084  11.0031099  70.8162537  63.9375000  10.8399410  71.5692291
  65.3642120  10.6804075  71.0896149  58.3965149  43.4891548  17.0946159
  59.0958214  43.9124870  16.5966301  58.6435394  42.5646248  17.1159458
  78.5538025  10.8105555   4.6303229  78.2629700  10.0810556   4.0830793
  77.7439117  11.2321110   4.9177284  79.9971542  23.6382046  44.6871262
  79.6876831  22.7956505  44.3546257  79.3742065  24.2763538  44.3393745
  62.4647217  66.1217804   6.7851143  63.1089211  66.2742310   7.4764895
  61.8973351  66.8922119   6.8123016  67.3042145  52.0887451  42.7231712
  66.8707047  51.3882675  43.2106438  68.2043304  52.0855637  43.0487747
  42.3755646  25.9783459  74.6456070  43.2558098  26.3536663  74.6686325
  41.8537979  26.5571117  75.2015076  12.0334215  28.0396099  33.0695724
  11.8517056  27.6067390  33.9037399  11.3329964  28.6854591  32.9772987
  70.6713715   4.2041593  15.1301565  71.2450256   3.7636294  14.5031891
  70.9076614   3.8265047  15.9773731  68.5627441  42.0603065  26.2836666
  68.2916336  42.9780426  26.2615852  69.5193100  42.0933495  26.2947941
  25.0547295   4.5174966  37.4271164  24.3613052   4.2938824  36.8063164
  25.6429329   3.7625132  37.4113464  61.8397903  22.8889465  16.9328632
  61.3999977  22.2751808  17.5211716  61.5124016  23.7491226  17.1958256
  63.7394562  49.6618843  38.1490211  63.6770821  49.7362175  39.1012878
  64.0886612  48.7832489  37.9997253  44.1190186  39.8067970  32.5621033
  43.2315636  39.5644150  32.8265038  43.9941063  40.4763336  31.8895321
  59.6512451   3.4100430  36.6896095  60.4196243   3.8158844  36.2882195
  60.0075302   2.7042596  37.2292061  22.0552921  30.0813656   7.7593431
  21.4599075  29.7535591   8.4333544  22.8445377  30.3331680   8.2388420
  14.8177834  63.6822586  68.8884277  14.0823078  63.9070854  68.3185501
  15.5932760  63.8218651  68.3449631  63.2456665  68.5709076  84.9573441
  64.0850525  68.1210022  84.8611679  63.0300827  68.8672867  84.0730820
  31.1418686  16.4469357  71.2562408  30.9835606  16.5032101  72.1985779
  30.8707676  17.2997532  70.9164810  53.2648544  63.6376762   9.2333965
  53.3809280  63.9718742  10.1228180  52.4437218  64.0292435   8.9356613
  17.6935596  41.1314201   4.4499531  18.1353893  40.5002899   3.8818934
  18.2285595  41.1551132   5.2433295  75.9122849  30.1899738  34.5805702
  76.3404160  30.1819172  35.4366455  76.4155197  29.5678749  34.0552330
  85.8821640   0.8563073  38.2265549  86.7952499   0.5741839  38.2804565
  85.9258957   1.8124520  38.2368698  70.5504913  44.5654144  59.9865150
  70.9582596  45.3226318  59.5662994  70.2397079  44.0263557  59.2591515
  83.4471130  51.5559578  50.3638763  83.6234589  51.6939850  51.2945099
  83.6945114  50.6448975  50.2057724  21.4883614  60.3918381  45.2628860
  21.9035797  59.8836403  45.9597054  20.7409630  59.8592834  44.9908371
  59.6620369  51.2734642  39.0480881  60.1181984  50.5038452  38.7077484
  60.1816063  51.5446320  39.8048897  37.9202080  54.9417038   1.1270046
  37.9492950  54.5887070   2.0162616  38.1635094  54.2035904   0.5682343
   8.7366304  15.4867172  19.2883530   9.3836708  14.8957853  18.9031658
   9.1972027  16.3211174  19.3771305  15.3533049  10.5658751  64.0158920
  14.7112894  10.5114317  64.7237625  16.1871471  10.7195406  64.4601059
   3.9272444  38.7257195  80.7935486   3.0948486  38.9589920  81.2045593
   4.2180614  37.9463348  81.2670593  75.4442444  69.3813934  38.8722992
  75.7820816  69.6652527  39.7217255  75.1089172  70.1817551  38.4683075
   4.9936619   6.6266913  65.7620697   4.4841609   5.8705883  66.0535278
   5.2912493   7.0414948  66.5717697  56.1852226   6.0035605  62.8803673
  57.0513535   6.1231632  63.2699089  55.6758270   6.7503209  63.1951637
  83.9973373  47.8732910  40.7079010  84.1739120  46.9481659  40.5370216
  84.7099915  48.1508026  41.2835274  65.9411545  51.4294815  60.3026848
  65.7541351  51.3083496  59.3717804  65.1373062  51.8053474  60.6615486
  49.0462608  57.9757118  43.1700478  49.2954979  58.6338921  42.5212708
  48.8583260  58.4792824  43.9620895  83.0931015  28.4378605  88.2336884
  82.8041687  29.2891979  88.5622787  82.3135223  27.8846989  88.2836533
  66.8431320  20.5771904  66.8099136  67.4060516  21.2388096  67.2119217
  67.2320099  19.7419968  67.0696335  70.6789246  27.5013523  25.4254189
  71.1574326  27.4151974  24.6008968  71.0791702  28.2562561  25.8568745
  78.7602234  30.5571003  64.5205994  78.0056458  30.2783699  65.0394058
  78.7587433  31.5118179  64.5894775  18.7891922   5.7021585  31.4427834
  18.4559746   4.8148646  31.5766029  19.3366356   5.8706164  32.2096977
  42.0770264  30.6319675  86.0512238  41.2570763  30.3137226  86.4288940
  42.7586288  30.2621994  86.6124039  30.7306938  36.5140038   5.2060533
  31.5300484  36.4086304   5.7219610  30.8213177  37.3746567   4.7970405
  32.0014915  27.1123753   7.1214352  31.2263088  26.6591301   7.4529376
  32.0699539  27.8979530   7.6640301  42.9514313  38.7558784  14.4268141
  42.7057152  38.4948120  13.5392895  42.1860504  38.5413895  14.9601212
  55.2155838  40.0229225   5.4080644  55.7946091  39.4679794   5.9305577
  55.7998390  40.6630211   5.0016732   4.0777230  24.3892441  82.2362747
   3.2065284  24.3567867  81.8410568   4.3691368  25.2907562  82.0999527
  81.3049011  60.0011482  38.1650276  82.2339783  60.2139511  38.2531166
  81.1685410  59.2698135  38.7673416  37.7160378  53.0906944  45.2889938
  37.3532181  53.8749390  45.7007561  36.9503555  52.6059036  44.9808731
  60.4608002  34.3672523  30.6300793  60.6541595  33.5370369  31.0654984
  60.6443634  34.2012062  29.7054367  15.1334953   5.6011934  31.3503189
  14.2171917   5.4331813  31.1303387  15.5164118   5.9379940  30.5402737
  66.0498352  70.7132187  59.3743858  65.3332520  70.0849075  59.2851448
  65.6443710  71.4841614  59.7712212   5.7977486  10.3803091  61.5061531
   5.9702740   9.4426689  61.5915756   5.6174707  10.6730328  62.3994865
   4.1712928  35.6501694  39.1121712   4.4602113  36.2999420  39.7529182
   3.7630060  36.1651497  38.4162331  65.8064499  14.8525753   2.8276086
  65.1596451  14.8004627   2.1239333  66.4262619  14.1488132   2.6358132
   9.3887644  43.8292351  40.9946365   8.7399225  44.3444633  41.4739876
   9.2247477  42.9258766  41.2653236  61.5993576  68.9633942  14.2292738
  62.1348495  68.3682327  13.7046127  60.8634453  69.1883163  13.6599960
  67.3810196   8.8896942  34.3428688  66.5383759   8.9933863  34.7849388
  67.8383102   8.2210140  34.8527565  12.2583694  53.5502052  66.7836838
  11.3470631  53.4100304  66.5265732  12.6411972  52.6729889  66.7967148
  44.2080002  36.3541565  21.4148083  44.0387917  37.1824913  21.8636551
  44.3033218  35.7144775  22.1204700  17.9061546  21.1992016   9.5662651
  18.7797928  21.1062603   9.1863308  17.3954296  20.4945641   9.1676731
   4.1562247  62.3159370  22.1605129   4.9967675  62.4900017  21.7369308
   4.2093534  61.3991203  22.4304333  21.6645718  50.3238945  22.0780945
  21.8628311  49.7749634  21.3194103  20.7331944  50.5265274  21.9902763
  82.3342133  57.6522408  82.5469360  81.7872009  58.4148216  82.7352829
  82.2030029  57.0722275  83.2970047  37.8833809  53.5654411  25.0907898
  37.5011940  54.3428574  24.6836147  37.2536125  53.3149681  25.7667255
   1.4485483  30.3462315  81.2645645   1.1866014  31.2599430  81.3774643
   2.2782164  30.3918839  80.7893829  55.6446381  50.1301575  25.5781708
  54.7462273  49.8299484  25.7158794  56.0083427  49.5138092  24.9425106
  53.4296570  29.4839706  31.4302635  53.7275391  28.6044273  31.6624317
  52.4744034  29.4266968  31.4514427  76.8419266  35.4694214  16.0469513
  76.8450394  35.4714966  17.0041447  76.8231049  36.3954773  15.8054943
  32.3771172  21.8655567   2.7880728  31.8882198  21.8376675   1.9656174
  33.2937775  21.9287338   2.5197861  67.9832764  60.8210068  17.6325035
  68.1350479  60.6696587  16.6996098  68.0479889  61.7705307  17.7347355
  76.1660080  63.4394073  77.5890350  75.4473114  62.8638535  77.3274078
  76.8293304  63.3182678  76.9096603  53.1366463  42.7295113  57.0897408
  53.2733917  41.7851181  57.0145874  52.9619942  43.0182648  56.1940002
  66.5942993  54.4789848  18.5771084  66.0588150  55.1824036  18.9441128
  67.3124771  54.9308968  18.1341381  69.8964615  65.4009857  53.2488708
  69.7838440  64.8398285  54.0161057  69.1193314  65.2356262  52.7150459
  72.3355026  67.1426849  24.1746025  71.9738312  66.2564774  24.1826534
  73.2788620  67.0173264  24.2774715  34.9042320  36.6712303   1.8788450
  35.4915199  36.1781731   2.4517469  34.2808380  36.0199547   1.5572069
  30.6381817  57.6401672  79.7369385  31.5340900  57.9683342  79.6602478
  30.3742085  57.4517479  78.8363571   5.5322051  61.0446587  58.6262169
   6.0030909  61.8771744  58.5885239   5.5731254  60.7056427  57.7319984
   4.2219858  68.8284149  29.0294685   4.2214789  68.8901978  29.9846725
   4.0574837  67.9028397  28.8492374  79.5667191  60.0657005  26.2756863
  80.2608032  59.7619972  26.8607044  80.0274582  60.5388298  25.5827885
  27.3913631  60.2162437  25.7399502  27.8748093  59.4568748  26.0653229
  27.2089844  60.0093040  24.8233547  70.6687393  48.4626007  39.8214836
  71.0689392  48.9080772  39.0747414  71.2023468  48.7255974  40.5713692
  19.8770218  42.0014610  71.1331024  20.4469833  41.5539398  70.5077209
  20.0452385  41.5626678  71.9670105  51.3738251  70.0854187  84.9323730
  51.6267967  70.3911667  85.8034363  52.0199623  70.4764404  84.3442841
  45.7472801  65.1316605  20.3339405  45.4682808  64.2868958  20.6871700
  44.9504509  65.5113907  19.9636688   0.1834615  31.7703571  72.5173187
   1.0191988  31.3305836  72.6734390   0.4257467  32.6289558  72.1704178
  12.7932234  48.7082596  77.6181641  12.2202253  48.4707527  78.3471985
  13.6397533  48.3223495  77.8433151  32.0359459  54.9638901  16.6402779
  32.6728058  55.3817368  17.2199745  32.1798210  54.0255661  16.7630787
   2.3779392  22.1709404  24.4569893   1.8627514  22.2587109  25.2589321
   3.2068431  21.7889023  24.7454300   0.7643144  31.1350517  62.2185822
   0.5938769  30.2316494  61.9520378   1.2894932  31.0548191  63.0148125
  12.8312740  61.7542877  21.7500916  13.6094065  61.8488007  21.2007198
  12.9426270  62.4104843  22.4380169  35.0025482   8.0398645  57.6591301
  35.0422974   8.6018982  56.8853264  35.2567940   7.1741142  57.3396492
  65.1860580  21.4473934   6.2216082  64.5948639  21.5622234   6.9656115
  64.9216003  20.6140480   5.8319483  71.2380219   3.1281958  81.2418289
  71.5451508   4.0218925  81.3941727  71.5629883   2.9088454  80.3686066
  35.3647385  28.6350651  85.1773529  35.0509300  28.6994972  86.0793533
  36.0553017  29.2950840  85.1162872  70.8887482   0.7217647  33.4610977
  70.5888977   0.3882814  34.3067360  70.2326508   1.3736171  33.2144051
  23.5054665  61.4668808  83.7322159  22.6956043  60.9762955  83.8724899
  23.7510147  61.7779884  84.6035080  25.9953136  52.0425262  78.8858643
  26.7674332  51.9061432  79.4349213  25.2597141  51.7728500  79.4357681
  53.7631111  17.5755825  64.8055573  54.0118103  18.3895130  64.3675003
  52.8966637  17.3697872  64.4546204  60.5604401  63.9858704  49.5223007
  60.5497856  64.6440887  48.8274155  59.8941193  64.2816315  50.1426010
   3.5154974  33.4445610  37.6495781   3.2664592  33.9712868  36.8901253
   3.8214791  34.0829277  38.2938576  36.7630768   1.2599241  12.9350357
  36.6751480   1.6338369  12.0582857  36.0495567   1.6545875  13.4363966
  34.9288788  39.5890083  14.2078457  34.5790672  38.9942894  14.8713017
  34.6250763  40.4553642  14.4787035  -0.0447975  36.2809219  35.8156548
  -0.0780711  35.4509850  35.3399162   0.8575347  36.5820541  35.7091217
  40.0919456  42.5450478  39.0347061  40.3396492  41.9715271  38.3094788
  39.5508690  41.9948921  39.6010933  81.0364990   2.6707294  33.2632027
  81.1168213   3.6234767  33.3085060  80.7662354   2.4957478  32.3617744
  16.2083054  37.7650452  71.1837387  16.8359680  38.4538879  70.9651794
  16.2790222  37.1391106  70.4630203  22.6020718  21.3266087  82.8460617
  21.9047298  21.8838921  83.1915741  22.2183247  20.4500332  82.8218536
   4.3079152  42.5709953  68.4378281   4.8315158  42.3761444  67.6605835
   4.2166777  41.7283211  68.8825836   5.3939900  10.8104515  72.4269562
   4.6196542  10.2616196  72.3027802   6.1173806  10.1889954  72.5089951
  48.1654587  50.2698441  77.8846130  48.4495049  50.7871971  77.1310196
  47.7781563  49.4824181  77.5022659  44.5764351  61.2607651  82.4849930
  45.2280998  61.7658958  81.9987793  43.7669411  61.3711243  81.9862289
   3.1825407  54.1445351  50.7377434   3.9764452  54.5294037  50.3664970
   2.5053711  54.8051758  50.5920486   5.3977199  32.2191505  24.5131989
   6.2866812  31.8859749  24.6355686   5.2136869  32.7103157  25.3138981
   1.4543763  68.3208084  80.1623611   0.9597353  68.5942612  80.9348831
   2.3692513  68.4784088  80.3955994  11.0860968  34.1962090   7.2642221
  11.8485527  34.1334000   6.6889410  11.4539452  34.3626556   8.1321020
  19.0149021   4.0861421  10.6064377  18.1082897   3.8622291  10.8165569
  19.4355602   4.2057962  11.4578848  13.9556122  36.4464645  75.3070068
  13.3942194  36.7357864  76.0262833  14.5498857  37.1815796  75.1564102
  72.1232529  31.7816658  37.7185516  71.6773529  32.2935562  38.3933640
  71.9035873  32.2236252  36.8984032   4.0902233  31.6459942  78.2613983
   4.5850625  32.4379425  78.4715958   4.3757324  31.4125500  77.3780975
  44.5842781   3.4352708  57.3350830  44.9918594   3.1947756  56.5030556
  43.7523270   3.8381999  57.0866203   4.1546197   3.2546246  14.0249004
   4.6456118   3.9912767  13.6608925   4.6307354   3.0196176  14.8213415
  50.3787804  24.1246586  84.8186340  51.2416801  24.0106945  85.2169418
  49.9780312  24.8380337  85.3153534  38.6417160  56.8900757  19.6639614
  39.5684395  56.6505089  19.6591053  38.1800804  56.0590363  19.7757645
  57.3905983   8.4980240  66.4585037  57.7855721   9.3699265  66.4625778
  57.3323669   8.2571430  67.3830719  51.4018974  40.6539040  47.6244621
  52.0571136  41.3493271  47.5669403  50.7435875  40.8904343  46.9710770
  80.0734329  32.0886688  84.7357864  79.2184677  32.2226448  84.3267365
  80.5050354  31.4386940  84.1812668  22.1110668   6.5068502  19.4667854
  22.3246689   7.1185760  20.1713409  22.1608009   5.6430888  19.8762646
  51.2878952  66.5915146  53.8636551  51.9804993  66.8950500  54.4505043
  50.5418129  67.1579208  54.0605507  17.5384274  44.1030617  86.0605850
  17.1608200  44.3199387  85.2081757  17.6968060  44.9511642  86.4751587
  28.3833027  23.0759239  80.5071869  28.8564034  23.6664906  81.0933914
  27.7615166  22.6215534  81.0756607  57.9334106  71.6369324  36.7571640
  57.9432335  70.8143768  36.2677422  57.4965591  72.2575150  36.1738358
  18.7377548   8.6059217  81.0857620  18.6039848   9.1260567  80.2934265
  19.6840096   8.6262178  81.2286758  10.4393177  22.5297108  36.7966042
  10.1525297  21.9215584  37.4778786   9.6430779  22.7317677  36.3052711
   4.8030610  55.9921112   9.1404409   5.4105687  56.5222549   8.6245775
   3.9354994  56.3076439   8.8874435  68.6990128  60.5140533  26.4045048
  67.9551315  60.8606110  25.9117832  69.0509338  59.8183556  25.8491764
  80.6540375  47.7121124  51.7975235  81.2913513  47.0344620  51.5720100
  80.4114761  48.1018333  50.9575729  10.1932631  14.8898954  84.9182434
  10.9050379  14.7376575  84.2966003   9.4626522  15.1893415  84.3771591
  55.4936104   4.8667064   1.0430114  55.6584091   5.4742885   0.3219586
  54.5471992   4.9087000   1.1800443  14.7560968  67.7828445  77.3621902
  14.6290293  66.9256516  77.7687531  15.7017422  67.9268646  77.3974838
  34.2904587  12.2858524   4.3126249  33.4247551  11.8817759   4.2533464
  34.1456261  13.0904799   4.8104506  16.5766850  51.0954247  38.7941132
  17.2220802  51.7225533  38.4679184  16.0985641  51.5741043  39.4712410
   8.4130344  67.2418289  43.7605858   7.9540877  66.4020996  43.7394676
   8.3797770  67.5557480  42.8569374  27.8943005  29.2462921  12.3325243
  27.3443508  29.9537201  11.9958744  28.2693138  28.8415356  11.5503674
  25.9213696  32.2906685   2.3942821  26.4321003  33.0351677   2.0763097
  25.8841457  31.6902657   1.6497252  27.2689133  41.0090752  80.8978577
  27.6359310  40.2639351  80.4221497  26.8525314  41.5434036  80.2215805
  58.6704025   8.9246683  31.8226147  58.0883331   8.9899836  32.5796852
  58.6381874   8.0006838  31.5747337  23.5877285  24.3195953  28.9327621
  23.3989429  23.4039841  28.7272148  24.5322990  24.3407669  29.0862865
  12.0114012   4.4828935  72.9296570  12.5082722   3.8488464  72.4126129
  12.4863768   4.5406423  73.7586899  85.0150986  44.2166252  83.3584290
  85.8551178  44.6300697  83.1592865  85.1838303  43.6982574  84.1452332
  30.8675098  57.1517792   8.3929710  30.7216759  57.6904602   7.6152887
  31.6777420  57.4926033   8.7719116  42.7111282  47.3422813  49.0584259
  42.2931366  47.8536682  48.3656044  42.8283195  47.9635010  49.7771645
  80.8299255  58.1815414  58.5569649  80.8416519  58.4706879  59.4693718
  80.3480377  57.3546600  58.5739288  62.8133736  48.0631943  78.8867722
  62.4883270  47.1855316  79.0874710  62.0383759  48.6227913  78.9364166
  37.2565689   9.8699808   0.1510004  37.0994186  10.7285147   0.5440080
  38.2081261   9.8183279   0.0609809  61.7928085  22.5370808  84.9186707
  62.1079178  22.0267048  84.1727142  62.2754936  22.1887074  85.6682587
  65.0958252  14.4047432  52.8574791  64.9699326  13.4678507  53.0078621
  64.2122192  14.7720289  52.8814621  70.9557571  59.5485420  10.0396509
  70.6187897  60.2443199   9.4752216  70.2617111  59.4047966  10.6829815
  24.8002739  38.7475052   4.4688630  24.3762455  37.9415588   4.1741099
  25.6236610  38.7769547   3.9816277  41.4073219  64.4573593  42.5490646
  40.4523811  64.5107498  42.5874557  41.6060181  64.3886108  41.6152420
   1.0948256  70.9971848   8.8556709   1.6674249  71.5740433   8.3500977
   0.4909952  71.5905914   9.3023186   5.1263452  52.7413597  23.8978043
   4.9924340  51.9706001  23.3462353   5.6588902  52.4242821  24.6272488
  54.3320732   9.2125683  42.0565834  54.7166023   8.3596306  41.8544235
  54.4162216   9.2941313  43.0065804  84.2371216  43.0943909  57.4085350
  85.1680832  43.0556870  57.1893272  83.9696808  42.1781235  57.4803772
  59.8264198  60.2491837   1.6952531  59.7691536  61.1283073   1.3209627
  60.7654762  60.0700340   1.7433221   3.0935130  65.5183792  56.8608055
   3.6899269  64.7830658  56.7199402   3.6232266  66.2946472  56.6790237
  27.4513283  58.8985901  78.7844696  27.3969517  59.6184349  78.1559067
  28.0401897  58.2657013  78.3734665  85.3753815  71.8604050   6.3032002
  85.8544159  71.1621094   5.8569379  84.9246292  71.4193192   7.0232692
  86.3663635  16.0404663  37.3397217  85.4415665  16.1498394  37.1182938
  86.3747864  15.9433765  38.2919464  70.4989243  60.7116928  62.8940048
  69.7239304  60.1748657  63.0596695  70.4350052  60.9452438  61.9679375
  81.4057388  45.4388924  35.5398254  80.8517838  45.2882423  34.7738800
  82.1202240  44.8088112  35.4463348  78.3947906  16.6858425  69.1701508
  77.7433701  16.9821320  69.8058319  77.8879013  16.4862385  68.3830948
   8.7205172   8.1501989  18.8725777   8.2497540   8.8043709  18.3561745
   9.5873728   8.5321341  19.0101223  51.4220695  66.3214188  83.0836029
  52.3673401  66.3896332  82.9492950  51.0414581  66.8417053  82.3760223
  63.9459572  35.3913116  35.4498215  64.0435638  36.2613792  35.0629272
  63.3720703  34.9227028  34.8437729  82.2658463  14.5983133   5.9721522
  81.8231583  13.9432650   5.4325471  82.2028427  14.2562685   6.8639302
   6.4329958  60.9160004  35.4415970   7.0945725  61.5992165  35.5500526
   5.6490836  61.3849297  35.1555557  18.9091206   2.7929556  68.8065872
  19.1950188   3.3987072  68.1228027  18.0621014   3.1358914  69.0915146
  13.6357107   0.8802094  21.0896530  13.6179647   1.1677758  20.1768436
  13.3370628  -0.0287337  21.0602703  17.6638412  71.4786682  27.1595516
  17.4396629  70.7505493  27.7390461  17.6173801  72.2535553  27.7195797
  79.4831085   6.5409098  76.5609436  79.7209473   6.7439766  75.6562729
  80.0419235   7.1108961  77.0892181  59.9066429   7.0272551  75.0290451
  59.0923996   7.5291157  74.9919662  59.7194557   6.2300978  74.5333328
  17.7384453  48.6811523  61.8515472  17.0325470  48.1693687  61.4565620
  17.3168373  49.1598282  62.5652351  52.9257774  15.0039053  73.9576797
  52.5482063  15.1758823  73.0950699  52.7002602  14.0917549  74.1403122
  16.6951027  55.2981644  50.7847176  17.3376827  54.7339287  50.3546448
  16.3145027  55.8132591  50.0733414  60.4223633  67.6862183  46.9355965
  60.2125816  66.8725967  46.4770699  60.2565994  67.4909744  47.8578911
   5.5744886  49.7610321   9.0269690   5.8599248  48.9570084   9.4609060
   5.7863660  49.6231308   8.1037560  65.8280029  58.2148247  76.5949097
  66.0196838  58.4018822  75.6759415  66.6703339  58.3101158  77.0394745
   2.7337375  49.5518341  34.9215927   1.9592508  49.4201775  34.3747177
   3.3363726  50.0482483  34.3678436  13.6920309  10.0599957  66.4366837
  14.3823824  10.5245848  66.9097595  13.1588554  10.7538528  66.0487137
  32.3078041  34.9124680  73.2099228  32.0214806  34.9033890  72.2966003
  32.1049271  34.0346756  73.5332718  84.4620056  32.0489578  73.6035843
  85.2759094  31.6887589  73.2513657  84.1768265  32.6837311  72.9463425
  51.5076332  70.4737473  18.4194927  51.5294800  69.5303345  18.5798893
  52.1056137  70.8412628  19.0703297  48.9166374  41.2240143  71.5681915
  48.5276833  42.0705986  71.7878189  48.9382210  40.7477798  72.3982315
  52.2877846  38.5194855  60.0460320  52.1607857  37.8065720  60.6720161
  52.9058533  38.1681747  59.4050903  15.7458735  42.8745956  69.0802917
  16.5204048  43.2570877  69.4926453  15.4751539  43.5235519  68.4308395
   7.0585351   9.9139433  54.4117012   7.7816138   9.2944393  54.5097008
   6.8566380  10.1897936  55.3057785  35.3121414  30.3860607  18.1382427
  35.6833191  31.1922989  17.7798557  35.8170052  30.2234688  18.9350548
  64.7829514  24.6265659  76.4831924  65.5592346  25.0761127  76.1492386
  65.0181274  24.3736553  77.3759232  82.4632950  67.9043198  87.4748459
  82.7645874  67.9722443  86.5688477  82.9469452  67.1599426  87.8329239
   5.3097625  58.8191071  53.4910927   5.3258510  58.3362541  52.6647606
   4.3809786  58.8813972  53.7140541   7.2197824   7.6037660  79.2395248
   7.8266754   8.2180071  79.6525803   6.9359236   8.0481873  78.4406815
  29.2876167   0.8965569   9.4518862  29.3639469   1.6453674  10.0432310
  30.1795673   0.5569032   9.3791561  81.7782669  69.6733780  84.4329834
  81.9122391  70.3862305  85.0575867  81.0118790  69.9404678  83.9254990
  11.0153646  10.2010183  30.3489838  11.4164371  10.4337969  31.1863518
  10.8711271   9.2565184  30.4068413  69.3311157  60.1220665  32.0081177
  70.1447372  60.6248703  31.9701767  69.4915771  59.3640366  31.4460907
  47.4813004   8.6017904  85.4149857  48.1854362   8.3080187  84.8369522
  46.8060150   8.9308701  84.8217545  59.8163681  52.1257629  42.1063538
  60.7219543  51.8726082  41.9273109  59.6006241  51.6801987  42.9255981
   5.7114644  28.8926258  32.1666985   6.1052651  28.1356659  31.7329216
   5.1845951  28.5171413  32.8721428  65.6039124  36.6499443  31.7049942
  64.8262863  36.4357147  31.1895924  66.3097916  36.7071419  31.0610275
   3.7620788  20.4284191  36.5982170   2.8586593  20.2046261  36.3746529
   4.1185088  19.6283245  36.9842758  59.9045715  62.8461876  39.7129135
  59.9169617  62.7949371  40.6686630  58.9754677  62.8231544  39.4838524
  71.9231033  42.0169487  54.3957481  70.9932861  42.2432632  54.3745155
  72.0689926  41.5273438  53.5862808  51.8846474  21.2449989  15.3177013
  52.7961540  21.3856068  15.0615425  51.5178070  20.7101173  14.6137400
  45.1639824  52.1030083  75.3828430  45.2237892  53.0473061  75.2380905
  45.7149239  51.7206345  74.6998444  15.0097094  20.5569515  26.8338223
  15.3701134  19.6712856  26.8778496  15.6935644  21.1126728  27.2076492
  21.6883583   3.8232198  55.7874031  21.9666615   4.4177766  55.0907822
  21.0008774   4.3019562  56.2504501  49.0465851  37.5461769  58.7755775
  49.3313522  38.4235916  58.5200615  49.7546387  37.2161751  59.3287430
  23.1334286  46.3147163  67.0249710  23.5917759  46.8249817  67.6926346
  22.8982182  46.9551582  66.3535995  20.2781582  58.4255333   5.4785223
  20.3630886  57.5178909   5.7704239  20.7426071  58.9351158   6.1424847
  23.0355492  59.7120819  57.8983536  22.2040348  60.0528450  58.2280426
  23.6453857  60.4449310  57.9835815  17.2711296  15.6654539  72.9777145
  17.4173794  15.5580921  73.9175644  17.1031876  14.7787685  72.6586227
  44.6380997  63.2722015  43.9479866  43.8514557  63.6436195  43.5486488
  45.3113022  63.3545074  43.2725182  12.6691933  44.6880112  54.8592758
  12.6420698  44.9370346  53.9354362  11.7988672  44.9071465  55.1920586
   0.1916901  56.8680992  17.1957970   0.0724349  56.0718842  16.6780624
   0.5769725  56.5639839  18.0175648  59.6555367  57.1936684  27.8031864
  60.2191620  56.4808350  27.5024719  58.9885750  57.2755051  27.1215000
  20.1251678  36.5233192  22.5463867  19.7189026  35.7793884  22.1016979
  20.0159283  37.2545509  21.9384422  31.1041183  55.5982590  53.8369064
  31.2012215  56.2026825  53.1010551  30.1699219  55.3904190  53.8544693
  24.0514507  69.4200134  72.4760284  24.1365051  68.7500229  73.1543427
  24.6433487  69.1332397  71.7805786  45.8440628   0.2138213  77.8067627
  46.5554504  -0.2573667  77.3730087  46.2649689   0.9837241  78.1892776
  25.6837044  44.5896072  22.8939552  26.0944061  44.7611465  22.0465298
  26.3899651  44.2371407  23.4354305  77.5039597  53.4881134  58.6946526
  77.6699295  52.5618896  58.5191612  76.6828384  53.6747322  58.2394905
  81.9411240  40.8548241  11.5630350  82.8572006  40.8789177  11.2865286
  81.6028671  40.0361977  11.2001772  52.8615532  52.4167328  15.8056679
  52.8444977  51.4597321  15.8150339  53.3602676  52.6550522  16.5871525
  33.4368286  70.0024490  57.6916351  32.8565903  69.9973297  58.4529037
  32.8614807  70.2025833  56.9532928  66.1905441  49.4452171  16.6603508
  66.2594299  50.3990707  16.6197491  66.8550110  49.1840172  17.2979164
  44.5224953  35.0159760  27.1437798  45.3494530  35.3019066  27.5318680
  44.0963135  35.8261909  26.8642178  51.1096535  60.6786079  26.5594063
  50.2436371  61.0630226  26.6953163  51.3252945  60.8892250  25.6509056
   9.0890350  37.1832924  46.0720749   8.5779877  36.9575005  45.2948494
   9.9907026  37.2439384  45.7565613  12.0259018  64.7097702  75.7788391
  12.3554029  63.8319359  75.9713974  11.3561239  64.5725784  75.1089096
   1.7330998  56.7465057  23.4844170   1.4151844  55.8480721  23.5737152
   0.9799415  57.2909737  23.7136326  58.3735504   9.3595724  60.7710800
  58.9341774   8.5842390  60.7429886  58.4237061   9.6586399  61.6789742
  54.6506500  20.9501476  60.6603088  54.4082527  20.2524281  60.0514870
  55.3276291  21.4456730  60.1994591   5.4583888  25.4182491  76.0169296
   4.7208290  24.9655743  75.6078720   5.2556257  25.4097824  76.9523697
  82.6991882  22.8680573  20.0761776  82.4703445  23.5121708  20.7462368
  82.1289749  23.0787258  19.3367767   6.6662188  18.8788414  78.3858566
   6.3454771  19.7787495  78.4451904   7.5603857  18.9204216  78.7249298
  12.0810423  12.7152977  43.5461159  12.3246679  13.6131992  43.7711716
  11.3157902  12.8097668  42.9789314  18.2111149  46.0983124  67.1680298
  18.1564331  47.0492630  67.2625504  18.9253864  45.9601288  66.5459747
  65.2614899   9.2400331  36.2100563  64.3399353   9.3850803  35.9957390
  65.2524719   8.5010881  36.8184242  16.6595612  34.4263344  35.6392441
  16.7174606  33.8146362  36.3732071  16.5142288  33.8695564  34.8743210
  50.1811333   3.5486836  18.0767860  50.6671333   3.4976573  18.8998470
  50.2312851   4.4710317  17.8258057  65.3495331  34.5996056  62.4294357
  65.8906097  34.2152176  61.7397194  64.4518204  34.5022583  62.1118393
  73.3703232  23.4025974  31.2269878  72.4703522  23.0816364  31.2841759
  73.3097534  24.1904907  30.6868153  60.9460983  38.0597115  23.7825546
  60.0223808  37.8916512  23.9689140  61.2438583  38.5993652  24.5149097
  77.0949707  24.1035690  80.5573044  76.1974792  24.0302315  80.8819046
  77.0136871  24.0195332  79.6072769  70.8457184  22.4034843  26.7618198
  70.7050629  22.0496349  27.6400223  71.6688690  22.8875427  26.8276405
  37.6782646  50.7445450  14.0372763  37.6113892  49.8863297  13.6186743
  38.3252792  51.2168350  13.5133057  57.2084007  53.7652817  82.1542282
  57.6379280  53.6237640  81.3105927  57.9106903  53.6761665  82.7984924
   0.7285928  42.2667618   4.1089020   1.2863681  42.0209656   4.8469415
   0.5216361  43.1887398   4.2617311   8.8633137   7.6116276  63.3828468
   9.1755991   8.1726990  62.6729813   8.5404854   6.8254733  62.9424210
  14.7383766  12.8128881  82.3233795  14.9398613  13.7462759  82.2568741
  14.3881292  12.7058840  83.2077484  76.5246658  67.7305222  34.4561157
  77.4413910  67.5135269  34.6257401  76.2272186  68.1581879  35.2591438
  75.7462006  21.2662811   9.2638102  75.3745880  21.9828396   9.7782869
  76.6580811  21.5206928   9.1225033  51.5905113  52.2799034   5.2999845
  52.1702728  52.7578583   4.7069683  50.7649879  52.7634315   5.2692223
  59.4721146  70.2694626  66.1951752  58.9626160  70.8784790  66.7297211
  59.5012932  69.4640884  66.7116547  78.4540710  40.9905510  51.1148949
  77.9172897  41.5581932  51.6679497  78.8955460  40.4048767  51.7299690
  63.5910645   9.8813801  76.5346756  62.6385040   9.9620209  76.5832443
  63.8979301  10.7704144  76.3566818  16.1650391  57.6379623  67.4358749
  16.7595940  57.1809235  68.0307312  16.0939236  57.0591469  66.6768341
  83.5942001  69.0743103  27.5110760  83.2862930  69.7481613  28.1171627
  84.1081467  69.5535202  26.8611164  19.8547363  67.8189774  39.6898193
  20.7531414  67.4950638  39.7544899  19.7499371  68.0519028  38.7673225
  65.6208420  15.9916134  58.7799454  65.6826630  16.0381470  59.7340126
  66.5290298  15.9306698  58.4837723  62.6099243  12.7393751  25.4591274
  63.4915886  13.1086111  25.4084911  62.3563957  12.8495226  26.3755455
  26.4352722  55.1781425  70.0730896  27.1328030  54.7336464  69.5913086
  25.6706944  54.6127548  69.9636154  46.3551483  48.1384888  60.7572861
  45.6845474  48.3523064  60.1085892  45.9291687  48.2899399  61.6009903
  76.9670944  32.8635902  89.2203522  76.5353851  32.7597466  88.3723679
  76.6285629  33.6913109  89.5616913  70.2338409  12.4131393  56.7196465
  69.9961853  11.4886332  56.7906494  70.5894470  12.5017967  55.8353882
  22.8425941  35.6497231  23.3392372  22.8820896  34.7032967  23.4769001
  21.9076977  35.8427010  23.2688122  58.9097328  13.0111675   9.3738012
  58.6868858  12.5376024  10.1752424  58.2494240  12.7323427   8.7393837
  37.3502922  10.9995546  75.1742249  37.8252335  11.8259029  75.0858307
  37.9705124  10.3338470  74.8769150   0.5829831  39.8911934  52.4231606
   0.2429483  40.6233292  51.9087830   1.5276008  40.0417480  52.4587021
  49.1997604  37.2412910  72.0392838  49.0871735  36.6259270  71.3147964
  48.5331192  36.9853554  72.6767120  43.8099861  23.8157940  76.6526184
  42.9911766  24.3041649  76.5673065  44.2806740  24.2588329  77.3585892
   1.9646994  33.6656647  76.7438278   2.6048090  33.1981888  76.2072144
   2.0193994  33.2456512  77.6022110   9.3352842  37.6736908  76.7913361
   9.5288496  38.5145683  77.2056808   9.8248329  37.6935463  75.9690323
  52.0582962  41.4518013  60.1303253  51.1538277  41.4093781  59.8199005
  52.3967438  40.5654030  60.0038910   4.5041847  61.2406693  11.6505613
   4.3004904  62.1488304  11.8741255   5.3595581  61.2852631  11.2232685
  15.4523849  59.6141472  83.8942108  15.9470596  59.3609581  83.1148376
  14.5360470  59.4891167  83.6473846  48.4830170  33.0295639  14.9529200
  47.6162605  33.4350967  14.9754810  49.0806274  33.7264442  15.2239399
  44.9095688  15.8092909  15.2120743  44.0340691  16.1437817  15.4066162
  45.3434372  15.7639561  16.0640926  68.9686127  17.9428883  52.8422623
  68.6391678  18.6642933  53.3782349  69.3365631  17.3243008  53.4732857
  62.6973763  50.5237808  74.5545578  62.8483353  51.4020576  74.2051620
  62.6840439  50.6428337  75.5042267  73.8099518  27.0885906  22.2901840
  74.1611786  27.9666615  22.4380531  73.9706192  26.9195690  21.3618259
  75.1082382  54.7263794  52.9410248  74.8610458  55.3475571  53.6260529
  74.8660583  53.8706245  53.2949448  36.0596542  38.7303429  66.0451279
  36.9494400  38.7334900  66.3979721  36.1515350  38.3606529  65.1669922
  47.8816338  41.6104584  56.7619781  47.4791985  40.7721977  56.9891281
  48.8101120  41.4925804  56.9626503  20.4993286  32.8850708  86.2205048
  21.1162739  33.6091728  86.3267288  20.9254684  32.1425705  86.6486816
  80.3336563  48.1846504  73.6416550  79.7779007  47.8248672  74.3329697
  80.7749023  47.4219170  73.2677917  49.3991241  62.6256294  72.5055237
  48.6286011  63.1446037  72.7361526  49.5147781  62.0274887  73.2438202
  33.4465675  26.8687363  83.4273758  32.8960762  27.4959850  82.9585953
  34.0793686  27.4107437  83.8985672  77.0245667  11.8935080  27.1762676
  76.7883224  12.5149937  26.4876633  76.4066391  11.1704502  27.0686188
  69.1283646  51.3059196  26.8756123  68.9051666  50.9166374  27.7211132
  69.0932312  52.2499619  27.0298386  57.1840363  52.8797150  75.9810944
  57.6102104  53.2665443  75.2162628  57.1924477  53.5761070  76.6377487
  51.4495926  46.4886475  62.2895889  50.8909454  47.1291504  61.8492432
  50.8395081  45.8400650  62.6408272  74.2156830  64.3935928  59.0890312
  75.0463638  64.7344513  59.4207230  74.0636063  63.5969238  59.5973892
  80.9150314  59.9583206  83.1010742  80.9918671  60.9120293  83.1288910
  79.9819107  59.7893105  83.2313004  55.0160942  69.4421768  64.1544876
  55.5114899  70.2544861  64.2592316  54.1310158  69.6622543  64.4450531
  56.0535431  58.6425438  62.6125374  56.1544876  59.5413475  62.2991791
  56.1152039  58.7126694  63.5651703  64.8222656  40.6119843  60.9257584
  65.5295792  40.1717796  60.4544182  64.6340103  41.3908844  60.4022064
  -0.1370957  39.7924271  35.4474449   0.2132097  38.9027863  35.4928169
   0.3525531  40.2066956  34.7369080  77.6219559  30.6790619  46.2623787
  76.9193497  31.0152836  45.7060242  78.3159332  30.4343987  45.6501961
   7.1540518  44.7739868  64.5982361   7.7021132  44.9361649  63.8304062
   6.4182334  44.2614861  64.2633514  15.6793594  55.2509537  12.3004980
  14.8466539  55.6644974  12.0728741  16.3288250  55.7121925  11.7697601
  42.9652596  54.7701836  61.9184265  42.9425888  53.8188705  62.0219650
  42.3266563  54.9513397  61.2287903  22.6542034  17.2009754  12.2839708
  23.4413013  16.8482437  11.8688917  22.8276520  17.1331120  13.2228746
  31.5106449  34.7056274  80.0404358  31.6371746  34.0402489  79.3640518
  31.2085514  35.4782143  79.5628586  37.2481880  60.4610062  86.0118866
  36.5759430  60.2215500  86.6498413  37.8068428  61.0849419  86.4754028
  35.3082390  65.6165619  79.3000183  36.2613983  65.6595535  79.3766479
  35.0006981  65.4999619  80.1989365  50.0857353   8.1907597  74.1469040
  49.4547119   8.8568697  74.4195557  50.0706406   8.2238092  73.1903915
   8.8482285  41.2230644  41.7204475   9.4397974  40.6736908  41.2061844
   8.6810322  40.7164154  42.5151672   3.1507809  58.5954475  77.5783539
   2.4948213  57.9988518  77.2177658   2.7349970  58.9665031  78.3566055
  40.4492874   1.4208575  22.2986946  40.7740097   0.7375643  22.8851223
  41.2318230   1.9098241  22.0441723  12.8503981  49.5587959   5.0740385
  13.4160252  48.8072510   5.2514596  12.6490736  49.4919739   4.1406384
  83.3472443  43.8771286  38.6598434  82.6379395  43.2525787  38.5079994
  82.9385071  44.7354851  38.5485458  19.7378483  55.3242836  74.7069092
  18.9939728  55.8901558  74.9134750  20.1007290  55.0848770  75.5596924
  23.0517178  23.4947624  14.3112049  23.3109207  24.0734863  13.5941801
  23.6002941  23.7651939  15.0475216  71.5815201  22.9698696  33.9830933
  70.7582397  23.4054928  34.2037048  71.3841858  22.0357666  34.0519676
  66.0121994  43.8276978  47.6782227  66.8214417  44.2975082  47.4766541
  65.4430695  44.4889679  48.0719872  52.4537239  32.5482445   7.6851439
  51.9760323  32.0125732   7.0518179  52.7365227  31.9287453   8.3578091
   1.2717202  18.2737427  80.1421661   2.1272073  18.3257484  79.7159348
   0.7381219  18.9263191  79.6886826  36.5780525  61.2299767  89.0460281
  36.1837997  60.5090446  88.5550537  37.2508698  61.5783997  88.4610977
  48.8569336  69.6764679  26.4590321  49.7654686  69.9595718  26.5622063
  48.6321869  69.9155960  25.5598450  80.2697067  54.2432976  86.0601273
  80.9318466  53.8360252  86.6186447  79.4885941  54.2920494  86.6112366
  26.6745777  27.1453400  24.9108982  27.6164379  27.1008339  25.0756741
  26.5873680  27.7630196  24.1848831  55.3508377  27.5656643  10.9074249
  55.3367996  28.2454071  11.5812082  56.2716637  27.4975166  10.6551018
  21.5523891  68.3311386   0.6053513  22.1231480  68.2764359  -0.1611169
  21.7196198  69.2015228   0.9668753  13.1798429  50.8767128  55.1354828
  12.3822136  50.3835411  54.9436493  13.4382048  51.2512856  54.2933540
  16.7157555   6.5917301  23.7400436  16.8295326   6.3162279  24.6496506
  16.6678276   7.5467525  23.7832527  66.5788803  27.9111748  18.3551674
  65.6955719  27.7399635  18.6818027  66.8492203  28.7121277  18.8041897
  54.6358452  43.0364838  24.6024055  54.2527733  42.2582550  25.0071831
  55.2478027  43.3708839  25.2580833   6.4400010   4.8129311  79.3858948
   6.7123590   4.1842484  78.7174606   6.8529735   5.6355996  79.1234055
  22.8755970  45.8181839  14.7985411  22.2509747  46.5205612  14.9794970
  23.0841846  45.4554749  15.6594505  29.7438679   3.8338692  50.3857689
  29.0917282   3.5049808  49.7670784  29.9066677   3.0980177  50.9758987
  60.0336952  37.8332291  50.3822289  60.1605339  37.1066551  49.7721214
  59.4831161  38.4537010  49.9046211  71.2566681  34.9840469  67.2519226
  71.0664902  35.1066666  66.3218536  70.4282074  35.1727295  67.6927032
  65.7303085   2.6697984  76.1780853  65.9504547   3.5670443  75.9276428
  66.3909149   2.4340003  76.8294144  30.8944759  48.9428673  77.0740662
  30.3393421  48.3741417  76.5405807  30.3670654  49.7292595  77.2142792
  55.1422081  42.8918076  28.2339230  55.2263489  43.3170586  29.0873337
  54.2010918  42.8895149  28.0592117  25.4664192   3.3847353  52.4101372
  26.2653198   3.9056087  52.4918785  24.7847118   4.0230927  52.2003593
  12.6673231  50.8487053  43.1034584  13.0128756  49.9728279  43.2757034
  12.8921661  51.0192909  42.1888123  52.9492111  42.6746941  62.5574455
  52.7613335  42.3508072  61.6765213  53.4871712  43.4537773  62.4165192
  65.9079590   4.1607232   6.7190723  66.4351578   4.8849573   7.0563788
  66.3699341   3.3735542   7.0074744  69.9866638  70.5408936  26.9811668
  69.3512192  69.9601059  26.5626793  70.1501465  71.2247543  26.3316784
  70.2628632   9.9489765  66.2959442  69.5221710  10.5233622  66.4900970
  69.9648972   9.0774870  66.5566330  52.8323631   5.4827995  56.0478325
  53.2926064   5.4504514  56.8864975  52.6053848   6.4057832  55.9346313
  86.5141144  43.5750809  41.3950462  85.8721542  42.8967285  41.6046982
  86.9904633  43.7151680  42.2133942  76.9786072   1.7147998  50.4016495
  77.1977005   2.2305975  51.1776543  76.1186447   1.3423731  50.5965500
  16.4301071  54.1016197  23.6013432  16.0787258  53.2145271  23.5249805
  16.2083683  54.3711700  24.4926376   0.3060731  13.2636595  85.3673096
   0.7969956  13.4246788  86.1731033  -0.3679249  13.9432659  85.3576202
   1.1047082  20.1358833  33.3600388   1.6346883  20.5109921  32.6567268
   1.0915577  20.8125019  34.0369759  81.8752670  46.7346725  54.3377037
  81.2124557  46.8597450  53.6585350  82.6161194  47.2684441  54.0505447
   7.0433621  50.9052353  69.7185898   7.4121127  50.1445961  70.1676788
   7.3094435  50.7965698  68.8055649  67.7259216  62.3512688  30.1426067
  68.6707535  62.2211494  30.0614185  67.3644562  61.4656944  30.1791058
  19.9806805  65.1599655  24.1680756  19.2497349  64.7620087  23.6952324
  19.7950211  66.0988083  24.1497765  18.1528416  24.7258778   0.8698145
  17.5451584  25.2028084   1.4350485  17.6989136  23.9081230   0.6661984
  83.3993759   3.3894057  78.6331482  82.7344284   3.2484660  79.3070984
  84.0247650   2.6760898  78.7608337  76.5960464  18.3044624  36.2879753
  76.3919296  18.3592491  35.3543968  76.2638245  19.1240253  36.6542816
  67.7792664  21.1548843   1.7693164  68.3390274  20.6605644   2.3681002
  68.3833237  21.5184917   1.1219122  64.0130539  53.5937271  11.1451836
  63.0655403  53.4585075  11.1322660  64.2899399  53.4351845  10.2427263
   4.1733503  24.0776997  49.5950623   4.8155680  23.4336758  49.2966995
   3.4546037  24.0080376  48.9667473  76.6594620   7.5919967  74.4834595
  77.2194901   8.2387667  74.9127426  76.1585770   8.0966072  73.8425827
  12.1352444  39.8110657  53.9436874  12.4507132  40.3892403  53.2491188
  12.8407516  39.8067169  54.5905838  77.3275757  10.8977604  89.1898804
  76.8098373  11.0536451  88.4000244  76.8184357  11.3004398  89.8933411
  29.7522469  25.3881302   4.4159980  30.1943188  26.2354565   4.4692883
  30.0638504  25.0066071   3.5952816  85.4809723  14.0505686  33.5939331
  84.9950562  13.3675594  33.1317444  84.8041077  14.6139793  33.9689789
  28.1381550  17.9871712   8.0939455  28.7175293  18.7359123   8.2351675
  28.0957890  17.8932495   7.1423073  78.3432693   4.2675457  85.6533051
  79.2174911   4.0104394  85.9463425  78.2211304   5.1481781  86.0079880
   3.7617347  30.7928162  84.4282990   3.4482245  31.6079063  84.0364151
   3.1510496  30.1258259  84.1145859  28.8855839  34.6192245   7.4838090
  28.0415459  35.0550842   7.6015310  29.4885311  35.1100044   8.0422192
  65.7218628  26.5568428   4.7896967  65.1768341  25.8026600   4.5652342
  65.9425201  26.9523411   3.9464166  40.3847008  36.5898743  19.0467186
  41.2695770  36.2405968  19.1526814  40.5109177  37.5321083  18.9349384
   7.3645029  39.4109154  33.8880577   6.9059372  38.9700203  33.1728210
   8.2870808  39.3826523  33.6345177  50.0796356  38.1342201  62.5356827
  49.8599892  38.7166061  63.2628822  51.0239677  37.9988518  62.6140594
  23.4522419  64.2611923  76.1528625  22.5316143  64.5167618  76.0949173
  23.4715118  63.5877304  76.8328018   3.3974555  18.2807007  15.6670618
   3.8315256  18.0025558  16.4735661   2.6056726  18.7293930  15.9636869
  54.6397362  40.4296417  80.2865601  55.1733513  41.2117729  80.4270935
  53.8288383  40.6039009  80.7643738  33.9092216  30.2381382  37.8856354
  33.7147369  31.0430794  37.4055557  34.2125740  30.5377445  38.7426338
  72.5131760  69.6836624  47.0162048  72.4809647  69.4317017  46.0933228
  73.2342911  70.3109818  47.0681877  77.5402603  59.2708778  63.7389412
  76.6135025  59.3303642  63.5069847  77.7026596  60.0456009  64.2771454
  19.8132668  12.6697474   2.0297837  19.4267902  12.5542326   1.1617264
  19.3561440  13.4264736   2.3967123  49.6780319  51.8944855  53.6803055
  49.7157478  51.1522675  54.2835655  49.6526184  51.4952736  52.8106956
  82.0860596   1.6919416  39.2555046  82.3023682   1.9004778  38.3466835
  81.8282318   2.5303123  39.6387711  11.4500713  24.9284172  17.3062897
  11.4626274  25.8628178  17.5135765  12.1219130  24.5484467  17.8724003
  86.6713181  47.9459839  76.9260330  86.7949905  47.8964157  77.8739166
  86.3998642  48.8499794  76.7668610  34.6284904  14.4432116  16.3493481
  35.2317276  13.7229366  16.1662102  34.3583488  14.3044586  17.2570953
  59.2003479  13.1778965  73.3453369  59.0660477  14.0505037  73.7151413
  59.6062431  13.3386364  72.4934921  83.1415787  68.3710861  36.1244698
  82.7774887  69.1436234  35.6922073  82.3880844  67.9515915  36.5398026
  65.3788910   8.7397461  29.8505497  65.1862411   7.9842134  29.2953148
  66.2041168   8.5163784  30.2810688  81.4205856  28.0273399  65.0258713
  82.2736740  28.0059814  64.5922699  81.5707169  28.5322247  65.8251114
   3.7311711  38.9508057  25.4829674   3.0965936  39.3688469  26.0650177
   4.5553775  39.4030991  25.6628208  10.3332806   1.4553810  19.9484806
  11.2242470   1.6757059  19.6766949  10.0382748   2.2192512  20.4441681
  19.7166367  35.3168678   2.5738101  18.7983894  35.4281578   2.3274972
  19.9110947  34.4028091   2.3666430  83.3696136  22.1297455  52.5214157
  82.7362823  22.2721100  53.2248726  83.8547058  21.3495464  52.7901344
   0.6798867  25.6861610  24.0588684   1.5528435  25.3066940  24.1597767
   0.8374788  26.5539665  23.6869659  78.2889557  57.2182121  27.7776623
  78.3984604  56.7926178  26.9273052  77.4545135  57.6819496  27.7077179
  68.8838043  29.4036980  56.8336601  69.1110992  29.4483585  57.7624092
  69.3125534  30.1662712  56.4452133  44.8198929  65.5977859  70.4894638
  44.5622520  66.0946350  71.2659912  44.8883934  64.6934433  70.7955704
  12.2928371   7.3581233  33.5582199  12.4477272   6.4201694  33.6699524
  13.0802479   7.7743516  33.9088936  65.0524445  14.8979321  76.6382599
  65.7206497  15.5311241  76.3759689  65.3522491  14.5708170  77.4864044
  33.1023788   5.4885812  75.0398483  32.7186813   4.6336918  75.2352219
  32.5907249   6.1058931  75.5626907  67.0557251  17.8986607  64.9209976
  66.4701385  17.2112293  65.2384186  66.7118454  18.1262245  64.0571747
   0.9058797  48.2945747  27.8565426   1.6735628  47.7229500  27.8445663
   1.1700863  49.0391502  28.3969440  13.0965176  65.2341156  64.4689255
  13.0079594  65.1696625  65.4198380  13.1863413  64.3276825  64.1747513
  45.1763458  32.4779778  24.9836140  45.9736938  31.9705601  25.1352539
  44.4643555  31.8570957  25.1379089  18.0027370  56.4119644  23.4632359
  17.4024048  57.0528717  23.8441162  17.4445934  55.6702271  23.2297058
  62.9508972  15.7401915  53.5242615  62.4926567  15.6091757  54.3543739
  62.9772263  16.6904926  53.4126015  35.6324234  37.7356262   5.3543482
  36.5437431  38.0283508   5.3480434  35.2926598  37.9917259   4.4969063
  62.8807716  49.8217621  27.6805363  62.6885948  49.1957436  28.3786755
  62.3357239  49.5371857  26.9469357  46.2468834  47.3263359  20.0397758
  47.1501999  47.6017380  20.1959877  45.7243233  47.8773270  20.6225052
  84.1384506  40.4988403  57.6428986  83.4594879  39.8583298  57.4307747
  84.9547195  40.0838013  57.3642044   3.0335250  59.6825562   4.3266411
   2.8109751  60.3944817   4.9265308   3.8016586  59.2688522   4.7204046
  40.0550804  43.8491707  22.7051678  40.0344162  43.8041611  21.7492485
  39.2010117  44.2076645  22.9465828  77.6295242  25.4516983  12.9592228
  77.6802444  24.5058994  12.8209286  78.5287094  25.7591133  12.8443623
   2.1120317  33.9540939  69.0944901   2.8449750  34.0080566  68.4812088
   2.5085611  33.6667061  69.9169312   0.4810047   0.2742500  60.8120193
   0.8575751   0.5553890  59.9781189  -0.2679055   0.8554245  60.9446907
  80.4557953  10.8112440  55.7409515  81.0001831  11.5064125  55.3713417
  80.8709335  10.6011095  56.5774536  69.0630722  50.3753700  29.4160786
  68.7531433  49.5734634  29.8369389  69.7231598  50.7213860  30.0167389
  63.3670349   8.5971146  43.4169502  63.3720055   8.7288313  42.4688683
  64.2446060   8.8548794  43.6991768  67.9892578  69.7288818  65.4226990
  68.8830185  69.6748810  65.7610931  67.6718826  70.5817490  65.7195511
  64.7293472  70.0936966  67.3972473  64.7762756  71.0438080  67.5036469
  63.9780617  69.9540634  66.8207932  79.3326950  22.2920284  77.8044662
  80.1914673  22.3575153  77.3867798  78.7965698  22.9441376  77.3532944
  76.3353500  26.3741474  48.5799446  77.1092148  26.5179729  48.0352631
  76.5622787  26.7612133  49.4254723  47.8001328  68.1652069  51.3249969
  46.9563217  67.7384262  51.4735718  48.3550110  67.4773254  50.9573593
  40.5484962  33.3777390  40.4259186  39.6867943  33.1482086  40.0780373
  40.8786621  34.0464668  39.8258972  25.2093620  62.2157898  31.7011108
  26.1517715  62.1827049  31.8654346  25.0819664  61.6683197  30.9263363
   5.5137820  21.5428982  34.2465630   4.9055200  21.1359596  34.8635330
   5.3384099  22.4809628  34.3208008   4.0676775  45.6353798  27.1303158
   3.3571873  45.3880463  27.7221451   4.1805062  44.8746147  26.5604572
   2.6729629  29.5749855  34.9152298   3.1050210  30.4235420  34.8177185
   2.9453533  29.2653770  35.7790451  75.4852219  58.1381950  82.1317673
  75.8253174  57.2595901  81.9625931  74.9586868  58.0425072  82.9253922
  61.0022583  22.0654888  37.1804047  61.8440475  21.6522770  37.3724518
  60.5821190  21.4741516  36.5558777  43.3982849  58.1595764  86.5254745
  42.6544685  57.7536201  86.9706421  43.0242767  58.5359993  85.7288208
  40.1687393  11.6771507   8.3306093  39.7411079  10.8604813   8.5883169
  40.5691185  11.4809446   7.4835954   9.3403168  56.0260048  35.3155899
   9.2855110  56.5132866  34.4935265  10.1820955  55.5726509  35.2696266
  54.2083588  60.5442810  75.6856079  53.2936630  60.7515907  75.8768845
  54.4749374  61.2046776  75.0460434   1.3640052  59.6026726  67.7405090
   1.4289407  58.9569893  68.4441528   1.0811614  59.0981483  66.9778290
  16.5468159  47.1948738   7.1558518  16.9661388  48.0495377   7.0561008
  16.0563278  47.0724106   6.3430443   8.4910221   0.8814575   8.1117649
   8.2682114   1.7087806   7.6850057   9.4336519   0.9387801   8.2679567
  67.5575256  61.3767815  81.6010437  68.4187927  61.5941658  81.9576874
  67.7374420  60.7323303  80.9165421  27.9316044  47.1391983  35.7886467
  28.5759430  46.7175598  36.3572235  27.1093941  47.0829887  36.2755127
  41.9663506   6.3387790  11.7217045  42.5799789   6.6000752  11.0351067
  41.1911583   6.8789668  11.5683842  64.6599503  62.0422287  61.6835899
  65.4344025  61.6739578  62.1088333  63.9491425  61.4481316  61.9244804
   8.6532307   7.8714585  55.0773125   9.4307814   7.5285020  54.6368256
   8.5692377   7.3361011  55.8663406   7.6796713  71.4173203  75.6850433
   7.1899319  70.6067123  75.5461121   8.5475063  71.1276093  75.9664001
  73.8579254  43.9763718   7.0626163  74.0913467  43.0798988   6.8216128
  74.5677643  44.2623596   7.6375718  36.3815536  30.3152409  25.3810081
  36.2643089  29.9600716  26.2621078  35.5024033  30.3117943  25.0024338
  13.3957634  27.4462471  12.5316715  12.4559164  27.4615307  12.7124672
  13.6114798  26.5161572  12.4636154  30.2343864   2.4062929  42.5865326
  29.9851379   2.4525828  43.5095520  31.1020489   2.0021219  42.5927238
   5.0478010   2.4854243   2.5433507   5.1763334   1.9715354   3.3406143
   5.6499133   3.2238986   2.6347156  24.3410168  53.3309593  70.0640488
  24.0372047  53.4693718  70.9611359  23.8133011  52.5999413  69.7425613
  65.7933350  22.9245167  85.7533493  65.3376236  23.7648811  85.8018036
  65.9865341  22.7039433  86.6645355  69.7625122  32.3492088  84.3569717
  69.7022171  32.6674156  83.4562225  69.4011307  31.4635086  84.3227921
   3.1495018  71.2826538  39.8980904   3.1070924  70.8688507  39.0359993
   3.3477514  72.2007446  39.7135887   6.1056376  56.6546822  55.7642479
   5.8050079  57.2309685  55.0615730   6.9422760  56.3111305  55.4508133
  65.5273590  61.9811058  73.4246902  64.7721863  62.4104004  73.8267593
  66.2771301  62.5092354  73.6988297   6.5438304   9.1694002  13.2683363
   6.3613272   8.2384586  13.1407719   5.6823387   9.5863943  13.2549229
   8.7723627  24.7333221  38.6454659   8.3288651  25.4090652  39.1582146
   9.4758062  24.4230576  39.2156715  34.3197250  51.7275848   2.1468096
  34.7970963  50.8989487   2.1881790  33.5078964  51.5136147   1.6870444
   9.8063517   1.3516631  73.9630356   9.6810637   0.4791776  74.3362656
  10.4610405   1.2265345  73.2760391  45.5455017  39.0726471  20.4542980
  46.4316101  38.9070244  20.7761860  45.5946655  38.8945618  19.5150948
  70.8493881  46.5871391  79.2883072  71.4192200  47.3210297  79.5183640
  70.2226410  46.5351791  80.0099182  33.7268639  65.6679535  70.7980423
  34.5105515  65.1221390  70.8624878  33.5851250  65.7733994  69.8572845
  12.1451273  57.7867470  24.1742687  12.7417717  58.2063293  23.5544338
  11.3467903  57.6304016  23.6698418   9.7118406  69.8005295   1.7130557
   8.9981394  70.0634537   2.2942040   9.3540859  69.0687943   1.2102590
  15.0997934  51.9694710  72.8896179  15.0194464  51.3285217  73.5959854
  14.2983809  52.4898415  72.9460754  80.8600464  65.6871414  63.2237320
  80.5089264  66.5771637  63.1953125  81.5716324  65.7306671  63.8624611
  72.6826859   3.2854428  19.2619438  72.0361328   3.1429996  18.5706310
  72.9558029   2.4049487  19.5195637  33.4710732   3.0295744  65.6612091
  33.1349640   3.1438086  66.5501480  34.3083534   3.4934623  65.6602707
  36.4937897  46.7316704  43.8713608  35.8887482  47.2976151  43.3919220
  35.9715958  45.9631348  44.1013451  71.1540604  19.3806496  11.3076315
  72.0866241  19.1831322  11.2208109  70.7167282  18.7033005  10.7917166
  34.8298149  18.4996490  76.9814224  35.1615715  17.6800766  77.3481216
  35.6133652  18.9669437  76.6917343  84.1842651  65.1050949  78.0319138
  84.4791107  65.8130188  78.6047440  84.6609192  65.2448120  77.2136765
  20.0990410  16.5227222  28.6477127  19.8762627  16.1118984  29.4830723
  19.3101273  16.4245605  28.1145992  49.5473061  66.4146347  61.7634850
  50.0692520  65.7066345  61.3859444  49.4953804  67.0707703  61.0684853
   3.1548707   7.0892930  88.6629639   3.1523612   6.1675243  88.4049606
   3.5057111   7.5503330  87.9010086  36.8320503  20.2267799   0.1489973
  37.2512779  20.7602596   0.8241867  36.0871353  19.8210583   0.5925343
  21.8129539  49.7899704  44.0684891  20.9840260  49.3409729  43.9026222
  21.7137508  50.1596184  44.9458427  32.4268913  34.6796989  13.3392982
  31.9471779  33.8518867  13.3104601  32.0894966  35.1780968  12.5949898
  72.2226181  44.6692238  43.9195175  72.0894165  43.9732170  44.5629959
  72.5941391  45.3933372  44.4233704  11.8570662  34.3312492  38.3586197
  10.9564848  34.0848351  38.5694923  12.1463327  33.6681023  37.7318840
  61.9925804  20.8785095  56.3112450  62.2001419  21.7728634  56.0405388
  61.1163330  20.9406090  56.6914558  61.9848633  28.8419132  79.7409210
  61.4716148  28.9094887  80.5460587  61.4365082  28.3259068  79.1499252
  21.7039490  25.5691738  18.0680466  21.6377354  24.7028008  18.4695988
  22.6114616  25.8339958  18.2181168   4.0989680  58.0329056  14.9370394
   4.1272621  57.3426514  14.2744837   3.1824977  58.3084450  14.9568691
   4.2506280  46.6066284  14.8956032   3.8447752  46.3817444  14.0583801
   3.9301116  45.9405327  15.5037298  68.5019836  41.6775360  46.3602715
  68.0122681  41.0093384  46.8397827  69.2201233  41.1979828  45.9473190
  63.1586037   7.0658531  79.5081024  63.4301033   7.4746709  80.3299255
  63.1300964   6.1294274  79.7043839  34.1306763  55.4176064  69.5710220
  34.3234596  56.2792473  69.9406738  34.7424965  55.3281174  68.8403397
  11.3021622  49.4315605  85.2664490  11.1040926  49.1797981  84.3644409
  11.7375088  48.6648216  85.6390228  76.2152634  12.0030355  39.4220276
  75.8094864  11.1369371  39.4600868  77.1553574  11.8258600  39.3893394
  44.9676399  39.4906425   0.8995481  45.1164780  39.4401093  -0.0446584
  45.0669098  40.4195137   1.1082940  71.2354813  46.4750252  55.7212029
  70.5106888  47.0080414  55.3943901  71.5108414  45.9560127  54.9655342
  31.6375694  69.1315842  25.9202385  32.2405739  68.8187637  26.5945988
  32.2052307  69.5034637  25.2451801  86.3213196  38.7820587   9.0888844
  86.3188629  38.4666023   8.1851616  86.9905014  38.2545013   9.5249023
  65.4075317  41.6171722  79.3049088  65.4004211  41.3010025  78.4014587
  64.9953232  40.9147034  79.8077545  76.7446671  36.4216347  78.3870850
  75.9629745  36.6728783  77.8950806  76.7716370  37.0335274  79.1226730
  53.2615585  40.3025856  22.5112381  53.2514954  40.5795097  23.4274502
  54.1473427  39.9675789  22.3719959  35.8389397  70.4183044  70.0361481
  35.2641830  69.6669083  69.8902588  36.4674988  70.3826218  69.3151245
  11.2376280  71.8976822   7.9831095  11.5339460  71.4261017   8.7615938
  11.7828598  71.5563202   7.2742910  53.6138687  65.7138443  64.1593475
  54.1254883  65.7852859  64.9651794  53.4995232  64.7722168  64.0309219
  85.7121964  62.4438362  78.0626678  84.8722229  61.9853821  78.0852051
  85.7079544  62.9903145  78.8485260   3.7133675  20.5807533  10.9966774
   4.5228667  20.1673985  10.6965427   3.8339050  20.6862259  11.9403820
   6.4786019  68.8444214  75.2400894   5.6051102  68.6631088  74.8931427
   6.5931554  68.2074661  75.9453506  85.5260239  19.6454372  35.8008919
  85.4351120  19.7142658  34.8505058  85.2406998  18.7548218  36.0049133
  81.8392181  40.3012390  79.8055878  81.6910553  40.6833725  80.6706009
  81.0618668  40.5413857  79.3013153  81.3511505  59.6187592  28.2128315
  81.7597809  58.8671761  27.7834396  81.0843430  59.2885895  29.0707569
  84.1021576  41.8182411  41.0623779  84.0949707  41.8794403  40.1071625
  83.2237930  42.0919838  41.3265305  76.9029694  68.1094818  22.7800407
  76.6987534  68.9978180  22.4878368  76.8163757  67.5724258  21.9924450
   3.4508355  18.6538353  21.7838516   3.0034184  18.5446587  20.9447269
   2.8977654  19.2632637  22.2726688  27.1719666  24.7115974  88.1392670
  27.0412750  23.7667885  88.0587158  27.1587734  24.8756847  89.0821991
  50.9192886   1.7267432  23.0165253  50.8905640   1.6437815  23.9696903
  50.0053520   1.6521481  22.7419643   5.4427710  34.2320213  78.6118469
   6.1576905  34.0184059  79.2114258   5.8560424  34.7503738  77.9213791
  53.2767143  39.0021248   3.3221183  53.7425308  38.7028084   2.5413146
  53.8845482  39.6079063   3.7461450  55.3703880  43.0036812  82.8739853
  55.9109039  42.2218323  82.7609177  55.2544060  43.0797691  83.8210754
  12.1781826  54.3347054  16.7374096  11.3481531  53.9763107  17.0517941
  12.0870132  54.3498001  15.7846804  20.1266708  54.2064095  88.4352112
  19.7995567  55.1026001  88.3572693  20.0923443  53.8605003  87.5433578
  13.8871059  55.4612923  41.7100868  13.7869577  55.1463814  42.6084366
  13.8150482  54.6737633  41.1707916  64.4431229  15.6536665   5.1267495
  64.8911896  15.1736469   4.4302969  63.5380936  15.7262688   4.8236332
  22.3316746  11.5905981  75.0602798  21.6603394  11.8486385  74.4286499
  23.0167675  11.1845770  74.5292206  24.6814213   1.3362983  11.6450081
  23.8373470   0.9087920  11.5000725  24.7025414   2.0478253  11.0050745
  77.5337219  26.2627354  26.4957790  77.3624649  25.3230991  26.5589027
  78.4882812  26.3315983  26.4786282  19.2456474  31.1436749  72.3845367
  19.7825184  30.3595276  72.2700119  18.4511280  30.9655704  71.8813019
  17.9429741  35.8688431  30.6268578  18.4920807  35.3296928  31.1960926
  17.8751259  36.7072678  31.0836678  81.5408249  62.9164009   7.7733498
  82.0941391  63.3053131   8.4507151  82.1567612  62.6090736   7.1082125
  31.5377903  43.8949814  37.5445099  30.9117393  43.5416870  36.9124680
  32.2653236  43.2730331  37.5342522  60.3603859  58.7141075  29.7284622
  60.0108070  58.0135117  29.1778355  59.6708870  59.3779869  29.7378769
   7.9480147  48.3031883  66.5606537   7.5117435  49.0425720  66.9839859
   8.3051138  47.7891693  67.2848740  44.7259521  14.3207254   7.1636610
  44.4613342  14.5998096   6.2871213  45.6216011  14.0015936   7.0532179
  81.5176163  28.1854725  51.9891815  80.8589096  27.4960194  51.9055595
  81.8062897  28.1316948  52.9002266  62.9688606  40.0171013  17.9331894
  63.1087990  40.1186905  18.8746395  62.5606384  39.1559944  17.8432693
  33.8245926  28.4975433  56.1675835  34.0384407  27.6876335  56.6307716
  34.5634499  29.0787811  56.3478203  43.1739655   1.3929683  60.2473831
  43.8361855   1.1322107  59.6073036  43.6082382   1.2950212  61.0947571
  36.3226776   4.2396078  83.4844437  37.1302643   4.1717706  82.9750977
  36.5220795   3.7973747  84.3096085  81.3680725   1.6792589  19.9110451
  80.6584473   1.5511769  20.5405331  81.0628738   1.2450787  19.1144447
   1.4585220  24.3685703  81.5293503   0.8468774  23.6994381  81.2221298
   1.6375371  24.9028301  80.7555618  75.0458374  56.0987358  55.5446014
  75.8840103  56.5123901  55.7509651  75.0211182  55.3183479  56.0983276
   8.9785509  40.7712402  15.8877878   9.6113491  41.4245987  16.1859875
   9.5151529  40.0638161  15.5302401  12.4067612  39.0232697  14.0827799
  13.2919779  38.6866798  14.2218113  11.8510504  38.4693794  14.6310701
   0.2214215  50.6177559  17.9754868   1.1718365  50.7238693  17.9344635
  -0.0922312  51.4244843  18.3841953  73.9134598   3.5981250  82.4614868
  74.8248444   3.8033600  82.6700287  73.9681396   2.9703491  81.7409744
  51.8548851  56.0300560  46.6079788  51.9207115  56.9005356  46.2153397
  50.9257050  55.8087883  46.5455551  34.1533241  31.1015110  14.7444973
  33.4518356  30.6361618  15.2001247  34.4428215  30.4925575  14.0650873
  86.2392578  45.0867920  17.0942593  85.5079193  44.9509506  17.6966934
  85.8610077  45.5787163  16.3654442  10.1625862  57.2368355  22.1094475
  10.2152700  58.1299934  21.7692699   9.5253258  56.8019485  21.5428753
  84.1911621  34.4881630  61.5100708  84.3724594  34.1571541  62.3897285
  84.7871628  35.2298622  61.4057045  38.2581673  22.4685917  20.9179478
  38.9406624  22.6559162  21.5624180  37.4414825  22.5079212  21.4156494
  26.5134468  70.0657196  29.6353626  26.3633404  69.1240082  29.5524082
  26.2959461  70.2636032  30.5462780  61.4341660  36.2342339  71.6358185
  62.1288567  36.8899422  71.5751343  60.7468796  36.5589066  71.0540466
  74.2155304  69.3564758  74.8973541  74.3254547  68.6144791  75.4919968
  74.4004135  70.1252213  75.4368744  12.3958559  45.8388100  80.0732193
  12.9744101  45.1147385  80.3124466  11.6005592  45.6888428  80.5843430
  84.0120773   2.4208894  24.2229233  83.5417252   1.5896753  24.1590214
  84.4491653   2.3839636  25.0736980  45.5352936  34.2267113  78.7971725
  46.2692757  34.2895393  79.4083557  45.6853867  34.9333420  78.1691742
  20.3595142  27.6282959  20.1348610  19.8317623  27.5866489  19.3373814
  21.2175484  27.2953339  19.8719044  15.5487738  43.9346619  79.1529694
  15.3839855  43.1195297  78.6790161  14.8782043  43.9544868  79.8357391
  42.5991440  71.5944061  13.5198669  41.8007088  71.3945007  13.0312252
  43.1542015  70.8242874  13.3971443   9.5737228  18.9146118   1.0965393
   9.7608252  19.6207428   1.7150886   9.3644075  19.3630981   0.2772230
  60.2980232  53.3502960  32.5947380  60.7123451  52.4943581  32.7040062
  59.4700851  53.1610146  32.1532364  28.4927444  32.9116592  79.1631622
  29.4115715  32.7278328  79.3585968  28.2443810  32.2410088  78.5269394
  71.2905426  44.2164497   7.5585914  71.3517990  43.4950829   8.1847811
  72.1795959  44.3136520   7.2174754  48.2428017  65.2401047  40.8599396
  48.8252144  65.9505310  41.1288643  47.7041130  65.6214447  40.1666718
  85.7035675   4.9557796  69.4101105  84.9800949   5.5562654  69.2305679
  85.3161774   4.2698169  69.9538193   3.2433493  56.2961998  36.1100006
   3.6557961  56.7802391  35.3945808   3.6280062  55.4211082  36.0601425
  81.9439240  52.8475494  22.5923309  81.8721161  53.0922203  23.5149422
  81.0984879  52.4502983  22.3833866  64.2737350  62.1342316  37.8870087
  63.9059029  62.8688316  37.3957901  65.0989380  61.9385643  37.4431801
  41.8566170   0.6281066   9.5778265  42.7551575   0.3746793   9.7890949
  41.6767464   0.1980572   8.7418032  11.5911160  13.2290554  40.8597298
  10.9416256  13.0378008  40.1831093  11.5023527  14.1688786  41.0181122
  70.2818832  42.0076904  88.6769867  70.4160690  41.7393417  89.5859451
  71.0823669  41.7377396  88.2268906  31.9333382  54.4488754  84.7159424
  32.5197906  54.8430176  85.3616638  31.1546650  55.0054245  84.7283936
  72.7901917   3.6531880  45.2907181  72.9647980   3.3110394  46.1674614
  72.2388992   2.9875877  44.8792686  12.4842377  70.7985916  81.1817703
  11.5618687  70.6832275  80.9533920  12.9499207  70.1828156  80.6159210
  39.1465836  63.5259819   3.2439315  39.2710953  63.3809738   4.1818557
  38.4323769  62.9359550   3.0030882  69.5240860  43.4737206  64.2073212
  69.9281616  44.2925491  63.9201393  69.2001724  43.0710068  63.4016380
  44.5995903  49.0712624   0.8310759  45.3195686  49.5510674   0.4216267
  44.9764061  48.2208710   1.0570855  25.0223999  66.4639282  56.9595451
  24.7453041  65.6732712  57.4224815  24.7465534  66.3205032  56.0542412
  69.2154236  44.2497559  77.9161835  69.9923553  43.9297333  78.3746490
  69.5486832  44.9191093  77.3185806   5.9175315  51.2552757  80.5214767
   5.4464769  51.4668236  81.3274460   6.4645786  52.0229607  80.3552475
  54.0074959  28.8291969   8.6749372  54.3772926  28.2914333   9.3751459
  53.0616264  28.7031040   8.7502174  50.6195145  48.1731110   9.5837374
  49.6949501  48.3655090   9.7399330  50.6878891  48.0816269   8.6333761
  47.7101326  62.5959091  62.3012581  48.3479538  62.0763435  62.7906113
  48.0633240  62.6335716  61.4123993  66.0688324  58.2539902  70.2885590
  66.8941727  58.0917664  69.8316956  65.8560181  59.1642456  70.0827026
  70.5984039  45.8902702  16.8947220  70.3053970  46.0311813  17.7950134
  71.3457260  46.4793358  16.7910957  38.7937851  15.7793217  17.3518963
  38.1411018  16.3177204  17.7995148  38.9035988  15.0156279  17.9184151
  63.3865700  26.9981861  75.7970963  63.8330917  26.1760120  75.9992981
  62.9638824  26.8398819  74.9530029  84.3484955  34.0619507   4.6646924
  83.4749680  33.8769150   4.3197980  84.7339935  33.1989822   4.8160481
  81.7978134  69.9437256  33.8636169  81.9945068  70.7173615  34.3918495
  81.0269928  70.1918488  33.3532219  80.6646500  21.1489296  40.3281517
  79.8875504  20.6185379  40.5043259  81.0167007  21.3531361  41.1945152
  58.5119667  27.4899158  81.1639786  57.7862358  27.4576111  81.7872772
  58.0968552  27.3878136  80.3075409  67.9260788  19.3920078  32.9092636
  67.5846710  19.9729347  33.5891151  68.7440338  19.8039074  32.6308403
  75.9334183   4.6951494  68.3004761  76.5665283   4.8513093  67.5997543
  75.7197037   3.7649884  68.2272720  29.0209198  20.8155689  83.0095978
  28.8544216  20.6178150  82.0879669  28.8878078  21.7608833  83.0795670
  68.7884064   8.6769123  57.3206520  68.1454468   8.4142332  57.9793205
  68.3909531   8.4292154  56.4858398  58.6834221  70.3312912  85.7476120
  59.1205330  69.7369385  85.1377640  57.9263649  69.8372879  86.0623627
  10.1161757  55.5390167  81.7366791   9.3587646  56.1228943  81.6960983
   9.7490501  54.6863403  81.9698944   6.9704056  36.7843742   8.8251171
   7.6986794  37.4037132   8.7774992   6.9956002  36.3202438   7.9883499
  27.1976357  11.5448685  -0.3081450  26.3519001  11.6748009   0.1209014
  27.8062057  11.3706875   0.4098642  55.2068214  63.5096359  67.3195953
  55.4776535  62.9691658  66.5774536  54.2912445  63.2725525  67.4670486
  56.4482613  39.3614922  71.9012527  56.9200439  38.8284492  71.2613144
  55.5276070  39.2725677  71.6548386  78.0571823  70.9992218  79.9783096
  77.1998596  71.0984039  80.3922882  78.0260696  71.5828476  79.2202530
  82.3418427  24.4240856  73.9413147  81.6729431  25.0632572  74.1868134
  82.6722336  24.0907326  74.7755508  65.6138077  29.0299587  12.3539228
  64.7661743  28.9727249  11.9129353  65.5819168  28.3469200  13.0237541
  22.4447651  29.6895084  19.4933338  22.1309280  29.4271393  18.6279430
  22.6134472  30.6282501  19.4124756  65.4763641  19.0162125  51.0732269
  65.5781326  18.1367455  51.4371147  65.5038910  18.8877773  50.1250839
  75.0685272   6.3421607  80.2794266  75.3068619   6.5708771  79.3810272
  75.4578857   7.0341110  80.8140640  35.7336235  41.4414444  32.9270248
  36.3070717  41.9531136  32.3564262  36.3169594  41.0892868  33.5992851
  65.7832413  13.4903679  23.2652855  65.0279770  13.9902191  22.9555283
  65.8492584  12.7543964  22.6568279  81.3535309  67.1700668  20.1245766
  81.4742203  67.9031448  19.5210285  81.9901733  67.3267136  20.8219891
  49.5160408  23.0566349  12.7056293  49.1385384  22.6132069  13.4652967
  48.9553642  23.8207073  12.5712175  79.3535156  26.9363956   0.8900288
  78.4097595  26.8964844   1.0448008  79.6069717  27.8126297   1.1802129
  16.6549931  44.6812248  47.7781639  16.9514942  43.7766571  47.8785477
  15.9533529  44.7761726  48.4223022  54.7111626  38.1368980  76.0061569
  55.5710106  37.8046570  75.7482605  54.4954758  37.6508980  76.8020935
  16.5405807  28.3054981  72.0631332  16.8842983  29.1019688  71.6585083
  15.6190891  28.2841835  71.8050003  79.5078735  31.7283230  57.0012779
  80.0865707  31.5639915  57.7458191  78.6257248  31.6053581  57.3518715
   2.9264174  45.6671410  34.5241814   3.8069582  45.4310379  34.8159599
   2.6792896  44.9682083  33.9186668  71.0452194  46.0422821   9.4148788
  71.8392181  46.4732895   9.7311602  71.3448486  45.4860802   8.6957846
  35.7317238  53.3616219   9.1426477  36.5532494  53.6571274   9.5350819
  35.7385979  52.4115944   9.2594299  35.7430878  20.5957260  23.3432579
  35.2591629  21.2012596  22.7816734  35.9474525  19.8532257  22.7747860
  75.3598175  71.5443039  26.9895573  75.3038559  71.0776367  27.8234177
  75.0656433  70.9073563  26.3384094  56.8955994  14.8698654  34.6220703
  55.9810295  15.1444359  34.6884003  56.8516731  13.9583216  34.3332977
  77.2043991  41.7325401   1.4689494  77.3241882  42.4455872   0.8416989
  77.8154297  41.9322472   2.1781676  19.5032692  71.5456161  25.0460625
  18.7677650  71.6060715  25.6556606  20.2211018  71.1917572  25.5711651
  81.0492401  65.3485336  72.1524658  81.6478348  65.6715317  72.8259583
  80.2407150  65.1512146  72.6253128  44.8554459  45.1015663  18.7756901
  43.9700432  45.0222092  19.1306477  45.1665726  45.9485130  19.0952358
  18.7645149  42.1564560  84.2078171  18.6859970  42.8280678  84.8853073
  18.5803528  41.3346558  84.6627426  48.0625572  62.2406120   5.7207861
  47.1714554  61.9859886   5.4813352  48.3070946  62.8978729   5.0692954
  72.9479599  12.6227932  41.5771027  72.4937744  13.0999804  42.2715416
  72.2831802  12.0372658  41.2145309  34.0789261  28.2480545   2.4833708
  35.0034676  28.0670776   2.3139555  34.0825958  29.0618553   2.9873016
  56.1365013   2.4711637  24.4497738  56.8332634   2.9282873  24.9207230
  56.5355759   2.2193456  23.6169720  18.2570419  48.6234245  18.8931389
  19.2068386  48.5610008  18.9942360  18.0548649  49.5381546  19.0896759
  23.8542080   1.8264788  84.4612503  23.7535172   1.8319128  85.4131241
  23.7107964   0.9139235  84.2104416  51.1837234  38.7999306  31.3019104
  51.2168922  39.7519836  31.2085152  50.3434830  38.6301765  31.7278366
  69.0753555   9.4025593  10.6855345  68.6387405   9.8682203   9.9722614
  69.6382217  10.0612345  11.0924244  44.8899841  10.6731358  19.0492725
  44.6090164  10.8301954  19.9507275  44.1575394  10.2053003  18.6481686
  80.0331421  11.1387644  37.8189926  79.4898376  10.4174452  37.5015831
  79.4271545  11.8745327  37.9064941  70.6835709  21.4356861   5.7990317
  69.7867889  21.5645332   6.1079140  71.1497879  22.2222252   6.0822783
  47.7357483  49.5346451   9.7958727  47.4273224  50.3575363  10.1752901
  47.4103851  48.8595314  10.3913488  52.8621483  37.0930481  23.7494831
  53.2312050  37.6980972  23.1061001  52.0508308  37.5129318  24.0353031
   9.5721769  42.3419418  81.9895020   9.4674187  42.1677628  81.0541306
  10.4317207  41.9804268  82.2056580  28.0271969  27.7161503  15.0519590
  27.1392708  27.5629177  15.3749723  27.9105186  27.9443092  14.1296997
  15.5223055  66.1393356   2.0332425  16.0842400  66.9023209   2.1685791
  15.9663353  65.4295349   2.4971974  42.8542900  33.9485741  79.5834274
  43.7523727  33.9924545  79.2551651  42.7735825  34.7065735  80.1623535
  84.6337814  25.3355408   5.4039288  84.4517975  26.1483383   4.9322586
  85.5317078  25.1122513   5.1587596  84.6899796  67.6106644  60.4935951
  84.9248199  66.7018204  60.3062782  84.0923080  67.8541794  59.7866859
  40.7742462  26.0982780  12.9055023  40.2970581  25.4950123  12.3357725
  40.2871208  26.9200859  12.8457251  18.7463722  16.7213306   8.9541903
  19.4966850  16.7322998   9.5484457  18.0036011  16.4868450   9.5105534
  13.9116211   3.0366800  28.2478428  13.5182199   2.2064841  27.9790630
  13.2170525   3.6830053  28.1210766  66.4040070  54.4665222  56.4700241
  66.2194519  55.3958168  56.6063499  67.2273788  54.3152542  56.9341431
  80.0389938  40.8689613  25.4257736  80.7323151  41.3291016  24.9526939
  79.4586487  40.5396080  24.7395115  85.2505798   4.9532962   6.9757266
  84.6879349   4.7476377   6.2291579  85.0483246   4.2764916   7.6216826
  11.8759222   8.0493736  67.8811569  11.1595345   8.5751266  68.2369690
  12.5491285   8.6885614  67.6477814  15.3487902  45.9995308  70.3634262
  14.6909409  45.5002060  70.8473053  15.8278770  45.3405647  69.8609619
  27.4038410   4.8834271  62.4141998  27.3319359   5.5676537  61.7486992
  27.4442348   4.0674596  61.9154053  52.8968506  68.9918976  61.7608376
  53.1280823  68.0985947  61.5063515  52.7205658  68.9353714  62.6999626
  55.9384575  51.4267883  13.4865007  56.5186920  52.1798134  13.5983534
  56.3352242  50.7374954  14.0191231  55.0128365  18.7853222  36.2833939
  55.4128265  18.6233177  35.4289970  55.3083153  19.6635342  36.5235329
  16.9456387  30.4113216  62.4771233  16.6022568  30.8225060  63.2703743
  16.8884449  31.0945663  61.8091888  55.7315598  51.7412300  51.6649246
  56.0476990  52.5684280  51.3015671  55.2225342  51.3473854  50.9563980
   3.2489555  36.4126701  28.2704277   3.9379697  37.0771103  28.2732487
   3.3650415  35.9437408  29.0967827  67.4206543  65.5125732  32.0143852
  67.9427032  65.9141464  31.3198071  66.8240204  64.9219589  31.5545654
  60.9279938  30.7609062  59.7212410  60.7040291  31.1638145  60.5601273
  60.0834160  30.5412006  59.3279877  12.7585344  45.7414703   8.1271400
  12.9464149  46.2117119   7.3148570  13.3300743  46.1493301   8.7776966
  63.4521828  62.4577026  14.6676264  64.0747452  62.5957146  13.9537630
  63.2924614  61.5139236  14.6670284  68.0601425   8.0743618  27.5797215
  68.8148880   7.9959612  26.9962406  68.3978958   8.5353928  28.3475800
  55.0177689  46.2099915  39.8443298  55.5463829  45.7985725  39.1605644
  54.9993553  47.1372375  39.6074638   8.7392492  39.8693237  65.1415329
   8.8464613  40.8171120  65.0613327   8.1686182  39.6301804  64.4111786
  74.8813400  51.2184029  65.3287888  74.0805511  51.7235985  65.1882553
  75.4762650  51.8287849  65.7643661  79.6437149  29.8834076  79.5804214
  79.9683380  30.7361984  79.8695602  80.4324951  29.3537598  79.4640961
  59.2899857  58.9539680  66.0362701  58.6181908  58.5396461  66.5778046
  59.2700424  58.4646721  65.2138214  73.1293869  68.5876312  35.2175255
  73.0422211  68.0602264  34.4234962  73.1175079  69.4927673  34.9063568
  60.4908142   1.8696007  76.9950638  60.0692596   2.1349461  77.8124466
  61.2613335   2.4336457  76.9288635  70.2956009  20.7201977  75.1996994
  71.1303329  20.5562878  75.6385498  69.8727951  19.8623047  75.1610718
   4.2833786  29.7978325  61.8709297   4.9044862  29.3595924  62.4526558
   4.2814512  29.2637882  61.0765610  22.8145771  71.0322952  59.3862762
  23.2039223  70.2099838  59.0888824  23.5628300  71.6070480  59.5475502
  45.6043282  30.1638165  79.7295990  45.9742165  29.6758595  78.9938583
  44.7676506  30.4936218  79.4018326   5.9263501  59.1768188  37.5384636
   5.0206189  59.4463043  37.6909828   6.1395545  59.5312233  36.6752281
   9.1655731  26.7732010  20.5743504   9.8684502  27.2752914  20.9867840
   9.6177855  26.1558628  19.9993458  15.1605043  64.0140991  59.2102432
  15.5548201  63.4134789  58.5777855  15.5572948  63.7744446  60.0477104
  72.2081146  32.2830582  25.6637688  71.9958344  33.1541519  25.3285618
  73.1548538  32.3042717  25.8032894  86.5982437  41.7862358  50.3286285
  87.1755219  42.4995842  50.6008759  86.4789200  41.9202461  49.3883972
  11.7849131  69.6775589  58.0185051  11.4958000  70.5894852  58.0506134
  11.3038921  69.2487335  58.7262917  32.9603806   3.5654218   6.5027924
  33.3575211   4.3264918   6.9262114  33.6833954   2.9477489   6.3934274
  62.9319191  45.5701332  75.3337479  62.0443840  45.8376846  75.0951462
  63.4896088  46.2806053  75.0168152  63.0489655  63.5765305  83.9181442
  63.4734612  62.7296906  83.7806931  62.1645050  63.3564339  84.2105789
   7.5152411  26.0362568  86.0686493   6.8376775  26.7071609  85.9848175
   7.5166645  25.8122616  86.9992676  49.6044159  17.7853699  63.0846405
  49.2683792  16.9085922  62.8987122  48.9315796  18.1883564  63.6333885
  74.6959381  40.4989014   1.0026561  75.4812469  41.0018806   1.2183795
  75.0292740  39.6790199   0.6380828  46.2878761  55.1973038  46.4833679
  45.9589043  56.0890312  46.3701134  47.2175980  55.2552261  46.2631569
  18.5700111   3.6639094   7.9865084  17.6681290   3.9727199   8.0729771
  18.8791180   3.5719039   8.8877411  32.0448074  44.1578331  71.0158539
  32.3834953  43.7501221  71.8129044  32.7479515  44.0516281  70.3751144
  27.7317219  28.0665951  78.0757523  27.4872360  28.5045414  78.8910141
  27.1754665  27.2881870  78.0458755  79.6943436  50.8903770  11.1915531
  79.8177185  50.2837639  11.9216442  79.9219818  50.3796043  10.4146843
  11.9503431  36.6866722  80.7771988  11.2133694  37.2032051  81.1032257
  11.5777435  36.1553268  80.0735779   5.1438594  55.6631584  28.5339680
   5.3032393  56.6043510  28.6046009   5.4159551  55.4403076  27.6437244
  44.0237808  69.8938522  67.7960892  44.2270164  69.9804688  68.7274399
  43.1338692  70.2362900  67.7122726  63.7400932  28.8813744   7.6804652
  64.3219223  28.1304989   7.7983475  63.4237442  29.0799313   8.5617876
  36.8220215   3.9002202  58.5546036  37.1904755   4.5586448  59.1436310
  35.8878746   4.1060634  58.5196266   5.1070042  11.5747480  34.1356659
   5.4757996  12.3912983  33.7988167   4.2192550  11.5476885  33.7787323
   1.1725851  36.9810028  10.1971693   0.8397357  36.1252022   9.9268990
   2.0764697  36.9967003   9.8825617  16.2837162  54.0480309  59.9231033
  16.8419819  53.5422401  59.3325577  15.5274353  54.2904320  59.3887672
  28.4366913  63.1758499  16.4167099  29.3892002  63.2610626  16.3754787
  28.1820869  62.9046288  15.5347519  53.1011810  57.9016533   0.7608734
  53.3591270  58.0433807   1.6717021  53.2743759  56.9733200   0.6045710
  85.7477417  20.8044739  19.7138557  84.9081421  20.4518700  20.0087547
  86.3536987  20.0663776  19.7791309  67.0267715   1.2574706  84.2589264
  67.6069641   0.9231614  84.9429169  67.6024017   1.4082209  83.5091553
  37.9070587  56.4389153  23.5114117  38.2931595  57.2892456  23.7214012
  37.1538467  56.6477509  22.9588814  35.9216614  44.4214363  22.2684650
  35.2048225  45.0514336  22.3424664  36.3928299  44.6864281  21.4785233
  26.3573475   0.9947539  87.7226334  26.4526787   0.7760827  86.7956390
  26.3862095   0.1501622  88.1721497  37.6821098   0.6997348  64.1314011
  37.6345634  -0.2305963  63.9112740  37.2091446   0.7742223  64.9602432
  52.1564445  50.5262871  35.8457031  51.6918449  49.9833260  35.2088585
  52.2188339  49.9778748  36.6277428  32.7816277  60.2115021  87.1795120
  32.2984161  59.6357040  87.7721329  32.6584091  61.0880394  87.5438385
  67.3626480  47.9707527   5.6345873  68.0430145  48.0221138   4.9632502
  67.7713776  47.4886360   6.3534298  73.2783813  19.8764114  13.8707561
  72.6778717  20.5823727  13.6315231  73.3574295  19.3494377  13.0755949
  74.9408035  24.4378490  87.5445404  75.3243561  23.5971146  87.2949677
  74.8904648  24.9307041  86.7255249  33.7311134   1.7597016  54.4491272
  32.8956070   2.2037520  54.5939789  34.3199005   2.1382716  55.1020012
  25.2124443  40.3732681  17.3652077  25.3336334  39.4692268  17.6554718
  24.9281101  40.2963257  16.4544563   0.2261744  55.3442497  36.4309006
   1.0687453  55.7948265  36.3735771   0.2898355  54.6350098  35.7912407
  24.1729412   8.8834000  23.3896179  23.8037834   9.6093588  23.8925476
  24.9828606   8.6612787  23.8488827   7.6166220  53.0314217  79.2447128
   7.7271042  53.9688110  79.4038696   8.5061646  52.7050552  79.1089554
  56.1096725  22.7203369   9.1291838  56.9185600  22.9891052   9.5647249
  56.0442810  23.2972984   8.3682165  58.6351204  40.6306953  67.4224243
  57.8340073  40.9724693  67.8194656  58.5457115  39.6796227  67.4832993
  71.6579666  68.8102341  22.0880070  72.2064209  69.4876938  22.4835720
  71.6969681  68.0797653  22.7053642  31.3686008  55.9224854  29.3170624
  31.5514812  54.9829178  29.3177509  31.4988556  56.1925125  30.2261009
  47.3175316  22.9010296  29.4655724  47.8050728  22.4158669  30.1312695
  47.7113419  23.7734604  29.4685936  25.2072296  70.6448212   1.3701184
  25.6396084  69.8108444   1.5538483  24.9715061  70.5934448   0.4438210
  73.5993195   8.8870392  32.3981895  74.0460815   8.8078518  31.5553608
  73.7372665   8.0403719  32.8228760  59.0179787  54.9168739  18.4710026
  58.4402504  54.8769798  19.2331524  58.9216957  54.0614395  18.0524368
  70.3656311  36.9318008   6.2708516  70.3526535  37.6030655   6.9531016
  70.6570435  37.3944244   5.4851775  22.6315842  50.1287804  82.9332428
  21.9332829  49.9427338  83.5609360  22.9450111  51.0003014  83.1750031
  10.3116732  12.2001247  33.9267235  10.1443977  11.2611256  33.8459167
  10.0159740  12.5685978  33.0942459  73.4023895  65.8643265   6.6634617
  73.4252777  66.7249908   6.2451806  74.2443008  65.7942581   7.1134601
  82.4196854  48.2641258  30.4187489  83.2028961  48.7429352  30.1475315
  82.6145096  47.9708138  31.3088303  23.1114235  37.2734947  70.6599960
  23.3154221  36.3575478  70.4711761  23.9629002  37.6804390  70.8200455
  10.2635050   1.2059225  87.6434174  11.0997648   1.3101927  88.0973282
   9.6458874   0.9610071  88.3324738  28.3929100  50.6606789  51.0414047
  28.5818634  49.9495201  50.4292145  27.5578480  51.0195732  50.7412415
  71.4236374  37.6873398  17.3210468  70.7630157  38.3508797  17.1222496
  71.1725082  37.3493500  18.1806583  86.2486420  69.6116791  71.2721939
  87.1114731  69.4954758  70.8743820  85.7971725  70.2233582  70.6906052
  27.7198391  48.5368767  13.0601892  27.2384396  49.0023994  12.3762474
  27.0694485  48.3763046  13.7438850  27.1171761  67.2669678  40.2597618
  28.0637455  67.2759247  40.4017448  26.7539272  66.9501038  41.0867310
  56.2541046   0.2294317  -0.0771753  55.3156776   0.4175847  -0.0908717
  56.3272476  -0.5884328   0.4147387  77.8455658  70.7526932  76.4559479
  78.7850342  70.8148041  76.2833862  77.6729736  69.8125381  76.5065079
  65.4584122  47.6069221  38.4153786  65.0878448  47.5100479  39.2926064
  66.3307419  47.9723167  38.5628815  59.4795380  69.9416580  59.8136101
  60.1534195  69.2714462  59.9273567  58.8113747  69.5201721  59.2731133
   9.3897352  42.4462090  66.7417526  10.2990618  42.6352119  66.9733429
   9.3452845  42.6028671  65.7985077  32.7124901  70.3027725  31.4723434
  32.5613365  70.6914444  32.3339233  32.4809265  70.9951401  30.8532829
  79.2563553  37.1145096  62.8814125  80.0308151  37.1354752  63.4435539
  79.0635300  36.1831131  62.7739716  84.6004562  45.7351036  57.3855515
  84.1466522  44.8924675  57.4017830  84.8457031  45.8574333  56.4684258
  81.1603165  36.4065971   7.5598235  81.8918228  35.8973885   7.2107782
  81.0348587  36.0687523   8.4465885  17.9104309   3.9479506  41.5121765
  16.9733906   4.1359558  41.5655022  18.1739616   4.2848554  40.6558609
  32.0233231  62.0839958  46.0466232  31.3856316  62.6670609  46.4584618
  32.7337265  62.6629524  45.7702713  55.5368538  51.4727974  10.7389307
  55.9431343  52.3162270  10.5394602  55.5076523  51.4411926  11.6951628
  73.3126831   6.3077383  13.0957575  73.2362137   7.2617645  13.0810051
  73.8241806   6.0963545  12.3147831  47.0400848   5.9338279  13.5461302
  46.0841637   5.9828882  13.5397167  47.3271790   6.8388901  13.4250107
  16.7407551  27.9398518   7.8717790  17.1882668  27.2460594   8.3561525
  17.1350098  28.7500877   8.1947556  34.4242821  41.6891747   0.3988050
  35.2896080  41.9922256   0.6737623  34.1595879  42.3068848  -0.2828113
  44.1431160   5.9409037  30.1017208  44.1349602   6.0792923  31.0488281
  44.7499313   6.6018462  29.7683086  59.1053085  71.5425034  30.3775425
  58.6075821  71.3712540  29.5780602  58.4436302  71.7911453  31.0229797
   1.1463896  62.6074905   0.6995555   0.2891627  62.8446617   1.0533140
   1.0515728  61.6924171   0.4352148  46.3445206  68.9100571  22.7444878
  46.4736481  68.8079910  23.6874294  45.4336281  68.6547470  22.5984573
  32.6745453   7.9246421  49.7344818  33.1091995   8.6257792  50.2199860
  33.3705559   7.5300212  49.2090492  61.9431648  45.9391289  59.3747330
  61.9022484  46.5985107  58.6820755  61.0320892  45.8137131  59.6401482
  58.0214081  10.5268250  26.3482056  58.5301399  10.0084372  25.7247467
  58.6715660  11.0671530  26.7971745  27.0733662   6.7350564  86.6849365
  26.3880863   6.9581504  87.3149033  27.2038250   5.7933640  86.7964172
  44.6951218  13.8079176  85.4708710  43.9374428  14.3268499  85.7408066
  44.7351418  13.9186840  84.5209503  40.2782936  49.5920601  38.5246124
  39.9235916  48.7122345  38.6523895  39.5694199  50.0770569  38.1021080
  39.2764587  64.7654572  37.9179420  39.1637077  64.9728470  38.8455772
  39.5215759  63.8402328  37.9074364   4.6281538  51.4008942  56.1739464
   5.3626194  51.2360954  56.7652473   4.4103932  52.3224792  56.3135605
   9.6906033  35.6098022  78.9999466   9.3876324  36.0757294  78.2206192
  10.3346357  34.9835739  78.6693573  44.6980438   7.2189164  61.1410179
  44.5388222   6.3645802  60.7397804  44.9604950   7.7807922  60.4118767
  77.5177002  58.3956146   5.9263940  77.3240585  59.0532112   6.5944510
  77.8319550  58.9010887   5.1767473  10.7421780  32.9003830   3.8529680
  10.9188738  32.5904007   4.7411809  11.5238447  33.3980370   3.6130316
  69.7506714  48.3911629  61.4117126  69.8137283  49.2294998  60.9540634
  70.3275299  48.4879227  62.1694031  79.9174728  44.2358704  39.3435745
  80.6665955  43.7160530  39.6348419  80.2081909  45.1438293  39.4291840
  55.9230652  61.9458160  46.0169830  55.9753151  61.1640129  46.5667839
  55.1035423  62.3668251  46.2765388   9.6964884   5.9007487  73.3549576
   9.2205334   5.0728254  73.4200821  10.5265255   5.6677718  72.9390335
  76.7364655  38.4893646  13.9930925  76.6971893  37.9796524  13.1838455
  76.2607269  39.2952347  13.7918940  63.7006073  57.0867424  78.1726685
  64.3422165  57.4357986  77.5540161  62.8845940  57.0460052  77.6739807
  42.7286873  11.3310022  30.0119114  42.6011086  10.4684381  29.6170177
  41.8825912  11.7674379  29.9125118  33.8615456  57.1337013  27.8218365
  34.3402786  56.9069939  28.6191120  33.2593880  56.4018173  27.6877365
  21.8720055  45.4854889  20.6737461  22.3744392  44.9942818  21.3237514
  21.1539383  44.8998947  20.4335537  83.2708969  64.0102539  70.9987030
  82.4109879  64.3128204  71.2906723  83.3557510  63.1331024  71.3723831
  19.8612213   7.8234062  55.4606743  19.0219059   8.2208652  55.2287064
  20.3288670   7.7486391  54.6288376  75.2334900  13.1198950  29.0422115
  75.7363892  13.0302172  29.8517094  75.8953400  13.2388153  28.3610020
   3.4793243  17.1759319  50.1887131   2.5261772  17.2295399  50.2584839
   3.7312572  16.5254936  50.8442230  78.6082306  42.7590904  16.3512020
  78.9803467  42.1765556  15.6890707  79.3338013  42.9353638  16.9501266
  53.8311195  55.8668213  63.9725342  54.6326981  56.3657684  63.8152046
  53.6490593  55.9934387  64.9036942   2.0860102  30.0424786  13.0948954
   2.6994441  29.3212585  12.9542809   1.4365531  29.6894035  13.7029877
  73.5236893  61.2289772   6.9515810  74.0675812  60.4745483   7.1779561
  73.8463211  61.9339218   7.5129976  65.4239731  50.6533241  36.0531044
  65.5901184  49.7111473  36.0834999  64.7383347  50.7967911  36.7054482
  52.7286720  16.6475449  80.8372650  53.0521469  17.2913113  81.4674683
  53.3149529  15.8977070  80.9385223   2.7573764   8.9910517  20.9384670
   2.7279198   8.1644182  21.4201756   1.8700609   9.1008101  20.5966244
  53.7181511  68.4757385  50.4889603  53.7511749  68.3570328  51.4381943
  53.5877800  69.4164734  50.3696136  46.4170990  44.4659081  65.5118637
  46.4925690  43.5121422  65.4824295  47.3209381  44.7789268  65.4754333
  63.2763596  51.6911201  63.2525291  62.8690948  52.1573181  62.5224419
  62.7934914  51.9864044  64.0244598  63.6124649  43.0748787  70.6346741
  64.0134048  43.4329414  71.4266815  64.2109299  42.3819580  70.3555145
  55.5471725  56.8997536  28.7590580  55.5558586  57.6430321  29.3621292
  56.0258636  57.2095337  27.9902115  69.5155029  35.9593849  86.1077957
  69.3698807  36.2898102  85.2213135  69.5961761  36.7464600  86.6465378
  37.2193832  19.4552269  76.6321259  37.7380333  19.2259960  77.4032822
  37.8315773  19.9192257  76.0610199  61.8931046  27.4035225  16.1956787
  62.2342224  26.7055149  15.6365261  62.5307426  28.1122551  16.1099644
   7.7322059  57.5636406  85.0108337   8.1670055  57.3346062  85.8322525
   7.1625948  58.2985535  85.2381592  52.7202034  68.7072601  10.9963856
  51.9623680  68.1578140  11.1964426  52.7735710  68.7029343  10.0406837
  55.6691628   9.5512905  19.6458340  56.5405884   9.2325840  19.4107285
  55.0846596   8.8202085  19.4455547  42.2685471  43.6352043  35.7865868
  41.4811020  43.1360474  36.0033989  42.8739281  42.9848366  35.4305458
  12.9530668  34.7028694  83.8615875  13.7254343  35.0739479  83.4349976
  12.9187918  33.7983932  83.5501785  75.1585846  17.9560909   1.1591856
  75.2501984  17.3461552   1.8911800  75.7176285  17.5921116   0.4727297
   5.6496840  33.3064575  40.1337852   5.2735724  34.1394310  39.8493042
   6.3706269  33.5544205  40.7125664  28.1006584   0.6363429  39.4817085
  28.2927361   0.5909041  40.4183388  27.9042473   1.5594610  39.3219986
  83.6583557  39.8737221  76.2964478  84.1912003  40.1066628  77.0567398
  83.3222733  40.7100525  75.9742126   1.7096382  65.8610916  25.5166550
   2.0102024  65.6261902  26.3945599   1.0432422  66.5323944  25.6632824
  27.3181400   0.2645171  15.6470890  26.5900040   0.7489256  16.0361881
  27.9767284   0.9329474  15.4581614  69.8963013  52.4824066  69.2052841
  69.2481384  53.1830139  69.2778549  69.7635651  51.9510498  69.9903183
   6.7045488  58.9535027  33.6442451   6.4469047  59.2137375  34.5286255
   7.2065659  59.6978073  33.3122482  57.0235252   6.7430973  57.7076149
  57.4882050   7.5761466  57.6280251  57.2769775   6.2518525  56.9261589
  25.5506706  33.9703941  71.7345734  24.8380241  33.8799515  71.1019745
  25.7241535  33.0763969  72.0293655   2.1899500  23.7037373  47.8187065
   1.4696674  23.0734787  47.8046570   1.7722406  24.5485954  47.6514702
  74.6300201  47.1357193  41.5640030  74.5519028  46.5242767  40.8316994
  74.7750320  46.5773430  42.3278198  70.0508881   1.7368293  62.7971344
  69.6179123   2.1319001  63.5538902  70.6826782   1.1250542  63.1750374
  76.9926071  48.0956116  48.4324951  76.1898041  48.6145973  48.3836250
  77.5299149  48.4168167  47.7083664  21.2200279  33.4615631  18.9183178
  21.8032379  33.3556633  19.6699028  20.3581257  33.2045441  19.2458801
  27.0517464   1.9594281  58.3149529  27.4722958   1.5474591  57.5601997
  27.7780037   2.2977221  58.8387260  74.6278839  36.2440491  72.2816010
  74.4382706  36.7093506  71.4668732  75.0938110  35.4552956  72.0040894
  11.9247150  34.5592880  70.0261002  11.8023310  33.8888817  70.6982651
  11.8599186  34.0830994  69.1982880  74.1968918  40.1838379  10.6738005
  74.0462723  41.1092758  10.4811678  73.5643234  39.7191200  10.1259689
  80.6149445  44.8937378  43.5474548  80.9158859  44.7943306  44.4506607
  80.2561417  44.0362892  43.3188057  77.6399689   7.5862861  52.5605698
  78.3659286   7.0913601  52.9403877  77.8126907   8.4941692  52.8098640
  43.0766945  67.2083893  55.3312187  42.6979980  68.0417404  55.6111221
  42.3888893  66.7963333  54.8083763  48.4889565  36.7277031  11.1657457
  48.7886353  35.9076576  11.5581093  48.9071312  37.4108505  11.6898365
  18.2863903  48.7916679  67.2628555  17.8995991  49.0621262  68.0956116
  19.0907249  49.3060112  67.1940994  54.4850693  31.2484894  88.9902954
  53.9371910  30.5275078  88.6800613  54.7524452  31.7062416  88.1932983
  66.0409241  17.3558960  29.4678669  66.5296707  16.5328770  29.4674511
  66.3425446  17.8131771  30.2528172   8.1687508  59.5042381  59.1053696
   8.0982933  59.2004013  58.2004089   9.1083889  59.6195717  59.2468262
   1.2180218   3.8139479  34.0637245   1.7001591   4.6094093  34.2895927
   0.9932124   3.4223454  34.9077263  34.6153793  70.0305099   2.5866721
  35.3167686  69.9442215   3.2323005  34.5785713  69.1757965   2.1573226
  16.8088112  14.9116240  59.2656555  17.3404064  14.7737198  58.4816780
  15.9596806  14.5259142  59.0501633  27.0127163  26.0918827  20.8194675
  26.3595905  26.7483940  21.0616474  27.3306694  26.3752136  19.9622269
  66.7650452   0.9345196  42.7754021  66.0344238   1.2985941  43.2752647
  66.4557877   0.0743925  42.4911995  47.0080070   2.4093225  37.2077255
  47.6500816   1.7606814  36.9192200  46.8132591   2.9196234  36.4216614
  67.2058105  13.3481083  81.7560196  66.9083481  12.5776329  82.2398758
  68.1600113  13.3218088  81.8269424   5.4096136  45.9533157  35.7696686
   5.2857018  46.1659203  36.6946945   5.7935076  46.7443886  35.3914337
  48.2557144  63.2788696  24.6270981  47.7568130  62.8329048  25.3115292
  48.1409073  64.2103195  24.8153687  40.7100983   0.9758796  61.8476601
  39.9209366   1.3815067  61.4885979  41.3380623   0.9930940  61.1254425
  38.5679741  61.9255486  62.9517059  37.9409447  62.6384430  63.0735550
  39.2851601  62.3196373  62.4551430  85.6402817  33.7236176   7.3402905
  86.1443863  34.3363152   7.8757424  86.1128082  33.6874580   6.5086393
  11.5039492   4.4504194  49.8460732  12.2790508   3.8915646  49.7901154
  10.9461384   4.1592221  49.1247673  27.4452381  19.4513912   2.6356962
  28.2617722  19.4253883   2.1368706  27.0856323  18.5682011   2.5526946
  42.2444839  30.0114899  17.8386612  42.1977997  29.7815800  16.9106560
  42.5987167  30.9006863  17.8475933   6.4928865  35.9632339  11.4855633
   6.7972918  36.1827850  10.6050129   5.7282944  35.4054108  11.3425217
   3.8219802  37.4094048   5.9004564   3.2514071  36.7183456   5.5641317
   4.5480642  36.9411430   6.3124809  27.9535885  16.9031773   0.1117921
  28.2336140  16.3923759   0.8713307  28.7684689  17.1411171  -0.3304608
   2.9388978  45.4831810  20.6139832   2.4197984  45.3599129  19.8192692
   3.0433228  46.4318542  20.6871052   9.6501150  42.6825752  63.9715233
   9.5783443  42.0670662  63.2419815   9.3555613  43.5183372  63.6096230
  17.4354725  10.9033012  76.8625641  16.5139294  10.7880793  76.6307983
  17.9026070  10.8311386  76.0302124  52.7882843  58.4838142  79.2016602
  53.5875626  58.8600197  78.8330765  52.9286995  57.5377769  79.1625595
  33.4141045  37.2757683   8.7502012  33.9468651  37.9900475   8.4006214
  33.5755310  36.5433273   8.1554728  58.5958099  19.2736130   5.4675035
  59.3169479  19.5247707   4.8903470  58.9867516  18.6540775   6.0835977
  15.5408697  36.0049324  19.3230000  16.0289593  35.5738106  18.6214790
  14.6474533  35.6737022  19.2317600  75.0654449  65.1248474  84.2449722
  75.8334274  65.6685867  84.4204407  74.5603333  65.1544189  85.0575180
  16.4825401  21.9904671  71.9728088  17.1678524  22.6310959  71.7826233
  15.8095284  22.4898548  72.4353027  19.9979210   8.1010342   6.3927722
  19.6303196   8.2931843   5.5301132  20.5724125   8.8436375   6.5791359
  34.7376022   3.4694834  57.0025635  33.7974739   3.5477660  56.8405113
  35.1024895   4.3020225  56.7026215  60.0395546  37.6326218  52.8841095
  59.6839943  36.7459717  52.9446220  60.0948563  37.8048630  51.9441605
  34.6654091  62.6375313  11.3091583  34.5256920  63.3605614  10.6976538
  34.9504128  63.0605583  12.1191301   3.5716095  57.2456436  21.0096607
   3.2670028  56.4432945  20.5857677   2.9555242  57.3853416  21.7287960
  78.2587585  54.1729546   4.2914958  78.4065704  54.8659744   3.6479821
  79.1226501  54.0091095   4.6697402  39.1055527  50.2188148  17.2957535
  38.9266434  49.8056221  18.1404400  38.2747116  50.6234169  17.0462818
  51.6035538  53.4604568  84.6261902  52.2003593  53.1117249  83.9640427
  51.2896614  52.6880112  85.0963364  20.4845448   5.5959930  59.8135529
  20.8451824   4.7753196  60.1492119  20.8385201   6.2687864  60.3951721
  43.9609528  70.8693237  64.9202728  44.3745422  70.0627518  65.2278595
  43.0499573  70.6245041  64.7578659  73.9836807   8.2232237   4.8280773
  73.4627914   8.6185722   4.1290746  74.2067261   8.9548140   5.4036283
  69.6010513   5.5284095   6.6453986  69.7906189   4.6547842   6.9875612
  69.2222519   5.3699846   5.7807369  34.4518051   7.7794719   2.8434293
  34.1277771   7.4696813   3.6891651  35.3852806   7.9351535   2.9870181
  73.0639954  20.3956547  22.5628529  73.8246994  20.2131081  22.0112801
  72.5861893  21.0793438  22.0932693  30.3593788  62.1970406  86.0641937
  29.6757679  62.4539185  85.4453888  30.0756016  61.3445511  86.3942871
  15.4449539   0.9117215  14.6518135  15.6134586   0.2510758  13.9799623
  15.0715179   1.6511852  14.1722612  31.9829578  43.9298058  34.3656731
  31.2572803  44.3710403  33.9241562  32.6061592  44.6298141  34.5601921
  30.1110630  59.0002823  58.7512093  29.7961445  59.0344925  59.6544762
  30.0132313  59.8964233  58.4293480  32.0736885  37.6303329   0.7384535
  32.2540512  38.3267708   0.1070451  32.6524086  36.9141502   0.4769196
  65.5899429  23.8636532  71.4393845  65.5192795  23.8369675  70.4851685
  66.3355865  23.2980576  71.6402435  72.6197815  59.0501518  35.1281929
  71.8648300  59.5230904  35.4783440  73.3359146  59.2664185  35.7253685
  73.9468384  22.4596825  20.2590275  73.9452438  22.3824940  19.3049450
  73.0275574  22.5929737  20.4900742  41.9195709  61.1275330  30.5588684
  42.0324783  60.4726143  29.8699818  41.9797058  60.6300888  31.3744431
  85.7360306  17.2886009  11.2381048  85.2956696  18.0418072  11.6317930
  85.3025360  17.1727066  10.3925991  50.6293335  41.4894791  85.0607147
  49.7651176  41.5631561  84.6558228  50.9610863  40.6418419  84.7645874
  15.9877033   4.4510207   7.9478526  15.4527864   3.6574767   7.9674411
  15.7923527   4.8506899   7.1003065  53.9738579  11.6076565  19.6056061
  54.5942459  10.8993530  19.7778263  54.3914337  12.1306858  18.9212799
   0.9318305  19.0999012  70.5939789   1.5848100  18.5436459  70.1692123
   0.2081637  18.5072842  70.7973099  47.0811195  64.4324722  13.5134840
  46.9068832  65.3684540  13.4144402  47.6430016  64.2134628  12.7701397
  29.4429169  49.5180817   6.4318399  29.7326241  48.6201859   6.5933609
  29.9166031  50.0424042   7.0775471  31.7629318   0.4752432  58.8086739
  31.0373859   1.0856240  58.9400101  31.5320320  -0.0035423  58.0126343
  60.6913147  28.6126556  50.5217438  60.9442368  27.9909420  49.8392982
  61.5103378  29.0405693  50.7713890  54.1322556  32.9031563  70.5804825
  54.2965126  33.2047157  71.4739685  54.7625008  32.1952057  70.4469681
   2.9924397  18.6896095   5.6610727   2.2303407  19.0485306   6.1156192
   3.6896958  18.7009583   6.3167686  79.6986465  68.9163971  55.4842873
  80.1413422  68.0876160  55.6669922  78.9412155  68.6712799  54.9528275
   3.4677885  12.9681835  25.7940884   4.1275964  13.2568426  25.1635628
   2.6512020  13.3576727  25.4814911  45.8346558   7.8298683  36.8329124
  46.1241646   8.0334997  37.7222672  46.6376381   7.8376284  36.3119621
  72.6864471  49.6149025  46.2338219  72.7024384  50.2091751  46.9840317
  72.0328674  48.9548798  46.4649887  53.6198235  17.7742920  76.4922028
  53.1209145  17.8518581  77.3054123  53.1968498  18.3885498  75.8921967
  77.8914795  46.1741257  20.0204163  78.7757568  46.4517937  20.2595406
  77.9030457  45.2225952  20.1237831  51.3233299  44.4557381  32.8004837
  51.2852173  45.3974686  32.6333885  51.5056534  44.0678101  31.9446201
  31.4192638  22.3260078  81.3110809  32.0459785  23.0492020  81.2898331
  30.6182575  22.7135105  81.6638794  43.2899399  57.8067703  75.4632874
  43.0740852  56.8975868  75.6707077  42.4827156  58.1667480  75.0958252
  33.5761490  61.1122971  57.4643555  33.2753105  61.8804359  57.9498367
  33.4099464  60.3764038  58.0534782  17.6968994  10.1896896  33.7897453
  17.7150402   9.6574020  32.9944000  18.1068916  11.0160589  33.5342979
  65.2668457  49.8593102   6.5269775  64.3869400  49.4826622   6.5382047
  65.8412170  49.1202126   6.3268094  66.2280121  69.6055756  31.1809158
  65.2906342  69.4781723  31.0349064  66.4481659  70.3794708  30.6624088
  74.8169174  65.4708099  50.1763496  74.1738205  64.7702789  50.0672150
  74.6160889  66.0915527  49.4759369  51.5148888  45.9806633  20.0519276
  51.9324570  46.8399010  20.1117725  51.9548988  45.5511055  19.3183727
  75.3386993  18.4330883  66.6849976  75.6785049  17.5741882  66.4338837
  75.6131516  19.0156422  65.9767990  62.3083458  56.6242714   0.3529957
  62.7518387  57.4489517   0.5516121  62.4058990  56.1020432   1.1492335
  16.8615246   4.9361129  65.3186569  17.0953560   5.8585272  65.2151871
  15.9443359   4.9507518  65.5921249  25.2645302  11.1811905  86.2562714
  24.9854565  10.5207624  86.8904495  26.0375671  10.8010006  85.8390121
  79.7449265   5.9921794  53.3962669  79.9350510   5.4424043  54.1564217
  80.0075378   5.4607968  52.6446686   8.6238918  50.6313820  51.6366310
   9.5022068  50.9329224  51.4045334   8.1261940  50.6932297  50.8213348
   3.2399092  14.3066444  60.0638161   4.0034785  14.2758522  60.6402245
   2.5826030  13.7712040  60.5082054  28.4728603  54.6360321  43.0167313
  28.0238361  54.8236237  43.8409996  27.7761230  54.6300201  42.3604126
  11.1259413  56.8700562  85.3944321  10.8222084  56.8351021  86.3014908
  11.7410679  57.6032066  85.3759155  49.5378990  48.9094543  17.1986885
  49.9038353  49.3770142  17.9494934  48.5916519  49.0285225  17.2803802
  68.0160751  27.9511261  25.3460693  68.9729080  27.9359932  25.3244095
  67.7885818  28.8743629  25.2360229  83.2600555  60.8381767  71.4594803
  82.7006531  60.1640129  71.8452225  83.0020142  60.8651657  70.5381088
  83.0260162  66.1847000  73.8798828  83.4171371  65.9911423  73.0279465
  83.6515808  65.8366013  74.5152740  85.1733932  50.6823654  69.3036652
  85.7455597  51.4493103  69.2781067  84.4003754  50.9434586  68.8031616
  71.8551102  11.0674372   3.7567904  71.5300751  11.9545183   3.9106483
  72.1284485  11.0682535   2.8394480  22.8029499   2.7902579  18.9471378
  22.7605267   3.2438405  19.7889786  21.9344177   2.9140816  18.5643215
  85.4082413  36.8336372  23.4045601  86.1833649  36.4808083  22.9676018
  85.1882553  37.6195526  22.9043865  48.2156105  55.2645760  82.9096832
  48.4565544  56.1634216  82.6855087  48.8973923  54.7264328  82.5074310
  57.9664383  71.9332352  40.4545250  57.8611107  71.0302887  40.1548157
  58.6282501  71.8810501  41.1441040  78.8414993  47.0310440  36.5041847
  79.4510117  46.3337669  36.7461281  79.4035034  47.7588806  36.2384071
   6.4605784  59.7911797  18.7896881   6.7088103  60.6372719  18.4172096
   5.5141897  59.8545341  18.9183960  84.3006744  21.6068802  64.4703674
  83.7334824  21.2179813  63.8045692  83.8120804  21.5096779  65.2877197
  16.9539776  33.6367836  23.5752735  16.9686317  34.1775818  22.7856197
  16.7009888  32.7671928  23.2653637   0.2988571   7.2249546  27.4412766
   0.7220497   6.6177015  28.0482235   1.0030591   7.8062086  27.1540928
  86.4462357   7.8980627  66.3113785  85.6314087   7.6579533  66.7525558
  87.1353226   7.5269628  66.8624496  58.3240547  40.5345802  42.4808044
  57.7338638  40.9723244  41.8673820  58.9448586  40.0660133  41.9228783
  27.4372311  65.4865494  88.6276169  27.1814289  65.0215378  89.4242096
  27.0314331  66.3492508  88.7131042  21.8341484  39.8683052  20.2261772
  21.0045795  39.4496040  20.4558239  22.3769646  39.1555481  19.8891888
  70.9737930  53.0784073  34.3851967  70.2710190  52.5312958  34.7359276
  70.8467178  53.9294586  34.8044701  25.6721992   8.3490963  19.7516422
  25.3422012   7.6773953  20.3484268  26.5093880   8.6162395  20.1310940
  39.6093521  64.6559372   0.4592115  38.9939880  64.3399429   1.1208041
  40.1103134  63.8799400   0.2080095  34.2623940   3.9910202   1.0629418
  34.4827385   3.1078427   0.7668386  34.3430977   4.5337110   0.2785918
  84.5183258  62.2004280  51.9317169  84.8574448  63.0647316  52.1645432
  83.6311493  62.3687935  51.6142235  41.8095512  46.9439011  37.1485672
  41.2328186  47.2437553  36.4459343  42.6379433  47.3956985  36.9877052
  73.7140045  60.1795502  14.1936407  73.0209961  60.5356026  13.6375809
  73.5357285  59.2396660  14.2262974  75.6237564  49.5174980   2.7099171
  74.8258972  49.7427177   3.1883774  76.3227615  49.9671593   3.1847155
  46.2463150  54.3406982  12.5882730  46.0540352  54.4854965  11.6618319
  46.7542305  55.1085358  12.8503304  50.9525299  38.2650948  86.4240341
  50.6813011  37.8665199  85.5971146  51.8971863  38.1157379  86.4634323
  31.7974892   5.6048107  20.8375835  30.8925152   5.8207946  20.6126289
  31.9595699   4.7682700  20.4015083  46.0492554  63.6463890  41.5695724
  46.8967094  64.0118408  41.3156013  45.4221535  64.3459778  41.3864326
  50.6130524  65.5294724  66.6152420  51.4000664  65.6350327  67.1497498
  50.0490532  64.9528427  67.1306381  54.3239174  16.3592339   5.5953674
  53.6691628  15.7920799   5.1881027  54.6830215  16.8699207   4.8697834
  83.7090225  68.7468643  76.1336975  84.1354065  69.5452423  75.8222122
  83.3182755  68.3622742  75.3490677  32.2309341  65.7004776  31.6506290
  31.6373901  65.1522522  31.1374187  32.1026382  66.5830307  31.3029537
  42.4975967  27.5324783   6.1710157  42.6917572  28.3347683   6.6556454
  43.1175003  26.8891411   6.5146203   8.8099957  44.0462646  58.2316933
   9.4354925  43.9399376  58.9484100   8.1395531  43.3837967  58.3986511
  51.2947731  67.3540649  18.2696533  51.0249214  66.8279877  19.0224209
  50.7799950  67.0096359  17.5398560  85.8591995  64.2283630  40.4358635
  85.3798065  64.0396576  41.2425842  85.3632584  64.9348907  40.0222282
  22.5161591  71.8390808  72.7521133  22.9925060  71.0147171  72.6533661
  22.2867565  71.8733978  73.6807785  29.5990295  35.5471153  15.7380247
  29.7770901  36.3899231  15.3206539  30.4645920  35.1948204  15.9451942
  21.8745918  44.0128059  81.9450226  21.7250366  44.9577827  81.9153366
  21.5521488  43.6926994  81.1025314   4.3582163  67.6263885  41.6882172
   5.0952888  67.2153931  42.1399269   4.4911489  67.4086456  40.7656403
  71.1087189  61.1339455  69.9997711  71.7441177  60.4483299  69.7938080
  70.3692322  60.9577484  69.4180908  25.7555656  38.7555237   6.9194074
  25.5045452  38.5424576   6.0206175  26.4650097  39.3912354   6.8256440
   5.5041375  28.1960526  79.0377579   6.3800912  28.4105186  78.7169113
   5.4218359  27.2528248  78.8971252  58.1696129   7.4882984  22.6184483
  57.6107368   8.2231874  22.8710938  58.9015465   7.8930020  22.1529179
  63.8955383  47.7587357  60.6716728  64.3703995  48.0600548  59.8971138
  63.3737793  47.0191956  60.3600922   9.4479990  48.3374863  47.4644737
   9.4624205  47.8371010  48.2803421   8.5903893  48.7625885  47.4593544
  62.1532364  14.7350197  75.6166382  62.9937744  15.0991220  75.8944092
  62.3855820  14.0301065  75.0121994  17.4398136   6.7017312  73.4764786
  17.7367115   6.4586411  72.5995560  16.6077194   7.1520553  73.3313599
  38.7689819  13.3623838  74.4965286  38.7996521  12.9301424  73.6430283
  39.2645073  14.1719618  74.3729477  52.9655418  54.3019104  35.2201462
  52.9422073  54.8354492  34.4257774  53.4978485  54.8086128  35.8334465
  69.6178741   7.7530789   3.7170141  69.9834671   8.3969593   4.3236380
  68.9833984   8.2467680   3.1974530  56.4440918  45.0016174  30.4331226
  57.0193977  44.8115044  31.1741447  55.6363106  45.3233185  30.8334064
   8.5354357  34.5026970   3.7021623   8.5990963  34.6524506   2.7588947
   9.3362360  34.0274925   3.9238150  66.7495575  22.2063885  44.3775024
  66.2538757  22.1998653  45.1963348  66.8666611  21.2813702  44.1610374
  51.0526695  48.3199883  34.3313446  51.6858025  47.8348732  34.8605347
  50.2183189  48.1977348  34.7842712  86.3185425  25.1412334  61.0072975
  86.1732178  24.4335499  61.6352272  86.2294159  25.9420147  61.5240517
  62.1526108  18.4685020  81.4115677  61.2173615  18.2722130  81.3566971
  62.5331726  17.7029133  81.8420105  82.2779922  45.1589050  30.6077862
  82.5052261  46.0824966  30.5001736  82.3865585  44.7822189  29.7345428
   8.9115791  34.0627213  14.6379766   9.0424080  34.4474831  13.7713318
   8.9043894  34.8117104  15.2339573  33.7966003  15.2145948  18.9937725
  33.4548874  15.8563900  19.6163177  34.3812027  15.7181396  18.4272804
  64.8187561  62.5907860  17.2914791  64.4810562  62.2321930  16.4707451
  65.0100021  63.5071716  17.0917397   8.0684767  21.8669395   0.8455315
   7.3822660  22.4830627   1.1019279   8.4673262  21.5950794   1.6721166
  85.6944122  37.4746208  28.9178677  85.6661301  36.5690804  28.6089573
  85.7191315  37.9998741  28.1180344  77.0511475  66.8306808  20.4131336
  77.6716843  66.3313446  19.8822575  76.2121964  66.7238617  19.9648170
  35.2486839  68.3072205  86.6191711  35.2740746  67.7321396  85.8544006
  35.5662727  69.1502304  86.2955780  76.5551147  62.2536774  20.6035309
  75.7527466  62.0364952  20.1289043  77.1649551  61.5515594  20.3768940
   6.3739543  67.7676697   3.4910543   6.2595849  67.7041702   2.5428348
   5.8330646  67.0618668   3.8453350  69.0004883  12.8135595  60.1781082
  69.0947800  13.7528667  60.3363571  69.4074249  12.4003410  60.9396095
   6.2409625  56.7753410  48.0161247   5.4653945  56.2447357  48.1982918
   6.8647366  56.5303001  48.6995659  31.6154575  54.8414307  32.6416283
  32.4522934  54.8015022  33.1045990  31.5706863  55.7361908  32.3045235
  15.1429720  34.4868050  73.1301575  14.6869555  35.2972183  73.3571243
  15.2401114  34.5250473  72.1786652  56.0564995  48.0621147  23.6308041
  56.6479568  47.3095703  23.6402054  56.4230003  48.6465263  22.9672012
  21.4052620  56.2124825  13.5083675  21.7420712  55.5684509  12.8854589
  21.7266006  55.9137039  14.3590755   5.0037479  61.3409004  83.9375305
   5.3339372  62.0618324  83.4013748   4.5124116  61.7692375  84.6384964
  76.8609695  50.5095520  57.3962936  76.3515549  50.8606567  56.6659126
  76.4370346  49.6773109  57.6057930  74.5218048   2.1558719   5.4381433
  74.4498367   1.5708667   4.6839409  74.5037308   3.0356448   5.0614405
  85.7087479  55.8653870  76.3028793  85.0059052  55.6704903  75.6829910
  85.2556839  56.0961723  77.1138687  72.0008926  63.0724106  43.0460358
  72.0000534  63.8962860  42.5587387  72.7615967  62.5971985  42.7117538
   1.7132715  21.0822620  22.1346741   1.9255236  21.6026268  22.9095287
   2.4048347  21.2935066  21.5074978  55.6047325  14.3259230  58.7690086
  54.7362289  14.1615191  59.1363068  55.4610252  14.3673515  57.8235664
  14.4760294  48.4358063  71.4977570  14.3578243  49.0342255  70.7600937
  14.8233356  47.6355858  71.1037292  52.5823898  25.6463127  29.6473446
  52.2795525  25.6998043  30.5537987  52.7439117  24.7138844  29.5034122
  57.8945732  70.3153000  62.3728333  56.9711838  70.0770264  62.4553528
  58.0294991  70.4287720  61.4320107  31.4705582  10.8561649  82.7198029
  32.0692253  10.5800390  83.4137650  31.2382145  11.7562571  82.9480209
  60.4637871  15.6424780  32.5762939  61.3715057  15.8885908  32.7543564
  60.0546455  15.5948191  33.4403343  70.6116867  38.0529480  11.2552290
  69.8349457  37.8582382  10.7308331  70.8142548  37.2290077  11.6983099
  46.7187843  35.3697586  20.7301960  45.9409866  35.8245926  21.0532818
  46.7249260  35.5446777  19.7891350  51.9248123  51.7035217  57.1299820
  51.4222107  51.1441383  56.5377693  51.9084740  51.2409935  57.9678574
  72.5478439  27.8918495  32.5436401  71.6570663  27.8330593  32.8890228
  73.0740891  28.1859436  33.2871475  43.1989479  52.6645737  35.5864716
  43.0850029  52.0338669  36.2974281  42.5536880  53.3481522  35.7670059
  18.9919739  26.7817440  17.9551716  19.3624935  25.9725075  17.6029167
  18.5500298  27.1873856  17.2092667  32.2024803  15.4770517  27.5112362
  32.3595810  15.7981730  26.6233006  31.4619560  15.9955397  27.8259220
  19.7128372  54.2619743   4.6459932  20.3470726  54.0107613   5.3174620
  18.8724403  54.2769737   5.1039677  70.9599915   5.2731075  67.8881378
  71.9106598   5.3459449  67.8034897  70.6453018   5.1870623  66.9882507
  78.1560440  32.9249725  78.4343643  78.5134659  33.7316437  78.8055267
  78.9244766  32.4348297  78.1419525  58.7483559  63.4111366  10.1768856
  59.5133133  62.8774033   9.9619389  58.9406242  64.2688446   9.7979403
  43.0593376  42.0663071  61.7366905  43.9724808  41.8596916  61.5374107
  43.0928040  42.9327393  62.1421623  76.7813110  51.5997810  47.4565735
  76.3843079  50.9801331  46.8444824  77.5854263  51.8838997  47.0219421
   1.5938938  38.4421387  20.4560261   1.9709675  38.5842056  21.3242798
   2.1078320  37.7242508  20.0862427  82.9231415  67.2282257  84.2425079
  82.2003784  66.6582718  84.5051727  82.5417862  68.1060104  84.2250366
  60.4673500  11.0031672   1.7706312  60.3515625  11.6663723   1.0902023
  60.1357613  10.1959915   1.3772501  85.7625885  48.1941986  83.8582916
  85.5597610  47.3404427  84.2406387  85.1874237  48.8054657  84.3184738
   4.8181586  65.7876358  85.2451477   5.5037031  66.3057709  84.8234940
   5.2466574  65.3987122  86.0076218  39.0822830  16.7515430  85.1772156
  38.2451515  17.1996727  85.2981415  39.0876808  16.0689583  85.8482437
  68.6196899  24.9685535  61.9392738  68.3368073  24.1614933  61.5093193
  68.2963104  24.8879414  62.8365784  21.1759796  21.8154335  25.2188320
  21.9424095  21.2443752  25.2708912  20.7381992  21.5554543  24.4082813
  77.8732452  38.5968552  16.6940765  78.2063065  38.9153633  15.8551149
  76.9596176  38.8817558  16.7128048  11.1009483   1.0319172  50.7058601
  10.9584780   0.1568285  51.0666275  10.2589512   1.2713442  50.3186264
  48.5196762  39.9364281  60.0454330  47.7412033  39.5033379  60.3956337
  49.2527313  39.4246445  60.3873940   3.8269794  40.5908890  22.0117035
   3.1363728  40.1671410  22.5213413   3.3828537  41.3040085  21.5529594
   5.6595616  21.0866489  69.5883255   5.0494213  20.8700943  70.2933578
   5.1574283  20.9465008  68.7855530  29.3242588  65.7052689   4.1188107
  30.0766048  65.8815765   3.5539000  29.0849514  66.5616379   4.4732022
  85.2134399   5.9669218  59.5961952  84.2860107   6.2021861  59.5686989
  85.2509842   5.0946121  59.2038956  68.0140305  14.2274923  57.6988907
  68.4090271  14.5154572  58.5218658  68.6587296  13.6299868  57.3199615
  51.3277969  25.5544014  25.7141056  51.3179436  24.6404133  25.9982891
  51.3341026  25.5079079  24.7580566  31.7245331  61.1106529  38.7115097
  31.0338402  60.9196320  39.3460846  32.4716454  61.3816719  39.2449913
  72.5790024  70.3970184  15.7515945  72.3661118  71.2536392  15.3813200
  73.5354538  70.3820572  15.7862387  40.0589943  44.3418808  33.2670174
  40.4595718  43.4968605  33.4712486  40.7686844  44.9753265  33.3734055
  48.8999023   4.5343800   5.3754215  48.7305946   3.8722825   4.7052026
  48.0516167   4.9548011   5.5164528  34.5639954  18.2082558  41.0697479
  34.7536240  17.4365063  41.6032982  34.7230263  17.9224682  40.1701584
  14.9503441  18.4514866  86.3012772  15.4541264  19.1525040  86.7148132
  15.0054426  17.7212391  86.9176712  22.7354603  43.8099976  22.6649189
  23.6031933  43.7078133  23.0558548  22.3689117  42.9257698  22.6609573
  65.7383423   8.5713186  80.1517563  65.2858734   8.3701429  80.9709244
  66.0394440   7.7217541  79.8295593  80.0728073  20.5784416  72.7478256
  79.3626862  21.1471043  73.0454483  79.9838257  19.7865849  73.2781830
  53.1170769  61.5675011  50.1902695  53.9606056  61.9935570  50.3424797
  53.2375221  60.6750450  50.5146904  63.9861984  69.1970673  10.9946079
  63.7541351  68.5412292  11.6520681  63.1945419  69.7255783  10.8936796
  18.4007454  52.6021500  37.3967323  17.9894409  52.5203705  36.5362816
  19.3245258  52.4062843  37.2402115  51.7254486   5.6913152  30.7751694
  52.4069633   5.4196076  31.3899422  51.5369606   6.5992708  31.0124874
   4.9662514  63.7711220  48.6749649   4.5358610  64.3240967  49.3270493
   4.5700841  64.0295105  47.8427887  70.3053360  41.2964058  15.4025555
  69.4562454  40.9128799  15.6220751  70.8034286  40.5733032  15.0214329
  48.6091690   1.3028002  21.5540123  48.7176247   1.4501623  20.6144619
  47.9327087   0.6282511  21.6141376  75.5521240  11.4430313  59.6015625
  75.9159470  11.9361286  58.8662300  76.0354767  10.6168394  59.5984688
  75.0973358  71.6962204  76.8310699  75.2090149  71.4823456  77.7573624
  75.9367218  71.4704132  76.4302292  47.0097771  54.3025742  28.1642418
  46.3090973  54.6285744  27.5994396  46.6139755  53.5720406  28.6395187
  66.4739456  36.1101913   3.6586657  66.7340393  36.8502235   4.2072387
  66.3085709  36.4961548   2.7984824   4.2828894  11.9775267  77.9568863
   3.6357827  12.2722721  78.5976791   3.7619736  11.6525078  77.2225571
  65.6125565  54.3787918  62.7041931  65.0661469  53.8172188  62.1543655
  66.2568588  53.7841301  63.0882225  32.2731552  53.3813934  29.7000847
  33.1108627  52.9185715  29.6835690  31.8356323  53.0567513  30.4871120
  26.4645882  19.4334946  19.9037647  27.2531090  19.0416527  19.5283604
  26.7331657  20.3167477  20.1566753  17.2382736  25.5582771  25.0880432
  16.6664200  24.9308205  24.6458759  17.1993294  25.3085499  26.0112724
   1.5107895  25.6932583  67.3399811   1.4003453  26.6417084  67.4068985
   1.7377375  25.5427055  66.4223404  77.4889221   3.8007183  18.3727207
  76.7368622   4.3642182  18.5546799  78.1552582   4.0805011  19.0003700
  46.2802315  46.0433083  48.3764153  45.5637970  45.4091530  48.4046707
  46.0908890  46.5845871  47.6099968  47.3341522   6.1845956  81.2001572
  47.3036232   5.4562097  81.8204422  48.0336914   5.9505534  80.5901489
  55.2217751  42.3613892  44.9461899  54.8909721  42.5170593  45.8308182
  56.0504646  42.8392982  44.9128151  62.2415352  68.9947357  52.9155197
  61.6694069  68.3035355  52.5821342  62.5194321  68.6812668  53.7761879
  62.6445847  28.1703701  45.3992882  63.0527802  29.0108032  45.6073303
  61.7161369  28.3757057  45.2894821  57.7102699  19.4601994  80.3934326
  57.4585571  20.3418865  80.6682053  56.8836212  19.0357170  80.1638718
  58.0305748  31.5109024  82.3818893  57.1289482  31.1905270  82.3561172
  58.1883049  31.8533745  81.5020752   7.6849098  57.7013512  41.0126572
   6.9752064  57.1222954  41.2905960   7.8829956  57.4250145  40.1178780
  79.3986282  21.5117569  66.0933914  78.5042725  21.7651577  66.3217621
  79.5883560  21.9991436  65.2917099  84.3696594  10.3576117  49.2110443
  84.1312637   9.6159887  48.6548119  83.6043472  10.4938374  49.7695885
   7.7306042  65.2835159  79.0461197   8.4843836  64.7364960  78.8251648
   8.0079603  65.7716827  79.8213577  64.4843063  14.9588270  32.2287407
  63.8160591  14.3581839  32.5587502  65.1285095  15.0117016  32.9347420
  67.0096436  12.1858120   3.2229712  67.0480881  12.0745163   2.2730410
  66.0789261  12.1146994   3.4349782  73.5392609   4.7088404  62.9105110
  73.5040894   5.4303703  63.5385170  72.8349152   4.8966970  62.2901611
  29.6484318  16.4532623  27.2141933  29.5426102  17.1980495  26.6223106
  28.8921432  16.5026131  27.7988510  63.7837524  24.7143707   4.4153752
  62.9382973  24.3217793   4.1978598  64.4005814  23.9827805   4.3922820
  61.0666351   4.0996776  52.2238922  61.4843979   3.7520251  51.4359550
  61.2969284   5.0287566  52.2270279  85.7124710  25.2723675  21.1882172
  86.2432022  25.3317509  20.3938446  85.9639282  24.4371243  21.5823879
   5.2102866  38.2846756  73.2764740   5.2307339  38.6625137  74.1557083
   5.2955012  37.3419647  73.4188538  32.6039200  28.0869083  11.5475712
  32.5417290  27.3017445  11.0036211  32.2395592  28.7848759  11.0032215
  26.9299049  50.8082809  69.7589569  26.8072548  51.4073486  70.4953690
  27.1324139  51.3786278  69.0173874  54.0166092  62.2657089  73.5570068
  54.0202484  63.1180458  73.1214142  54.4825668  61.6865425  72.9539490
   1.4583750  10.9570122   4.1701097   0.6168821  11.2287073   3.8036356
   2.0702364  11.0188656   3.4366033  67.1276398  33.3111000  64.4574127
  66.6258163  32.6303482  64.9057236  66.6207428  33.5017624  63.6681480
  67.7697372  48.0797501  56.7300682  68.0059738  47.7812843  55.8518105
  68.2795258  48.8800087  56.8562775  34.8254547  34.6251907  10.8907290
  34.1215019  35.2412033  10.6877327  34.7009697  34.4158096  11.8164148
  61.4636497  15.6350346  62.4841957  61.1562462  16.4708500  62.1332741
  61.0494919  15.5696974  63.3446846  24.3402100  60.7546730  23.4354439
  24.9316769  60.1321945  23.0124531  23.5485172  60.2479210  23.6161613
  56.4514236   7.5833025  84.6003952  55.5847740   7.7594485  84.9666214
  56.8795090   8.4390898  84.5758057  52.8533936  22.5369148  86.6939468
  53.1042175  21.8498669  86.0764694  52.6912537  22.0731087  87.5154266
  41.7219658  60.1766853  58.0383148  41.9107933  60.9106865  58.6229668
  40.9121933  60.4269676  57.5935020  72.5642929  10.5453167   0.9607381
  72.0784836  10.1770859   0.2227464  72.8872833   9.7820463   1.4396192
  17.7864857  50.7980309  16.6815166  17.7958221  51.3204727  17.4835129
  16.9125118  50.9356384  16.3161869  70.3645782  62.0755234  79.6897049
  69.5018616  61.6755600  79.5802231  70.9679565  61.3340187  79.7380295
  62.3893547  10.5089464  50.2008247  63.2980309  10.2571144  50.3654900
  62.0201530   9.7704582  49.7165146  83.2807465  16.2675457  17.3965416
  82.6481018  16.5065823  16.7191505  82.9547577  16.6930313  18.1895885
  53.4259033  62.7794113   1.8627011  52.8967285  62.0039558   1.6759613
  53.3930054  62.8681297   2.8152127  37.2707596  61.3194542  21.4942093
  37.1370506  60.5707664  20.9129848  37.4480782  62.0520401  20.9042053
  18.2296143  34.1442223  87.8436050  18.8265877  33.5793762  87.3528900
  17.6986141  33.5390892  88.3613739  28.4087372   8.8022404  74.1461258
  29.3319588   8.6041727  74.3031769  27.9483261   8.3958616  74.8803711
  65.8259659  11.6802731  37.5799599  65.2809830  11.4538641  38.3335953
  65.8510818  10.8810472  37.0538063   6.2134624  57.5145836  21.0135956
   6.4053164  58.1992569  20.3727818   5.2617188  57.5391350  21.1126537
  62.4865036  45.3209267  20.5306454  62.8829346  46.1855011  20.6382999
  62.4799881  44.9489250  21.4125767  77.4928970  10.8178177  78.2924881
  77.6840363  10.4292269  79.1461258  77.4817276  11.7609272  78.4557419
  62.0502930   2.2540545  16.4931126  61.3261948   1.8510201  16.0140724
  62.0505257   1.8128384  17.3425579  30.0869064  60.4574127  28.1491089
  30.1821289  60.3862991  27.1993160  30.7887974  59.9104385  28.5018120
  72.5402222  61.7122536  26.1063404  72.4141769  60.9714012  25.5134830
  72.1767578  61.4158173  26.9407578  85.4129562   5.5508056  51.7184753
  84.4743042   5.7153034  51.6284752  85.6178513   4.9392838  51.0111618
  83.1952972   8.1237545  65.1812286  83.5506516   7.3351789  64.7712250
  82.3036957   8.1904163  64.8394165  67.4611740  54.4913445   8.5813360
  67.5433044  55.4444618   8.5489330  68.0935669  54.2189178   9.2462358
  50.1534538   4.8268700   9.9776115  51.0991364   4.8567767   9.8326340
  50.0461311   4.2610769  10.7421980  50.1946106  67.0302887  40.7735405
  50.5737305  67.0227814  41.6524315  50.4620171  67.8720474  40.4045334
  61.9666252  39.5046844  45.1757355  61.8341179  38.6018181  45.4647102
  61.9931068  39.4489937  44.2205238  86.0298843  35.6602707  65.8975143
  86.9097672  35.5791512  65.5294800  85.4567337  35.2739410  65.2353363
  41.4258499  57.5646515  58.6343117  41.6979904  58.4817009  58.6689415
  40.5861320  57.5811844  58.1751518  51.8537941  61.5458298  23.6939926
  51.9175110  60.8874588  23.0020981  51.5143967  62.3246536  23.2530022
  23.1103172  48.0816612  33.0143623  23.9365788  48.1334877  33.4948196
  23.2139912  48.7011604  32.2920723  54.1837311  49.2873230  17.8376198
  54.4393387  48.7045670  17.1225739  53.3350182  49.6387215  17.5684681
  14.2918873  27.0820866  18.5566940  14.4754114  26.9828243  17.6225109
  13.3364096  27.0874252  18.6138325  82.0564423  70.3734436  56.0761528
  82.5159302  69.6575012  55.6373711  81.1285858  70.1652908  55.9666481
  49.0907249  48.1368103  61.7193336  49.6139755  48.7518044  61.2053070
  48.1926765  48.2773857  61.4193649  67.6721573  66.4057236  80.4635010
  66.9922791  65.9355850  79.9808350  67.9820175  65.7765121  81.1148911
   0.2749516  29.5713921  69.8893890   0.5456420  29.5316200  70.8066559
  -0.3833924  28.8818302  69.8038330  46.9802361  60.9867783  48.4791756
  47.5337524  61.7377663  48.6933327  46.3511543  61.3266373  47.8427925
  69.0422897  61.7238083  68.3988190  68.3047791  62.1263695  68.8573380
  69.5552139  62.4638710  68.0740814  41.1283493   9.7328863  26.2272606
  41.9731903   9.9832430  25.8533688  41.2218857   9.9016714  27.1648064
  84.0635223  53.8633537  16.0490685  83.3985291  53.9734344  15.3694334
  83.7446060  54.3880043  16.7834167  34.3921242  63.4446869  75.4239273
  34.2772560  63.2658501  74.4906235  33.5036545  63.5818100  75.7526474
  55.6329880  63.5112686  85.6350098  56.2883682  64.1075592  85.9971466
  55.6545105  62.7505455  86.2155838  19.3055077  40.0448380  80.7920380
  18.7040672  40.5876884  81.3017578  18.8522415  39.2068062  80.6999359
  56.7606506  50.4541931  27.9097061  56.1999435  50.1242828  27.2075691
  56.7193909  49.7786484  28.5865898  78.7670135  13.0354204  68.2476349
  78.6851501  13.1033077  67.2963562  78.8176498  12.0947123  68.4171448
  65.2129135  46.8485870  24.2633839  64.5012436  47.3176613  23.8278065
  64.8579788  45.9752045  24.4290867  82.4421082  65.6940002  45.0803223
  81.5063095  65.5164795  44.9855118  82.6557693  66.2566681  44.3360176
  65.1854935  65.5432587  27.4968777  65.7518158  66.2378387  27.8331242
  65.7904816  64.8901443  27.1452217  78.5110550   9.3819799  75.9944153
  77.8614197   9.5458250  76.6780472  79.2339172   9.9733133  76.2042465
  66.0021286  63.7894402  49.3400993  65.4787674  64.0883942  48.5964928
  66.2918396  62.9116325  49.0915985  19.9540939  50.2902069  54.0500832
  19.6362820  49.8737946  53.2489433  20.6076031  49.6810074  54.3936501
  81.8328171  40.3438568  31.2371025  82.1086273  40.2926750  32.1522751
  82.4285431  39.7548141  30.7741070  24.0362949  67.1152878  34.0865250
  24.4010029  66.4355545  34.6532555  24.6906509  67.2289505  33.3972282
   2.8717706  21.5877953  83.0046387   3.6249490  21.8256016  82.4638977
   2.1133423  21.8910980  82.5056152  85.4106598  34.8578224  88.3327179
  85.1158600  35.1662674  89.1895676  86.1566010  35.4186363  88.1199112
  82.5721970  58.2683182   5.9308996  81.6720886  58.0594063   5.6811066
  82.4821548  58.8730583   6.6673865  46.7210541  26.2248764  34.9727669
  45.8346252  26.4595108  34.6981392  46.8626823  26.7241974  35.7770386
  43.0068779  50.5909615  65.9959793  42.4206009  50.2445908  66.6686859
  43.8535652  50.1863289  66.1847382  37.5021400  38.4258652  14.6069345
  37.3958969  37.9351845  13.7919626  37.0295372  39.2446213  14.4568958
  54.1928139   2.6992502  68.6764526  53.8891258   1.8132309  68.8738785
  55.0206070   2.5710630  68.2132568  70.1231689   2.2812538  65.5083618
  69.8948441   3.0008707  66.0967941  70.0152359   1.4931086  66.0407257
  46.6237221  55.8216820  25.7117271  45.7398148  55.5968323  26.0022182
  46.4927788  56.2933235  24.8891449  20.2377872  56.8148117  46.4832993
  19.4674969  57.3654251  46.3428993  20.0199108  56.2900543  47.2536201
  79.4067230  17.8748913  22.3688221  80.2941437  17.5287418  22.2744541
  79.5029755  18.8186855  22.2414570  56.1823235  15.5886307   7.5619941
  55.4756775  16.0565777   7.1171231  56.8693352  15.5072498   6.9004636
  82.0583420  38.5874939  53.8966331  82.4898071  37.9214211  53.3614578
  82.7350464  39.2469101  54.0498810  45.9181747  62.6832390  46.4012985
  45.5243454  62.6377373  45.5300560  46.7008095  63.2214012  46.2825584
  72.3720551  43.0322456  33.1149597  72.7886124  43.7078857  32.5799637
  73.0937119  42.4683037  33.3931847  67.4415665  11.6348515   0.6874723
  66.5501633  11.4343233   0.4021236  67.9667587  11.5795336  -0.1108656
   9.3831310  19.8087578  21.6541557   9.5771923  19.1857567  22.3544712
   9.1404667  20.6143284  22.1106682  42.8549500  48.3949356  70.6471024
  41.9155960  48.5599785  70.7283936  43.2654877  49.2276192  70.8801804
  80.2671509  67.2190247  74.7628250  80.9298553  66.5283890  74.7713623
  80.5142365  67.7789764  74.0268707  66.4887772  42.3017616  22.5312996
  67.2675400  42.8489876  22.6328144  66.5905685  41.8978195  21.6694984
  82.5863037  52.0541992  76.1748428  82.2847137  51.1768837  75.9390640
  83.0922546  51.9259529  76.9772110  81.9762650  37.8505707  22.9871082
  82.6613388  37.7390938  22.3279514  81.1812744  38.0167694  22.4805603
  16.8646908  35.0681076  17.1787224  17.5806255  35.3145523  16.5931129
  16.6027470  34.1962128  16.8830528  19.2851276   2.4296815  15.2426682
  18.5324936   2.9179184  15.5764313  19.0138912   2.1367037  14.3727102
  28.8937206  47.9679451  72.3823471  29.1330338  48.6155396  71.7193375
  28.0202389  47.6730728  72.1248322   2.3068185  27.4358807  31.0049572
   2.2028151  26.4908962  30.8935108   2.5021431  27.7606525  30.1259804
   1.9232605  59.6707916  34.7753258   2.7020781  59.2206306  34.4481735
   2.2635968  60.3267632  35.3836899  76.3282318  58.8087769  12.7849054
  76.4819641  59.7529564  12.7513657  75.7148285  58.6404266  12.0696297
  11.9217730  66.0675201  13.9091387  11.0060740  66.2318420  13.6839142
  12.2641973  65.5661926  13.1691036  64.6037521   2.1760225  84.9128952
  64.5332489   2.2761021  85.8622360  65.4228668   1.6982017  84.7826080
  23.8778725  59.0051613  18.3076401  24.0434093  59.1337318  17.3736706
  23.6160374  59.8691902  18.6256447   2.1248984  49.5422554  13.4183750
   2.8492980  49.7755890  13.9989204   2.5359471  49.4084549  12.5643444
  10.3262224  10.1316748   4.8199983  10.8295689  10.9458447   4.8200126
   9.5976944  10.3004751   5.4174809  26.5004349  64.1797256  53.2731247
  26.4569950  63.2427292  53.0823822  27.4312687  64.3525085  53.4142876
  37.1902084   7.8769016   5.4209051  37.1978607   8.1833506   4.5141182
  36.4504395   8.3333092   5.8217340  57.5863419  61.3942642  24.2658691
  56.6363182  61.4790192  24.1852226  57.7984085  60.5999222  23.7756863
  18.4941673   3.2012560  32.1769867  17.5867462   2.9996505  32.4053993
  18.7154255   2.5684493  31.4937363  46.7339363  47.3866653  73.7568359
  47.6784401  47.2359505  73.7946396  46.3511581  46.5093307  73.7579880
  61.6569214  55.4935760  31.2656307  62.4918327  55.8126564  31.6081848
  61.3000488  54.9526100  31.9700661   3.7446835  62.2471161  86.1639786
   3.1278632  62.8420525  86.5903702   4.2294579  61.8469849  86.8858643
  30.7640915   9.3147268  29.9997997  31.1700439   9.2584620  29.1347733
  30.9778404  10.1954327  30.3078575   1.7706071  65.4215317  31.4414940
   2.5175595  64.8483124  31.6138763   1.0321549  64.9877853  31.8690319
  55.2888985  55.5731316  55.7162361  54.7430954  54.7872620  55.7434464
  55.3600807  55.8470840  56.6306305  68.2221832  16.0368137   7.6463656
  67.5505142  16.6655731   7.3822536  67.7846985  15.1865530   7.6027961
  64.3984604  56.3546410  31.5815010  64.5571899  56.0741081  32.4827995
  64.2944183  57.3043060  31.6410465  53.7743912  49.2700882  77.5546265
  54.6946945  49.3067284  77.8152542  53.4119186  50.1098442  77.8368530
  18.9206829  58.4998512  60.2732048  18.5474739  58.6422081  59.4033279
  18.6408806  57.6162071  60.5121956  57.3153992  29.3269196  77.7475739
  56.7788849  29.8233662  77.1295776  57.2357903  28.4181652  77.4576492
   0.5316151  28.3625774  58.8963737   0.2756129  28.7708969  59.7233963
   1.2317973  27.7553673  59.1356926  54.1689568  46.7223740  87.1713486
  54.6097565  47.4681625  86.7642517  53.2584457  47.0031204  87.2629395
   5.5293946  18.4309616   7.8862963   5.3641100  17.6953602   7.2965484
   6.2430639  18.9151878   7.4710436  30.8568058  50.2657738  66.2384567
  30.3508701  49.4532127  66.2362976  31.7654915  49.9824028  66.1373520
  26.0252552  51.8194847  12.1296482  26.4327602  51.6804047  11.2747641
  26.5645676  52.4921379  12.5454731  57.0696068  16.3505974  66.2128677
  56.9171906  17.0188770  66.8809967  56.2129669  15.9445686  66.0804291
   0.9035169  68.3764343  29.4898186   0.2264735  68.4021759  30.1659718
   1.4098572  67.5886078  29.6877480  74.6422195  28.7328453  16.7360210
  73.8657761  29.2344379  16.9845791  75.0793381  28.5412617  17.5657501
  86.6201248  62.0336609  11.8350058  86.6768570  61.3870697  12.5385180
  87.0638428  62.8067322  12.1838675   1.8112320  52.6038399  24.3804607
   1.9988117  53.1657639  25.1323166   2.1952550  51.7581215  24.6117992
  70.5786514  48.6530304  26.2961216  70.0933685  49.3813095  26.6838531
  69.9196091  48.1583900  25.8090649  26.2059631  38.5608444  36.0687447
  25.9480133  39.3788490  36.4936714  25.3911095  38.2106209  35.7087555
  83.3155441  65.1070557  48.9758072  83.3498993  66.0594101  49.0656319
  82.5289078  64.9437790  48.4554405  52.6131477  47.1067429  80.7916412
  53.1685448  46.3924675  81.1040115  52.5718040  46.9809837  79.8436356
  16.1931114  49.0234222  43.3449821  16.4543762  49.4403343  44.1660538
  16.5501747  49.5925217  42.6631737  39.8254814  57.1754532  62.4945641
  40.0802155  57.9922638  62.0654221  40.5713539  56.9553947  63.0526733
  60.5665016  10.7916231  43.1597290  60.3508339  10.1270237  42.5054932
  59.7957497  11.3585005  43.1883774  32.4272308  61.8877411   9.8106127
  33.2749176  61.8767776  10.2550659  32.6027222  62.3116531   8.9705334
  56.5771790  59.6926003  12.1498251  56.8692818  58.8866386  12.5756578
  56.5497971  59.4748650  11.2181206   0.4793762  15.6529932  48.1890717
   0.5525054  16.4412727  47.6510201   0.4466822  14.9342604  47.5577354
  14.9992094   8.6795702  35.9333878  15.1038465   8.4484329  35.0104256
  14.0972891   8.9929247  36.0010567  52.2683258  25.4935894   7.2916718
  52.6864281  25.1251144   8.0699053  51.3309174  25.4511147   7.4805884
  50.3140259  65.9224014  16.2933807  50.5226669  65.0286331  16.0215836
  49.4296188  65.8626099  16.6546021  32.0163422  26.3214931  16.4845200
  32.2889977  26.8261681  15.7182341  32.7275887  26.4390926  17.1142273
  74.1814651  19.9898987  86.7297134  73.8559570  19.7360992  87.5933456
  73.5003586  19.7006588  86.1225357  46.7184868  39.2155457  32.9755669
  45.7945366  39.2217598  32.7255402  47.0057793  40.1203995  32.8533363
  62.0646286  55.1389198   2.7086084  62.9860344  55.0991211   2.9648499
  61.6682472  54.3708496   3.1199274  71.0941162  39.6934433  45.7817268
  71.3246078  38.8228378  45.4574547  70.3972092  39.5350914  46.4185028
  43.5838127  44.0808372  72.5274734  43.8337097  45.0040512  72.4892807
  43.8056183  43.7366791  71.6622620  64.4530716  18.3065033  77.4919586
  64.5031128  18.2807236  76.5364151  65.2924423  18.6761742  77.7658691
  36.6643333  36.9622192  12.1227274  36.6514168  36.2506752  11.4825954
  35.7414169  37.1702957  12.2682085  65.9543686  22.8765259  82.9907074
  65.9378967  22.8642483  83.9476852  66.0233154  21.9551811  82.7405090
   5.9748821  68.8076172  62.1482315   5.8787308  67.9267349  62.5102234
   5.2358556  69.2970276  62.5095482  62.5415993  56.9470329  74.3107910
  61.7927399  56.5452652  73.8703156  62.7943268  56.3119431  74.9808807
  10.1224871  26.3207283  85.2625351   9.2260237  26.4399357  85.5761871
  10.4357805  25.5421963  85.7229385  45.2663002   3.7805865  10.6763983
  45.3297424   4.7166424  10.4866467  44.9221535   3.3956087   9.8704290
  41.8699074  70.2836761  73.9615250  41.9083099  71.1221619  73.5014191
  41.1537514  70.3869247  74.5881805   5.3411841  22.9866428  84.3351364
   6.2269201  23.1800327  84.0280457   4.7709022  23.2944260  83.6306686
  46.7882309  44.9455643  42.4530716  46.2518272  44.2044029  42.7344704
  46.4860077  45.6776886  42.9905548  28.5508671  43.8653412  83.2649231
  28.2356110  43.6087151  82.3983307  29.3546143  44.3555374  83.0919266
  39.5908356  59.9897652   3.8463755  38.8615685  59.9465408   3.2278805
  39.1907005  59.8257103   4.7003136  51.8381920  37.4063492  71.6905670
  50.9010887  37.4327316  71.8838959  52.2570267  37.7199020  72.4921265
   5.5727267   6.4365301  44.0449295   5.4147692   6.6065874  43.1162987
   6.4466429   6.0469422  44.0718155  49.9528542   2.8405139  36.0447388
  49.5097618   3.6813586  36.1582375  50.3097305   2.8757112  35.1572533
  67.8235245  65.1683044  57.3966141  67.8438797  64.7214432  56.5503693
  67.9661560  66.0906143  57.1839294  12.6056499   9.7741213  35.6470947
  12.3667097  10.1450272  34.7976418  12.1298275  10.3075199  36.2837334
  61.5417938  58.0074348  44.3497887  62.4065285  58.3677406  44.1532135
  61.0822678  58.0159035  43.5101471  14.1349783  48.3934288  58.6205444
  14.1984224  48.1908150  57.6871872  13.4782953  47.7821617  58.9542351
  32.3822479  62.4439354  88.5275269  32.1014519  62.3243484  89.4347687
  32.5683899  63.3801231  88.4558411   6.0978737  64.7426224  52.5894127
   6.9265428  64.5285873  53.0180473   5.9065580  63.9799423  52.0435677
  79.7932663  52.3525162  81.2900620  80.1430359  51.5100250  81.0000534
  79.8424149  52.3162193  82.2453079  70.0021210   7.4034023  25.8916512
  69.9097214   6.4663386  25.7195911  70.6001205   7.7139268  25.2117958
  72.9073181   7.9814563  61.6183777  72.7323151   8.4733295  62.4206657
  72.9009094   7.0646167  61.8933258  47.2411423  60.7861214  43.6443863
  46.3191566  60.6948090  43.4038887  47.7189064  60.3850899  42.9183350
  83.7277756  32.6386032  10.6813908  84.6437378  32.5715485  10.4116793
  83.4516983  33.5037193  10.3787603  20.5147877  17.5596333  80.5778427
  19.9367867  16.8204231  80.3888550  20.8844242  17.7980976  79.7276993
  42.4327660  50.5566711   6.5972953  42.6163292  49.6960793   6.9740152
  42.6784248  50.4721832   5.6760216  22.6783237  59.5554848  42.8476295
  22.7994003  60.4237366  42.4632950  22.1889057  59.7167511  43.6542854
  72.3629532  48.2901878  57.5771027  71.9893570  47.7203140  56.9048691
  71.8220825  48.1339073  58.3512268  13.5858545  30.8917160  21.6578064
  13.9285536  31.2268696  22.4863358  14.1749592  31.2485542  20.9930859
  25.3360977  46.4814301   1.8951026  25.5500946  46.8764534   2.7403214
  24.9733753  45.6237450   2.1165440  78.0383148  31.8791676  26.2173176
  78.2406921  31.5345383  27.0870934  77.8611069  32.8084450  26.3631687
   9.2372274  20.5772629   3.4454806   8.7166414  21.0303860   4.1087313
  10.1395941  20.8378181   3.6300797  15.1182365   1.8326169  30.5889091
  14.6041059   2.2726505  29.9119511  15.0596581   0.9031299  30.3678799
   0.0126151  43.9685135  72.8707733   0.5651855  43.1924591  72.9637146
   0.6243588  44.6745110  72.6620483   6.4637880   1.6954759  60.5543938
   6.7879486   0.9216179  61.0151482   6.2458787   2.3150487  61.2507248
  74.4710846  24.3885632  81.6939545  73.5978241  24.2868004  82.0725021
  75.0663528  24.0884686  82.3808517  38.3871994  32.1611557  22.4364548
  39.2026634  32.4594460  22.0336285  37.7224846  32.7667885  22.1084347
  80.6450958  70.5801086  20.6283054  79.8804092  70.0328827  20.4493046
  80.3165436  71.2693405  21.2055759  78.2180557  23.0380440  69.1537933
  77.5004959  22.9216328  68.5310669  78.2307205  23.9785080  69.3315506
  68.9458694  23.6610146  34.2692680  68.3703537  23.3135281  34.9506378
  68.3898163  23.7181053  33.4922409  62.9566116  38.9570122  11.7436247
  63.1526909  38.2217026  12.3242321  63.2745438  39.7264938  12.2159023
  59.1249657  37.4455261  70.3294830  59.1738853  36.9196587  69.5311737
  58.1885681  37.5933495  70.4619141   4.0481219   7.8062634  63.6132088
   3.2044067   7.3541861  63.6115417   4.4229608   7.6106582  64.4719696
  79.4150162  55.3540039  68.2424240  79.0035858  55.0966759  69.0674896
  78.8370819  56.0291672  67.8869324  57.2021866  45.8381119  73.2266235
  56.4643898  45.5833893  72.6725388  57.8968697  45.2199860  72.9995346
   7.5005260  51.1551399  63.5669098   8.3056898  51.6234322  63.3463554
   7.5117049  51.0962868  64.5222321  58.1272316  47.7336273  64.8917389
  58.6810036  47.4253502  64.1744308  57.3296013  47.2092171  64.8209457
   3.7020292  20.1665077  79.4398422   4.0534711  19.5847435  80.1138382
   3.7203269  19.6432743  78.6385193  35.0517693  15.3737106   0.1704094
  34.3268127  15.5531359   0.7691386  35.3623581  16.2391090  -0.0957745
   6.2981949  15.1392536  56.9376831   5.4029026  14.9288731  57.2030602
   6.8470149  14.7577410  57.6228676  38.4819145   8.5375481  80.6807785
  37.8044739   8.7176104  81.3326111  38.1521339   8.9371710  79.8759308
  75.7511139  67.2155609  24.9086971  75.5131912  67.9081039  25.5251446
  76.1088409  67.6806183  24.1523972  49.3882866  60.1261826  51.0189781
  49.0112267  60.0188637  50.1457443  49.8349800  59.2971649  51.1905251
  74.4393845  13.2706318  88.8434753  74.8407135  12.6863270  88.2002335
  74.7896805  12.9775429  89.6846771  19.2728233  27.2707882  24.6414642
  18.5634594  26.6304512  24.6962719  19.9055729  26.9842300  25.3000565
  14.9921522  64.9092560  33.2872963  15.1219940  65.8227158  33.0324020
  14.1884584  64.6472092  32.8382568  34.3496857  68.6892319  46.4422264
  33.6980972  68.7936096  45.7488518  35.0186729  69.3441467  46.2427940
   0.4543149  17.7437401  46.0147095   0.3058618  18.6851387  46.1039505
   0.0571731  17.5173016  45.1737366  85.0917816  65.9639893  36.6134872
  85.4882355  65.2534180  36.1093636  84.9003677  66.6406021  35.9640312
  47.0330887  26.3710403   5.9961758  46.2539978  25.8399315   6.1609998
  47.0454063  27.0067005   6.7117300  86.2004013  22.3544254  81.7179031
  86.0594559  21.4115849  81.8040314  85.7394180  22.7348003  82.4655914
  29.4470692   1.4952370  77.0861435  28.9255524   1.5860893  76.2886505
  29.3146591   2.3196683  77.5541306  63.4906387  54.2199554  20.6363201
  63.1839828  53.3893471  21.0000324  62.6940079  54.6605835  20.3405876
  78.9687042  54.9790497  35.9148941  79.5820465  55.4303284  36.4948807
  78.3452682  54.5578499  36.5066338  66.8452911  27.7002869  45.3110733
  67.3495026  27.2987709  46.0187340  67.2762985  27.4013481  44.5103874
   8.5403452  20.3851280  62.9063644   7.8321872  20.8930416  62.5104256
   9.0913296  21.0382385  63.3377495  36.5419388  51.3172760  53.6391907
  35.6232338  51.5860100  53.6403961  36.9841728  51.9735832  54.1776390
  16.6281128  28.2790871  29.1984100  15.8782082  28.3630905  29.7873230
  16.2835217  28.5139484  28.3368244  81.4941406  31.0014648   6.0224319
  81.5615311  31.3783474   6.8997288  80.6176071  30.6179638   5.9931874
  72.0034790  39.4608040  13.9772549  72.1518784  39.6388474  13.0485401
  72.7358704  38.9003868  14.2337065  16.1604805  36.2742310   7.4253225
  16.8353043  35.8066940   6.9331274  15.3364496  35.9961510   7.0254784
  84.1240997  59.8019257  62.1471977  84.4408798  60.0464706  63.0167274
  84.1020508  58.8450737  62.1606712  59.3686790  12.8544044  32.0953560
  60.2090073  12.4021282  32.1697044  59.5811081  13.7780485  32.2294731
  35.7937164  44.8428612  61.4148140  35.0297775  44.4648247  60.9792480
  36.4911270  44.7932167  60.7610664  29.2858410   8.4169083  23.1942120
  28.8687725   8.7564363  23.9860497  30.2112865   8.3384256  23.4257755
   3.8642435  47.4958725   7.4841027   4.5403519  47.3225555   8.1391373
   3.1271596  46.9458008   7.7493553  39.7803459   5.5235825  88.7955322
  40.2930260   4.7981691  89.1521378  38.9658966   5.1179118  88.4983215
  69.2354736  19.7658310  86.3306427  68.7703552  18.9293041  86.3198853
  69.6418228  19.8028221  87.1965256  56.8654671  11.7077541  68.7771759
  57.5177956  11.4296350  69.4200974  56.0453568  11.3228378  69.0861893
  28.3571587  64.7978363  84.3812943  28.4819031  65.6264496  84.8439789
  27.9413261  64.2243195  85.0250244  86.0965424   3.9080503  29.2530956
  86.4183807   3.0104237  29.1699181  86.0966187   4.0761671  30.1954155
  67.9535522  25.1476040  88.0346909  67.4593124  25.9649563  88.0971222
  68.6847763  25.3537426  87.4524155  15.1690779  42.0002861  53.5098000
  15.3105450  41.2228050  54.0499344  14.4639025  41.7516670  52.9121819
  11.8687048  61.0722580  27.4907284  12.2612886  60.2000656  27.4534187
  12.5821905  61.6662331  27.2575703  34.9239922  44.0105515  64.2035217
  35.4274483  43.2792130  64.5611649  35.3377762  44.1967125  63.3606911
  79.3487549  17.2079277  35.2056808  79.5962524  16.9312611  36.0879669
  78.4574051  17.5435085  35.3011017  65.9721756  37.1421852  73.1060333
  66.6890945  37.6980362  73.4114761  66.2793274  36.2488213  73.2602844
  22.2903843  41.2473373  49.9701538  21.5640640  41.8531418  50.1174240
  21.8839035  40.3807373  49.9735146  69.2887955  69.5475006  20.7149277
  68.7264404  69.8626480  21.4225140  70.1211777  69.3457489  21.1423149
  86.4501648  29.5173264  88.5329971  86.7224197  30.2673874  88.0043030
  85.5709915  29.3083305  88.2173920  55.8596077  37.2085876  15.2144814
  55.8767052  36.2994347  14.9155188  55.1863174  37.6250229  14.6764336
  56.1033859  19.5389729  83.4066391  56.4891663  19.7022190  84.2673111
  55.3626976  20.1432972  83.3576431  35.8439980  62.3926430  62.9324074
  35.7686195  62.1038895  62.0229187  34.9515724  62.6319580  63.1824684
  78.9673615   4.2789335   0.5197302  79.0012589   5.1893792   0.2261813
  78.3704834   4.2905893   1.2679504  56.5034523  37.5528412  70.0862579
  56.7913818  37.5730705  69.1736145  55.6308098  37.1608620  70.0534592
  24.0276623  28.8521671  86.0100861  24.4571266  28.0825043  86.3834610
  23.0951061  28.7072601  86.1700058  58.2833672  54.5368423  86.9727631
  57.5591469  54.9717140  86.5226288  58.9861183  55.1867142  86.9792633
  82.9976959  28.6777782  68.4270935  83.7416153  29.2723045  68.5238419
  82.2283707  29.2400398  68.5177994  46.2405128   8.9932442  25.3983402
  47.1041374   9.2574177  25.7155190  46.3971405   8.1711044  24.9338131
  12.0354853  16.7376156  77.5788803  12.7741032  16.3609924  77.1005173
  12.3545971  17.5878048  77.8814926  80.2616348   2.4343381  68.6986694
  79.7047424   1.8190864  68.2216187  79.9351044   2.4052198  69.5979767
  36.8676033   3.2945940  54.1103859  36.2190704   3.7873166  53.6075325
  37.2923660   2.7296419  53.4649086   6.3451180  42.5496407  59.0702248
   6.1236148  42.2593842  59.9550514   5.5040803  42.5949020  58.6154251
  66.9986496  49.2859879  43.0063019  66.6414413  48.4553108  42.6922760
  67.9136734  49.2746353  42.7255363  85.6718216  23.6883450  44.0609436
  86.4648285  23.1603622  44.1537170  84.9543991  23.0628834  44.1625671
  79.9256058  61.9093933  18.4136124  80.5981674  61.4329414  17.9268951
  80.4151230  62.5295563  18.9539871  20.3961353  30.2838783  16.8707485
  20.5953064  31.2197990  16.8459072  20.2830009  30.0386219  15.9524460
  78.8954849  21.0295506  46.6128998  78.1702805  20.4605923  46.3548470
  79.2692032  21.3316212  45.7850609   6.6549611  64.0256729  86.5237732
   6.3762999  63.1654205  86.2098541   7.6104317  64.0017624  86.4714661
  48.2573662  36.7985573  76.9122009  48.1856232  35.8896484  76.6207047
  48.8543167  37.2051315  76.2840424  79.5324173  59.1914597  15.9231596
  79.3804092  58.7612038  15.0817289  79.2459793  58.5513725  16.5746727
   6.3890166  15.3496914  42.1110344   6.0857878  15.6931629  42.9514580
   5.7940979  14.6245794  41.9199371  27.1527367  65.0713272  46.1448135
  26.5575333  64.3240891  46.2047997  28.0250835  64.6917648  46.2505379
  34.0920563  65.0088959  66.2385788  33.6817932  64.6758957  65.4404373
  34.3853340  64.2245636  66.7023087  21.1143436  28.6006241  12.1776762
  22.0244007  28.8875027  12.2533684  20.8551826  28.3870926  13.0740423
  83.0846863  71.4288864  42.1971550  82.7754745  72.0648041  42.8423080
  83.8108597  70.9811096  42.6312065  73.7453308  11.4510965  15.0209436
  73.9407730  10.8192406  14.3289948  74.0726089  12.2848568  14.6833601
  63.3518257  26.6716747   2.0123959  62.7715607  26.4566288   2.7426560
  64.0029907  27.2629719   2.3899941   4.8918920  16.3341885  59.1669350
   4.2762074  15.6017036  59.1920509   4.3365359  17.1137924  59.1614799
  12.7643099  18.4202003  84.7042542  12.3469687  17.9390106  85.4187622
  13.6452808  18.6108799  85.0263824  56.1874771  69.4363251   1.3457108
  55.3961449  69.4297333   1.8842150  56.1956444  68.5783157   0.9214665
  81.7439270  10.8262930  81.5558777  80.9524078  11.1925755  81.9502869
  81.7122498   9.8952160  81.7757034  24.9988155  66.2038269  36.6908989
  24.7722683  66.9547958  37.2394943  25.8878365  66.3881760  36.3877678
  13.9902000  61.3165855  31.1815434  13.3085947  61.9069786  31.5026054
  14.6113682  61.2509689  31.9068527  81.8821335  18.8973942  11.1813517
  82.7226105  18.6860638  10.7749329  81.8250580  19.8515778  11.1312628
  41.7344742  65.6072998  11.4430799  42.2956009  66.2345047  11.8991337
  42.2124138  65.3976288  10.6406803  54.3465385  42.8871536  72.1318741
  53.7367287  42.1526031  72.2011414  55.0378952  42.6847572  72.7621841
   3.4932568  32.6548920  62.5704346   3.5244365  31.7353859  62.3063049
   3.1689041  33.1155167  61.7965775  60.2688332   2.7276051  47.6443138
  59.6843872   2.2957628  47.0212860  60.3863869   3.6093521  47.2908516
  20.7101364  42.6343155   2.0328302  20.0985222  42.5277977   1.3042607
  20.7173176  41.7808914   2.4662454  76.4866180  66.6259842  51.7933731
  75.7438583  66.3430557  51.2600021  76.6228256  65.9096680  52.4135094
  36.4068069  27.8719006  13.3539762  36.5785522  28.4471722  14.0994949
  35.9373398  27.1269951  13.7294073  59.4773254  68.4421082  32.8284264
  58.8599129  68.1803284  32.1454124  60.1140213  68.9957199  32.3763580
   3.9535909  47.9557304  11.6053143   4.9025383  48.0806808  11.6161346
   3.8373449  47.0059471  11.5801840  16.9357014  62.7689476  60.8690262
  17.2165718  61.8691673  61.0355835  17.7271423  63.2933540  60.9908905
  52.6445045  41.0941696  82.3301086  52.6291122  42.0266762  82.1146317
  52.8848343  41.0662880  83.2562256  17.4154835  49.4007454  58.9142723
  17.0364914  49.1900787  58.0609207  16.9257126  50.1677170  59.2111092
   1.0793618  19.5777912   1.8175073   1.4620994  18.9087257   2.3850420
   1.5260891  20.3869877   2.0662405  51.6633377  67.7026672  63.9717560
  52.1573372  66.9393005  64.2708740  50.7621651  67.3894348  63.8942337
  83.9188385  40.7929649   6.4078026  83.9353867  41.3785362   5.6507926
  83.1564941  40.2330742   6.2608929  24.2584000  30.0975876  11.8021317
  23.8950920  30.2232800  10.9255247  24.7015553  30.9230213  11.9983540
  17.8804913  13.4634027  17.5368748  18.1275349  14.1902018  18.1086826
  16.9235554  13.4825201  17.5250702  52.6035881  21.1889324   7.2369738
  51.6665916  21.0014515   7.2928829  52.9889793  20.3830795   6.8930187
  66.9812622  51.7727280  63.6980057  66.9285049  51.1944733  62.9370384
  66.8062973  51.2012367  64.4456863  22.8128052  64.9753723  13.7095919
  23.5882435  65.2996063  14.1676321  22.5218220  64.2273636  14.2311726
  22.1159611  57.3073425  44.3797607  21.5759468  57.3207474  43.5895462
  21.5090427  57.0692101  45.0806007  78.9899750   6.4349527  21.2641354
  79.9022217   6.7199039  21.3173981  78.6453552   6.5686030  22.1470909
  86.5176773  43.5369530  29.3229122  86.5070190  44.4512596  29.6060410
  85.7446518  43.1499405  29.7338676  13.2510366  15.4007244  22.1384487
  13.6319933  15.8232317  22.9082470  12.5300694  14.8754997  22.4856911
   6.4846435  19.9761734  50.2212677   6.9823861  19.8979702  51.0351295
   7.1400080  20.1991024  49.5601845  10.5634212  59.4305878  33.5454445
  10.2746067  59.6862984  32.6694145   9.9808245  58.7113075  33.7892647
  32.6051941  43.7034912  13.2585564  31.8090801  44.0102654  13.6925220
  32.6785927  42.7841530  13.5148048  37.5961151  49.0417252  36.8015327
  37.2168770  49.4533081  37.5780754  37.2350502  48.1552353  36.7998276
  73.9663696  44.4355316  15.8177156  73.1660461  43.9924545  15.5359383
  74.6516800  43.7736397  15.7256536  10.8799133  38.2278099  49.3982544
  10.0880747  38.5035324  48.9365158  10.6197300  38.1904488  50.3186569
  58.8810577  58.4225998  83.1209793  58.2776222  58.2108459  83.8331985
  58.9912796  59.3719139  83.1747208  19.4388142  44.2543297  37.1979141
  18.8347626  43.6640205  37.6483459  18.9140415  45.0306664  37.0026093
  22.4745655   4.6397662   2.7545764  22.0333652   4.5510564   3.5993865
  22.9886189   3.8370359   2.6673739  82.1309052  52.4338341  29.7129097
  81.6250076  53.1550217  30.0873241  82.9805450  52.4846001  30.1508160
  43.8741302  65.4843445   3.7492220  44.7629433  65.5253067   4.1021643
  43.3474274  65.1325073   4.4668736  57.4125557  43.0916557  52.2124062
  56.7380753  43.7609215  52.0966911  57.6328278  43.1319962  53.1430435
  33.7352448  44.1285973  67.0360947  34.4627762  44.3973465  66.4751129
  34.0705643  44.2277412  67.9271393  55.4904327  39.9708595  61.0606346
  55.5860252  40.9179611  60.9601936  54.9954262  39.6968727  60.2885361
  77.7175293  24.5343609  35.7505341  77.7205658  24.1335278  34.8813095
  77.5015335  25.4529400  35.5899391  24.0825844  70.5966339  68.3186951
  24.8512154  70.6359253  67.7495804  23.5682831  71.3678894  68.0801849
  29.6403255  18.7959576  25.9723797  29.1611176  18.5439911  25.1830101
  30.5127010  19.0328331  25.6576061  74.1768875   9.3180294  40.8431931
  73.6895905   9.6755266  40.1009216  73.5125351   9.1673212  41.5156174
  86.5964737  31.3773403  10.2839947  86.2211533  30.5231419  10.4977999
  87.5378494  31.2651920  10.4161482  35.3526154  54.7292061  75.0078964
  34.4166870  54.8850365  74.8814621  35.6623116  54.4256783  74.1545563
  63.6772118  13.4733849  29.9609699  64.1104507  12.7232265  30.3681507
  64.1378326  14.2355356  30.3119526  74.5079880  57.3042336  50.7333984
  75.0942841  57.8210144  50.1807404  74.7744141  57.5152817  51.6282196
  57.1879845  50.7279243  38.4275093  57.0808792  51.3798523  37.7348671
  58.0904465  50.8413544  38.7257118  21.3214321  60.7429543  51.7910194
  21.6100712  61.5537262  52.2100334  21.8744507  60.0637550  52.1771431
  10.0058842   4.6966319  12.8207703  10.3715830   5.2777719  12.1538572
  10.2557850   5.0992804  13.6524286  11.9346218   1.0441216  12.5271473
  11.9350033   0.3453514  13.1813278  12.3618584   1.7811100  12.9636660
   0.2448406  36.7073784  74.0446396   1.0997477  36.9541588  73.6918411
   0.3475840  35.7913666  74.3027039  71.0545959  70.1995087   8.3329573
  71.2189789  70.5978546   9.1876669  71.6367111  69.4401093   8.3066950
  61.9652519  26.3850594   7.8163204  61.9769936  25.9540443   8.6709080
  62.8872643  26.5485878   7.6178584  79.1291733  49.5241776  34.2277756
  79.7951202  49.7214432  34.8864326  79.3755035  50.0563736  33.4712563
  19.2543716   4.9493632  81.8122940  20.0891666   4.9311519  81.3442993
  18.6416569   5.3471293  81.1937485  32.8060493  29.4515438   0.0775651
  33.1612434  28.9075851   0.7805434  33.5544548  29.6230030  -0.4940328
  66.1606827  30.8022385  28.6573162  66.6414261  31.6155090  28.8112659
  65.8192520  30.5592613  29.5179100  86.8683853  64.9628983  65.1300278
  86.4776001  65.1028976  65.9925385  86.3902817  65.5567245  64.5512161
  18.5990181  47.6110725  32.5868568  17.8341007  48.0830269  32.9160843
  19.3473854  48.0871696  32.9467278  64.8266144  25.5217419  86.3032074
  64.1193619  25.5192127  86.9482040  65.4079819  26.2268143  86.5880127
  35.5932045  47.6859627  38.5295639  35.2257347  47.0118217  37.9579620
  35.9413567  47.2015495  39.2781410  59.9708633  48.9540787  82.9833450
  59.9596977  48.7483826  82.0485764  59.2865257  48.3999825  83.3587036
  55.5492172   7.8300862  80.7545090  55.5527611   7.4353848  81.6265335
  56.4717026   7.8582807  80.5006180  68.8693085  57.9759598  15.5157433
  69.0680695  58.9021988  15.3786058  68.1997528  57.7752914  14.8617887
  54.6767235  10.0634613  39.3430710  54.0790062   9.3321056  39.4982643
  55.5435600   9.7113972  39.5452538  50.8221283  11.0479002  17.9349995
  51.1258316  11.9463272  18.0647125  49.8956337  11.0713530  18.1743526
  69.1679382  51.9537239  77.7661362  70.0249634  51.6237984  77.4961700
  68.6964798  51.1771812  78.0677109  62.1551857  19.0085258  58.2310257
  62.0760002  19.7349815  57.6127853  62.4555740  18.2722416  57.6982193
  37.9406433  65.7761307  55.5824928  37.3819389  66.2566452  56.1933899
  38.3333855  66.4543457  55.0329361  27.3477192  45.5948067  85.6599960
  26.5832958  46.1381493  85.8514862  27.4112587  45.5988617  84.7049179
   9.6544924  69.2709656  62.9037476  10.0704098  68.6139526  63.4619370
  10.3259525  69.9423752  62.7829895   4.8370390  18.5580635  38.2020378
   5.4194231  18.7716923  38.9310265   5.2297935  17.7827358  37.8009872
  60.1701851  34.4938622  65.7946472  60.1232796  33.5378151  65.7961884
  61.1075516  34.6876640  65.7898865  19.1452579  67.8402252  17.5640888
  18.2164021  68.0169220  17.7132130  19.3972092  67.2605362  18.2829132
  20.0298252   7.8147783  17.6427326  20.2627926   7.2341886  18.3672123
  20.7207928   8.4771490  17.6349087  27.4873543  62.8792000  26.1464748
  27.1728287  61.9982529  26.3495350  27.3311749  62.9787407  25.2073631
  58.5743675  46.1547737  46.6379166  59.5189400  46.1465187  46.4831581
  58.2624283  46.9317322  46.1739578  76.6587296  49.8217621   5.8501849
  77.4461365  50.0940399   6.3214526  76.3159409  50.6302643   5.4693308
  49.7377777   7.9398170  78.1054382  49.9337883   8.7761593  77.6831360
  49.2133598   8.1750937  78.8708572   6.0872393  21.7539883  55.1756516
   6.1323676  22.1271992  56.0559387   5.2247491  22.0116863  54.8501740
   3.1187155  54.3476257  72.9889221   3.1413646  53.7037277  73.6968155
   2.3278148  54.1323814  72.4945755  76.9836349  41.0707130  23.2038631
  77.2312469  41.8718033  23.6655655  76.2520905  41.3327789  22.6449318
   4.9710217  36.2303391  81.3306503   5.7162900  36.3125420  81.9256668
   5.3579202  35.9589348  80.4982529  75.2620316  70.5505981  21.1545696
  74.8430481  71.4061050  21.0608006  75.7971191  70.4582748  20.3662834
  27.1129780  63.7095261  10.7974396  26.2004719  63.9328499  10.9809837
  27.4571266  64.4717789  10.3318663  45.8793983  65.3197403  45.4598007
  45.1348686  65.9184036  45.4005051  45.5654182  64.5070419  45.0633621
  78.8268738  59.8047562  80.8568039  78.6975708  60.2829018  81.6758804
  79.3670425  60.3868523  80.3223724   6.9219384  36.9203377  19.2346382
   6.2878761  36.2275085  19.0497417   7.7592340  36.4635010  19.3150692
  81.3463364  15.7905302   1.8448296  81.1030045  16.7153244   1.8870096
  81.3629532  15.5053301   2.7584031  66.8178024  23.6987133  50.8638535
  66.2805939  24.1766243  50.2320023  67.5676270  24.2720490  51.0228271
   6.9793544  29.1752262  15.9912119   7.3337073  29.7030010  16.7068367
   6.0785961  29.4828377  15.8900080  28.6528969  59.0853271   9.8605204
  29.5896454  59.2817917   9.8488998  28.2279758  59.9422340   9.8233242
  29.0545578  57.5156403  48.5159111  29.2723026  58.1295052  47.8144951
  28.5053940  58.0214233  49.1149368  55.8253098  52.7050781  64.8792267
  55.2112045  52.5086784  65.5867157  55.2680893  52.9147110  64.1296997
  26.7526550  25.5529366   9.7318993  26.7708111  25.4609928   8.7792978
  27.5297203  25.0819397  10.0328379  52.6993790  17.5055141  28.3038788
  52.0614433  17.0537434  28.8563042  53.2937393  16.8149433  28.0104904
  80.8322067  36.1912918  47.6754074  80.8583298  36.5203705  48.5738792
  80.3497925  35.3667870  47.7362556  54.1996498   9.6035242  87.1505203
  53.7562714   8.8656187  86.7320175  53.9066658   9.5737162  88.0612946
  43.3930931   5.0677643  62.7063026  43.6597099   5.0797992  61.7870636
  42.8344917   4.2943125  62.7835655  77.3055191  34.4075394  57.2577667
  76.6061859  34.8392906  56.7671013  78.0335693  34.3523712  56.6387901
  29.1133137  53.8563080  26.5885963  28.1916885  53.9267845  26.3398628
  29.0998650  53.7993698  27.5440083  64.3127136  37.1633987  48.1672668
  64.2163544  37.6019859  49.0125999  64.6459274  36.2930412  48.3856125
  47.7696457  48.6616058  41.8530159  47.8941765  47.9902992  42.5238876
  48.1302261  49.4585228  42.2417831  62.1845627  42.9182205  75.6948929
  62.8789635  42.4429359  75.2386627  62.3657379  43.8402710  75.5125961
  10.6474686  34.9336662  52.3466644  11.4639721  34.9132843  52.8458023
  10.4671469  35.8652039  52.2203636   9.0804625  64.1519012  76.9207993
   9.8907785  64.3654175  76.4581680   8.3906536  64.2893219  76.2715607
  63.5463257  20.9485607  61.8653831  63.3011017  21.1014805  62.7779121
  62.9799538  21.5348721  61.3636932  20.6849575   0.3824818  83.8823090
  20.5391521  -0.2832760  83.2101974  21.6368847   0.4282207  83.9716034
  62.0270691  33.5172806  41.2884483  61.4598198  33.7901497  42.0095596
  62.2895584  34.3357849  40.8672829  14.4037800  29.5782871  27.7161236
  13.4717550  29.4342194  27.5524044  14.7528524  29.8688717  26.8735447
  70.8191147  60.6074753  36.2472610  71.3104019  61.4053497  36.4428864
  69.9726028  60.9197273  35.9276619   9.5777349  42.7356186  47.9549217
  10.1540413  42.5299187  47.2188568   8.7093992  42.4565315  47.6645126
  14.8201275  14.7307110  25.1756325  14.5260839  15.6165209  24.9632378
  14.1643229  14.1586304  24.7770405  53.7419548  28.9042606  88.4893265
  53.1897850  29.1334324  87.7417831  53.2341118  28.2512932  88.9709549
  83.7422333  53.1204681   2.2708764  83.4831161  52.2083855   2.1397552
  83.0693588  53.6281853   1.8173344  27.7001839  64.7103348  19.5781307
  28.0080051  64.6100082  18.6773472  26.8168602  65.0686111  19.4908848
  34.9185181  58.3100052   4.3314710  34.4119072  59.1037941   4.5031610
  34.3872375  57.6029320   4.6975622  27.4891644  24.4702644  78.0703964
  27.9006596  24.2671909  77.2303619  27.8733978  23.8432274  78.6831207
  39.7156487  20.6099892  28.7263889  39.6007805  20.1665668  29.5668736
  40.5458603  20.2732029  28.3894024  57.2949448  53.2866707  46.4708405
  57.2090073  54.2362747  46.5551033  57.8583984  53.0314140  47.2013130
  39.4618645  62.3886032  80.8822403  39.8801308  61.5643311  81.1309662
  40.0601959  62.7779350  80.2445526  83.2849579  13.1705780  15.6478739
  83.0862122  14.1031733  15.7315397  83.4788437  13.0494537  14.7183743
  25.6967869  50.6352539  52.5450134  26.5930119  50.3572121  52.7339706
  25.1570396  50.1372299  53.1589165  14.1495247  10.3420782  85.4309311
  14.4667721   9.9503193  84.6172256  14.1218700  11.2815371  85.2495956
  12.2504511  40.4819679   3.9655757  12.9142752  40.0226021   3.4512291
  11.8747044  41.1187401   3.3576570  45.2543678  16.8264866  20.7191601
  44.4755783  16.5518322  20.2351360  44.9159393  17.3785477  21.4240894
  76.0580292  11.5799932  22.3026485  76.9984970  11.6991320  22.1701412
  75.6539078  12.2882481  21.8013573   4.0075035   6.1981826  39.1848068
   3.7176707   5.5251870  38.5689316   4.0089221   7.0068717  38.6727028
  43.1717033  44.6950684  45.4731216  42.3943977  44.3999443  44.9988518
  43.3722267  45.5512810  45.0950737  15.3143711  11.7504253  13.1177158
  15.2400141  11.1084137  12.4116535  15.7154980  12.5151691  12.7048054
  63.8423424   4.2368832  54.8659897  63.1896286   4.9166112  55.0338058
  64.1347733   3.9655833  55.7361145  16.6389790  42.8938675   2.6560287
  16.0311298  43.1084862   3.3636227  17.2651100  42.2886848   3.0534542
   2.9518199  31.7704239   1.0073531   2.2001486  31.3047771   1.3739519
   2.5688341  32.5117683   0.5383535  66.1463242  61.3885002  70.7198868
  66.6356659  62.1752319  70.4794235  66.0297546  61.4591827  71.6673355
  58.3032379  42.2080193  33.6655960  58.0032806  41.3024826  33.5864372
  57.8993225  42.5243492  34.4736900  71.7655258  63.8724976   5.1689835
  70.9591980  64.2704849   5.4971232  72.4661560  64.4021149   5.5495872
  14.2313032  36.3846169  88.4620972  14.1342144  35.4416313  88.5947113
  15.0354700  36.4729958  87.9504929  68.4163589  56.6940079  54.0888176
  69.0623627  56.8936729  53.4112892  68.6964188  57.2085075  54.8458443
  57.8094406  25.0014992  35.0455704  57.8621292  24.5638294  34.1959229
  57.7827110  24.2868900  35.6818542  50.4561577  68.3529587  78.1247101
  49.9275551  68.6452332  77.3821487  49.8463783  67.8596039  78.6733475
  37.7440414  44.6303024  24.2444668  37.9026146  43.8446960  24.7678299
  36.9416046  44.4371834  23.7596626  63.4105453  65.5654144   3.6597273
  62.7718964  66.1189117   3.2102833  64.0256882  66.1826172   4.0558195
  53.2633057   0.1574413  69.1680984  52.3627701   0.1847193  68.8448029
  53.1994972  -0.2777475  70.0182571  80.7695618  20.3708076  32.3195648
  80.0563202  20.7191029  32.8545532  81.5263901  20.3623447  32.9055405
  77.4315872  38.6970215  31.4456806  77.2119980  39.4953804  30.9654331
  76.5905075  38.3713875  31.7662907  80.3705215   7.6816115  59.4763641
  79.9125900   7.9023523  60.2874146  80.5167084   8.5244465  59.0468407
  28.0394325  44.7316551  21.1117401  28.8999882  45.1504669  21.0952396
  28.2263088  43.8065605  21.2714653  35.7383156  12.5327682  77.3673935
  36.0870361  11.9924068  76.6584244  36.3971367  13.2154350  77.4944992
  35.6334496  48.5315399  41.6893806  35.5246277  49.3024292  41.1324959
  36.0645256  47.8884048  41.1265450  16.8101559  36.3109779  69.2278366
  16.1062889  35.6764793  69.0928650  16.9544697  36.6960754  68.3634796
  36.3855209  59.0452156  72.5651550  37.2971039  59.3371849  72.5650635
  36.3152313  58.4796791  73.3342133  79.9696045  20.9123898  53.7871323
  79.8204269  20.2671928  54.4782867  80.2771072  21.6920147  54.2495766
  85.2460175  16.3133221  74.6417389  84.4241943  16.7498989  74.4175873
  85.0225067  15.7464666  75.3799438  16.9244785  10.1656055   7.5087652
  16.4708214  10.5995245   6.7861719  17.8515587  10.2204466   7.2769346
  76.2393188  38.8232536  19.6427784  76.7338028  39.6360855  19.7477589
  75.7930832  38.9213028  18.8016491  76.9211960  26.7875004  84.1521149
  76.6411209  26.4760113  83.2914352  76.4864349  27.6342201  84.2535172
  32.7568359  52.7754097   7.1041069  33.4706001  52.9769287   6.4989934
  32.7925186  53.4738464   7.7576685  22.0206833  51.5234566  33.6263695
  22.4655838  52.1609421  33.0678825  22.6743813  50.8410225  33.7786560
  40.8241882  60.3923759  74.5991592  40.6929703  59.5081024  74.2570038
  41.4207802  60.2769432  75.3387451  80.5201340  70.4316559  80.9763489
  79.6517792  70.5684052  80.5975647  80.9141083  69.7497635  80.4322433
  78.9618301  46.5720024  83.1799011  79.2609634  45.7073784  82.8985291
  79.0439148  46.5552559  84.1334229  50.0317078  69.8541031  21.3389263
  50.7623215  70.3928452  21.0352993  49.3259048  70.0360489  20.7184639
  19.3883934  48.0936241  43.7585869  18.5663490  48.5838699  43.7469788
  19.4552460  47.7172966  42.8810120  29.0211964  25.4462051  22.2844296
  28.2141209  25.4614906  21.7700081  29.3288002  24.5420246  22.2206306
  80.7511597  69.0035172   5.9741926  80.2433319  69.7185364   5.5906763
  81.5997467  69.0493164   5.5337062  86.1736908  27.6405945  48.2323875
  85.9210815  27.3331509  49.1029587  86.3783264  26.8417854  47.7463188
  63.4780922  46.0471687  71.9689102  62.5330544  45.9385033  71.8624573
  63.5714455  46.5561676  72.7741699  77.8297958  17.9447041   3.1077690
  78.2177658  18.1836319   3.9495676  77.9505005  18.7201290   2.5597012
   3.8102212  54.2590446  47.4104691   4.0594363  54.2786522  48.3344498
   3.3692365  55.0958099  47.2635307  33.0170746   7.5950880  87.4654465
  32.8974686   6.7188807  87.0991364  33.7005615   7.4869499  88.1268005
  20.9958916  27.6699963  61.4022980  21.0539761  26.7804241  61.0537033
  21.6843224  27.7125854  62.0659866  23.9265671  58.3032112   1.3289376
  23.0372639  58.3868713   1.6729869  24.1352615  57.3742943   1.4278947
  49.1450386  57.6673508  24.8365231  49.5744247  58.2017899  24.1685162
  49.6193428  56.8360977  24.8195553  52.2745743  65.9643173  39.0766640
  52.5196915  66.3564682  39.9147415  51.3247032  66.0729980  39.0300713
  58.6318398  41.2015953  71.8190994  57.8015480  40.7287025  71.8758392
  59.1107025  40.7613792  71.1168671  41.7594223  59.8542213  21.3176460
  42.4562225  59.4256401  20.8206348  42.2187958  60.4518280  21.9076271
   6.1734948  20.1816444  46.6531372   5.9078331  19.9569035  45.7614250
   6.0802841  19.3650780  47.1438103  62.3069153  59.6487427  41.9557457
  62.2933922  60.1049957  41.1143875  62.8292274  60.2130241  42.5258369
  18.3315163  19.4592915  26.3934174  18.5478134  18.8221207  25.7126369
  17.6993313  19.0073700  26.9522934   0.7011474  43.4383392  53.3336182
   1.2071689  42.8402023  52.7837067   0.0598997  43.8264542  52.7383041
  55.9061432  55.3062134  23.7094440  55.5841522  55.7509460  22.9253731
  56.1989899  56.0142403  24.2831764  23.7570019   2.1325448  70.8485260
  24.3711662   1.4814165  71.1877441  23.4804955   1.7826043  70.0015793
  36.2938538  66.8655167  31.2480030  36.2223320  65.9899521  31.6281376
  37.1806831  66.8992157  30.8893566  75.1628342   4.5216846  49.5135384
  75.2687988   5.3320041  50.0119247  75.8021622   3.9202914  49.8954086
   0.5783518   2.7009580  86.0663528  -0.1807076   3.1855242  85.7419205
   0.7129921   3.0330207  86.9539566  55.7715263   2.9462285   8.0044565
  55.8162308   2.5418565   8.8708954  55.8507462   2.2134199   7.3937621
  78.4455566  71.7832794  34.7368011  78.8079300  71.0435562  35.2243729
  78.5773239  71.5517654  33.8174171  56.0152092  39.5113182  26.0529442
  56.6024017  38.7743530  26.2212353  55.4834785  39.2288208  25.3088417
  61.1944160  60.0817909   4.7073317  61.3092842  59.1492004   4.5248265
  60.4931870  60.3568420   4.1166906  27.3983364   5.0076218  42.3394585
  28.2337837   5.1130552  41.8843307  27.6179676   4.5201645  43.1334229
  15.6593962  64.3911743  44.2377930  15.9443111  65.1166763  43.6821823
  14.8086462  64.6691666  44.5771637  29.1445122  37.2775726  11.4002180
  28.5496273  36.5366669  11.5159874  28.7717705  37.7722549  10.6704350
  71.4530029  37.6237373  25.5400925  70.8565979  37.9345779  26.2211990
  72.2022247  37.2713013  26.0203876  86.7786026  32.8281784   1.4319141
  86.2876892  32.0517769   1.7010592  86.6373444  32.8851929   0.4869142
  44.0266800  31.8919086  82.6398163  43.6676903  32.7789955  82.6606750
  44.5912971  31.8801327  81.8669662  40.3681374   6.5293531  80.1435928
  39.7075005   7.1479955  80.4551620  39.9845009   6.1464176  79.3546600
  79.5721817  14.3481951  73.5288544  79.5704575  13.4040260  73.6862488
  79.2714539  14.4408674  72.6248627  23.0687065  71.5934753  31.0765114
  22.8252602  71.9027252  30.2039680  22.5571480  70.7936935  31.1985283
  41.6063271  60.9146843  64.1961136  40.9963760  61.5377693  63.8012009
  42.4043961  61.4219627  64.3443832  26.0555363  49.9242134  61.2114983
  26.9728107  49.6839600  61.0806618  26.0761433  50.8666649  61.3776169
  15.7556534  59.7114868  42.4470177  16.1583214  58.9198418  42.0901031
  14.8259716  59.6228485  42.2370911  69.8782349  14.1841221  82.9568634
  70.8138199  14.3854027  82.9771271  69.8265228  13.2606602  83.2033920
  58.4987984  19.6156940  47.8328743  57.8661003  19.1038532  47.3289490
  58.5949135  20.4303913  47.3396606  27.0953045  45.6003189  74.6434708
  26.1726570  45.3491173  74.6004181  27.3740673  45.6458435  73.7288971
  55.0241394   3.2668111  39.4290276  55.3252258   2.5568769  38.8619576
  55.4754639   3.1175263  40.2598419  66.4274216  65.8079758  85.0779724
  66.4252625  64.8713608  84.8805389  65.6033249  66.1313858  84.7139587
  65.3445435  15.1547127  39.5066032  64.8600693  15.6623068  40.1576500
  65.8985443  15.7983227  39.0649261  15.6956654  62.2473068  71.3560104
  16.5850258  62.5955009  71.4194946  15.3662701  62.5822830  70.5220337
  21.9749165   1.0223180  51.5475807  22.8847561   1.1281892  51.2697029
  22.0200005   0.9760116  52.5025940  53.0855942  62.3821106  47.5802803
  53.6430664  63.1326523  47.3749809  53.2378693  62.2181168  48.5109520
  18.2903728   2.5641360  28.4773884  19.1755943   2.7660332  28.1743145
  17.7249794   2.8069131  27.7441635  43.6974030  69.5506210  57.8251457
  44.0550461  70.3262100  57.3929596  42.9503746  69.2973404  57.2829018
  12.3515501  46.0897026  44.4835129  12.7333364  45.2336426  44.6775055
  11.4401855  45.9004707  44.2602692  49.0817795  46.6567726  49.0192642
  48.1429787  46.7128410  49.1974182  49.2538033  47.3766899  48.4123344
  29.6072960  71.3243790  85.5560379  29.2586365  72.1283340  85.9411850
  29.6376457  70.7036209  86.2840271   4.2823873  15.4233503  52.0840797
   5.0401568  14.8592424  52.2383499   4.1861577  15.9223318  52.8952446
   0.9972368  30.0811615  31.6165257   0.7909245  29.2057915  31.9442406
   1.8982056  30.0124664  31.3006649  80.7449875   0.2444852  71.4275208
  81.5939102   0.6832799  71.3726120  80.1210861   0.9502915  71.5972824
  37.6919861   3.6722224   0.3788470  36.8562622   3.6224985  -0.0851871
  37.4947395   4.1651177   1.1753271   4.3788443  33.3963394  71.4385529
   4.9215574  32.8242416  71.9811401   4.9765458  34.0825272  71.1416931
  68.1334839  17.1028290  86.2725906  69.0600204  16.8737373  86.1999207
  67.7551575  16.8395653  85.4336624  40.5481720  69.8606415  81.7307205
  41.4827194  69.8405609  81.5246964  40.5075836  69.7060471  82.6744843
   2.3035684  11.7572050   8.7824125   2.1856511  12.0964794   9.6696672
   1.5259274  11.2215948   8.6254807  41.3838120  60.0210609  11.7703876
  41.0121574  60.8866577  11.9402390  40.6373825  59.4902916  11.4922504
  80.3728256  54.8348160  45.4315720  79.4525757  54.9268188  45.1847610
  80.8579788  55.0952644  44.6486130  25.2129955  41.4675674  38.8332748
  25.5431423  41.0067368  39.6045532  24.3132038  41.1561661  38.7351227
  44.8770447  34.7929573   9.5585852  45.5078545  34.9375687   8.8533211
  44.1802483  35.4273529   9.3905039  48.3508034  57.8879013  59.0151901
  47.9285049  57.3992844  59.7216949  47.7546692  57.7973976  58.2717743
  52.1666451  19.8079472  29.7016220  52.4420586  18.9359264  29.4188480
  52.2465134  20.3504848  28.9170799  34.0037346  56.2423286  82.5420609
  33.6771393  55.6939621  81.8287125  33.5054131  57.0560455  82.4660721
  35.2248726  32.6340675  88.5128021  35.8160019  32.1783905  89.1120987
  35.6261597  32.5240479  87.6507797  14.2467127  22.2705021  87.7146606
  13.8098946  21.9187336  86.9389801  14.5540571  23.1358871  87.4446945
  11.7053127  66.1454239  16.6623077  11.8031473  65.2525406  16.9930935
  11.9439878  66.0856476  15.7372713   8.7370014  64.8629150  53.8517303
   8.8927612  64.5317154  54.7361946   9.3364697  64.3613892  53.2991486
  22.6907902  21.6374931  28.6947651  23.3224487  21.0295315  28.3105450
  21.8370819  21.2947102  28.4303532  29.4227104  70.0986404  73.3201218
  28.4965000  69.9785614  73.5297623  29.4507980  70.9122238  72.8166199
  82.2420044   4.8602509  23.7616615  82.8513565   4.2429733  23.3568230
  81.3888626   4.4308310  23.6986027  81.5738678  30.7681465  19.4965324
  82.3057404  30.1518764  19.4680042  80.7934494  30.2147865  19.4654827
   6.8484669  28.3269615  42.1475945   5.8981647  28.3290634  42.0329056
   7.0109782  28.9962959  42.8122826  69.2968140  51.5669403  13.0732422
  70.0542679  52.0647621  13.3809280  69.0878220  50.9768486  13.7973595
  79.1581497  66.7883530  50.8467827  79.6310120  67.0868912  51.6236382
  78.2350998  66.8337097  51.0960922  26.8856125  30.6387291  86.3621063
  26.6130848  29.8766499  86.8731842  26.2678185  31.3266220  86.6098251
  38.4001579  38.1670532   5.5713687  38.7909126  38.5034866   4.7649236
  38.5478859  38.8591003   6.2159438  74.9412155  34.3468361  39.7625275
  74.2645416  34.8111038  40.2552834  74.6492081  34.3936653  38.8521576
  54.2753868  25.4588833   9.3907118  54.9808807  25.2822037   8.7683792
  54.6486015  26.0940514  10.0018616   2.3572056  16.9417419  69.0993729
   2.6594863  17.4989262  68.3821564   1.7288543  16.3459759  68.6913681
  84.8963776  49.5627785  29.8694344  85.2701645  50.4303055  30.0240669
  85.5837555  48.9541016  30.1400909  24.7758083  56.7305756  43.8832588
  23.8525105  56.9790497  43.9281387  24.8832378  56.3657646  43.0048485
  33.8547058  58.2440453  19.9032288  33.5376930  58.3374863  19.0048962
  33.6212234  59.0700836  20.3267536  47.7971001  18.8459454   0.6545224
  48.2969093  18.1216335   0.2779637  48.3761253  19.6038895   0.5739883
   6.9787440   2.2275517  52.0797577   7.1351719   1.3468841  52.4206200
   6.4125323   2.6398273  52.7321892  34.6995316   6.5768952  47.9353142
  35.6089211   6.7587132  48.1723404  34.6430130   6.8074894  47.0080261
  23.1717167  23.3443260   8.7756786  22.2540016  23.3680191   9.0467310
  23.5649796  24.1099815   9.1944246  61.4743690  41.9305000  41.8423080
  62.4266930  41.8412170  41.8789330  61.2474709  41.7077065  40.9394722
  59.1601562  35.3801384  17.1940804  58.7245445  36.2265968  17.0941830
  58.4607430  34.7798233  17.4522934  10.5460672   0.9616817  33.5649147
  10.0845451   1.5569485  34.1555786  10.7444611   0.1957723  34.1036644
  34.6711235  11.5534401  39.9634476  34.4558792  10.7118177  39.5614853
  34.0131989  11.6664696  40.6494446  40.6401100  64.7314072  16.9233608
  41.2892838  64.7302933  16.2199383  39.8474426  65.0820389  16.5171890
  80.7793503  40.0316620  64.5985947  79.8940277  40.0322685  64.9625092
  80.6499786  40.1139755  63.6537514  64.2509003  12.9342871  47.5490913
  63.9338608  13.5905399  48.1696129  63.6072426  12.9438238  46.8406792
  61.0836945  57.2866554  63.7820473  61.7519341  57.8503876  63.3923073
  60.6796913  56.8431931  63.0361557  60.6921730  45.3869781  16.0748138
  60.5505142  45.5372276  17.0094738  61.5004768  45.8596039  15.8760605
  27.9843082  48.6047554  22.7870712  28.2201977  47.9028130  23.3935890
  28.5890350  49.3163071  22.9973850  62.4138412  41.7909355  53.0399399
  62.0068741  41.4480438  52.2443008  61.9716873  41.3300209  53.7528839
  10.4145222  57.1090164  26.4061699  10.0634499  56.2217064  26.3309269
  11.3629608  56.9882431  26.4520855  75.7212906  20.4518051  24.1337795
  76.6092682  20.6918430  24.3985596  75.1651382  21.1287594  24.5193520
  22.2471008  65.6829147   3.5463398  22.2378788  66.3402557   2.8505991
  22.9973736  65.9210892   4.0909443  66.5955353  20.3996220  56.6855698
  65.9827042  21.1343975  56.6576767  66.0821457  19.6481667  56.3889503
  58.1082497  67.0295868  62.7563972  58.9075699  67.4104691  62.3927383
  57.4021072  67.4127274  62.2360191  49.9075508  49.0586052  75.4122849
  49.4547424  49.8991966  75.4801331  50.6928673  49.2502747  74.8996735
  83.5195694  47.2174835  25.0342979  82.5686417  47.1516609  24.9468403
  83.6739731  47.2146339  25.9789581  77.5890808  67.3074875   9.6928425
  77.3264542  67.0081253   8.8224182  78.4697342  67.6614609   9.5687752
  72.7467117  30.3187199  17.6679897  72.9989395  30.8323212  18.4353409
  71.7984009  30.2169437  17.7490463  54.2739716  66.0833282  82.1572495
  53.8474045  66.6577377  81.5213776  54.5905037  65.3442535  81.6378174
   5.9433703  54.4693298  11.1376381   5.6855989  55.1015816  10.4667845
   6.2293806  53.7002831  10.6446924  43.7770462  67.7465973  22.5931168
  43.7532349  66.7897491  22.6032219  42.8576813  68.0095291  22.6363182
  57.3473778  50.4310799  53.4357033  57.7202873  49.8506737  52.7721558
  56.6463470  50.8968620  52.9798164  38.0562668  16.2624836  74.7709808
  37.2732887  15.7266111  74.6444016  37.7197571  17.1441402  74.9312134
  84.8126221  12.3127747  42.9734154  85.4039154  13.0654230  42.9624481
  83.9395370  12.6926527  42.8751869  80.5275116  13.8643236  35.7790337
  79.9998627  13.9803295  36.5691986  80.4543533  12.9315557  35.5769806
  29.8886089   2.6957369  11.3414135  29.0961952   2.6804209  11.8781433
  30.4769897   3.2954772  11.8000536  77.5552673  13.1949139  65.4578400
  76.7233429  13.3448000  65.0087585  78.1443558  12.8803787  64.7720718
  53.8721771  53.0292816  55.6020966  54.2572670  52.3687820  55.0261841
  53.3228340  52.5295296  56.2060051  18.2456017  10.9942245  79.5258026
  17.8706017  11.8364592  79.7831879  17.9708366  10.8776169  78.6163254
  52.3053894  12.4864178  75.1669540  51.7437439  11.9971399  74.5657959
  52.0024414  12.2318592  76.0385361  37.3211594  27.7111588  39.5709343
  38.2344284  27.9959393  39.5381317  36.8546104  28.3387203  39.0189133
  29.3160534  59.8187065  86.9869537  29.5593243  58.8985405  87.0886765
  28.4070168  59.7944908  86.6881256  51.5924606  36.4756432  36.4977837
  51.8595428  36.0021095  37.2856102  51.3954697  37.3604126  36.8053665
  79.8705597  15.8363123  62.3335724  80.7994843  15.7589197  62.5511360
  79.4199448  15.7522039  63.1738701  80.3882523  48.0530396  78.3271942
  79.7966995  48.6163292  77.8281937  79.9868088  47.9923515  79.1940231
  58.7850151  56.6496048  33.7357635  58.8840561  56.4600945  32.8027534
  59.3840828  56.0413437  34.1686287  44.3730049  64.1948090   0.0486886
  43.7565384  64.9204102   0.1472033  45.1878433  64.5190582   0.4322743
  31.1162300  14.7802658  75.1730194  32.0110855  14.4410248  75.1535187
  31.1723938  15.6294098  74.7348099  21.0892086  58.5446777  62.0051842
  20.3323879  58.3366699  61.4572906  21.0365658  57.9240150  62.7319832
  39.0293922  31.7023354  17.9755993  38.6633568  31.8802376  17.1092262
  38.3735237  32.0385513  18.5863590  69.2573318  22.0507069  88.6872559
  69.5277176  21.1719494  88.4209747  68.3216171  22.0839558  88.4883499
  11.5759630  28.9275837  27.4859886  11.0114183  29.6872463  27.6289387
  11.0587845  28.3463840  26.9283466  84.1896591  13.2208729  62.5518608
  84.2555008  12.2711077  62.6510773  84.9403992  13.5648670  63.0359001
  58.6007996   2.9115989  30.2781448  57.6921005   3.1148784  30.4999084
  58.5388756   2.3495162  29.5058365  80.2022705  39.4741402  73.6525650
  80.1725388  40.4144020  73.4757690  79.4511566  39.3139915  74.2238922
  12.9265242  23.3459644   7.2456174  12.8321161  23.4869728   8.1876554
  12.1173000  22.9048309   6.9871840  83.2309113   8.6993589  73.5013733
  83.2375488   8.2656193  72.6481094  83.8584290   9.4164219  73.4104385
  59.9796982  39.0485954  41.0257835  60.8278542  39.1154823  41.4644089
  60.1830597  39.1440315  40.0953178  62.1967812  38.6765175  42.5434265
  61.9276848  37.7834358  42.7584114  62.7084808  38.5855484  41.7396088
  66.0092010  67.5784607  33.4649086  66.5050735  68.2372742  32.9787979
  66.2365189  66.7491379  33.0444450  34.9955711   1.0775620  17.7135277
  34.5942001   0.4962660  18.3594589  34.7992744   0.6700898  16.8699245
  84.4537430  17.3609867  54.1615372  85.2916870  16.8983116  54.1579361
  84.4389191  17.8231297  54.9996529  66.9045181   1.5931220  71.5119324
  66.9808273   2.5298023  71.3301697  66.2479858   1.5365754  72.2061996
  57.4929848  26.7217274  14.7851925  56.6437416  27.0951443  14.5494509
  57.5945053  26.9255943  15.7149048  58.7697449  53.1803284   7.9734139
  59.2994347  53.3340721   7.1910930  59.1952553  52.4420815   8.4094868
  48.7185478  40.2526321  74.1632233  48.1356964  39.5234985  73.9513779
  49.3145599  39.8988152  74.8233795  10.0105705  16.2390804  51.5235977
  10.3576670  15.9760685  52.3759956  10.4396582  15.6539011  50.8993530
   7.3356833  16.2357616  60.2970009   7.2551594  17.1146221  60.6676102
   6.6863484  16.2117977  59.5941353  12.6047268   2.9257538  19.0130081
  13.3729792   3.4948921  19.0588608  12.6640587   2.5122292  18.1517830
  12.6797638  55.1426620  37.1569557  13.2983904  55.6920624  36.6756096
  12.4017172  54.4823380  36.5222168  51.9848747  12.6058226  87.0087128
  52.1190910  12.3214340  86.1046448  51.3847618  11.9574823  87.3771591
  75.8763046  24.4942799  74.7316818  75.0629654  24.2766933  74.2763138
  76.5621643  24.0798912  74.2081299  12.6874065  41.6600151  13.3504925
  12.8678179  42.1169548  14.1720085  12.6853580  40.7326698  13.5876789
  49.2021103   3.5604954  51.7273903  49.0996742   2.6950829  52.1233711
  49.3459663   4.1478786  52.4693604  13.3289795  44.1053047  70.9341278
  13.6250753  43.3847275  70.3779526  12.4914675  44.3719292  70.5550232
  74.1562653  26.9023151  78.2695389  74.0338364  27.3563290  79.1032715
  74.0820312  25.9736595  78.4893646   2.4460371  46.8946114  44.1104507
   3.1686428  47.0691261  44.7134590   2.4374392  47.6495705  43.5220718
  85.6522903  58.2894096   2.1958265  84.9745102  58.6958504   2.7358782
  85.4740524  58.6051903   1.3099673  64.6014404  18.5840206  74.7226639
  64.3101959  17.8993740  74.1204453  63.9547272  19.2824974  74.6220398
  13.7943859  65.1417999  77.7049179  14.3215227  64.5623322  77.1548538
  12.9925718  65.2852631  77.2021790   4.0834961   7.7985945  53.6311073
   3.7352338   7.6109571  54.5027351   4.0157452   8.7495689  53.5457306
  49.1374779  50.5163460  43.7101631  50.0366135  50.6985817  43.4370728
  49.1982613  50.3739090  44.6547508   6.5336127  50.2870483  74.3428955
   6.7952833  51.0227394  73.7892609   6.5281391  50.6453323  75.2304993
  42.0218277  30.0194283  83.2952194  42.0490990  30.3815289  84.1808701
  42.8420448  30.3063564  82.8937912  54.5287628  68.1228943  38.4506416
  54.5310249  67.4344330  39.1156540  55.2732735  68.6793137  38.6794014
  49.4930077  26.9531116  18.5287952  49.8467331  27.8333092  18.6567173
  48.9422684  27.0272427  17.7494221  81.3964233  71.4665985  74.2315369
  80.6669083  71.4993820  73.6127014  81.0540466  70.9774857  74.9797134
   8.2631617   3.5706186  54.6972847   9.0572672   3.5382333  54.1638260
   8.2020531   4.4828534  54.9807014  20.3997860   1.2858633  79.4008713
  19.8652554   1.2914423  80.1948929  20.2873745   0.4053672  79.0426483
  69.1041489   7.5916820  66.9541245  68.5787888   7.8611183  66.2007065
  69.3593979   6.6902189  66.7580566  69.5607300  58.6899529  59.0870094
  69.9331284  57.9924507  59.6264954  69.1069031  59.2579231  59.7096481
  68.2298737  36.8435402  25.0502396  68.0059357  36.6069908  24.1501694
  68.1118469  37.7928085  25.0848370  66.5830612  12.9925079  17.2813320
  66.8958511  12.3597870  16.6347580  65.6962738  12.7005892  17.4925747
  84.9945755  10.1746368  64.4818192  84.2758484   9.5877104  64.7167358
  85.7479477   9.8364363  64.9658432  81.7396927  54.7039719   1.3062825
  81.6410294  55.1857033   2.1275194  81.1688919  55.1623993   0.6896297
  33.5808792  36.2574005  83.8126297  32.8178253  36.8352814  83.8071213
  33.6321449  35.9369545  84.7131424  21.5318584  23.9296150  83.3940048
  22.1363125  24.5848560  83.0454025  20.8908882  23.7992134  82.6951599
  47.4207344  35.7363358  33.4226990  46.9731255  36.5497742  33.1898994
  46.7401237  35.0652504  33.3712311  10.5508909  37.2975044  56.3384323
  11.4932461  37.2398262  56.1807213  10.4670553  37.9142838  57.0656090
  75.0053253  66.9033661  61.9211159  75.7244873  67.5217972  62.0498734
  75.2501678  66.4110718  61.1375732   2.1066427  25.8083839   6.2892089
   2.9931076  25.8695889   6.6451101   2.1885710  26.1190701   5.3875470
  54.7909126  69.9878464  15.6628008  54.1672783  69.5848083  15.0587587
  55.6282043  69.5734177  15.4544230  59.1676025  50.6503181  30.1712341
  59.9751701  50.9653015  29.7652168  59.3693314  50.6102982  31.1060810
  63.8034439   7.5762119   1.8281673  63.1649017   7.4677701   2.5329604
  64.6481476   7.3949137   2.2402864  32.3808403  60.7038536  33.3583946
  32.8388329  60.7962151  32.5229607  31.9919720  61.5644073  33.5147743
  44.5803795  44.3145218   5.3853927  45.1389427  43.7150688   5.8802624
  44.9186516  45.1851082   5.5948744  85.1769257  66.1492310  70.4224091
  86.0917511  66.0091858  70.6667557  84.7478027  65.3150253  70.6126709
  16.6712551  23.0319977  77.0865555  17.2020779  22.2630634  76.8787079
  16.2973804  22.8396130  77.9464645  12.8775587  32.2910385  24.8944988
  12.6292286  33.1835747  24.6537800  12.4227266  31.7366314  24.2604713
   0.7414318   6.5920339  73.5908813   1.4362543   6.6887288  74.2421112
  -0.0441300   6.4048529  74.1047745  83.9479294  20.2729073  37.9163284
  84.5480576  20.2367878  37.1715012  83.1655579  19.8102627  37.6161804
  39.1395760  41.1480904  56.0817490  39.8456573  41.6308174  55.6520309
  39.3295631  41.2274094  57.0165443  40.2145386  40.5838242  10.3982430
  39.5170059  39.9330597  10.3196068  40.9536896  40.0994148  10.7659893
  23.9428024  65.1026077  39.8825111  23.8489628  65.5693359  39.0520935
  24.2461147  65.7691422  40.4989319  50.9750595  69.5665436  56.8591690
  50.4521980  70.3681259  56.8767090  50.3465843  68.8667068  57.0366173
  46.7291183   8.6011524  72.5791092  47.1599007   9.1627913  73.2234802
  46.4862289   7.8160992  73.0699539  53.9137421  68.9502716  32.6751823
  53.8144035  68.2585678  32.0210266  54.5617332  68.6068802  33.2903442
  63.5664520   2.5770116  62.3933029  63.7973175   1.7584493  62.8324928
  63.1243744   3.0938101  63.0668907  66.7940750  54.1673050  49.3411331
  66.6369324  54.9880257  49.8079834  66.3954849  53.4963684  49.8953857
  21.5923138  25.0214863  30.7073994  22.2114868  24.7189598  30.0430698
  21.2424393  24.2179604  31.0923233  18.0874615  44.7565498  69.3985901
  18.9921417  44.4446907  69.4215927  17.9766712  45.1050491  68.5139999
  56.6462669  35.0466766  37.4311600  55.7113724  35.0387039  37.2258797
  56.7533379  34.3578339  38.0871048  44.9680557  51.4407234  25.3912773
  45.6513748  51.2572060  26.0359726  44.4729462  50.6239700  25.3279419
  82.9292984  57.6303825  64.6957092  83.3442535  57.2495766  63.9217377
  82.0528259  57.8772049  64.4005737  28.8263893   8.7471094   2.5696185
  27.9224586   8.6444473   2.8672752  28.7988472   9.4959383   1.9740276
  72.7939682  22.8348579  61.3641357  72.7173996  23.7821980  61.2504959
  73.0690994  22.7242622  62.2742462  17.7829018  65.3692093  11.5898705
  18.1565952  64.5104065  11.7874470  17.9151840  65.8777847  12.3899240
  81.4285889  70.7527313  37.7394524  81.6125031  71.6313934  37.4072571
  82.2300262  70.4966278  38.1958923  65.8127289  19.5513744   0.1772496
  66.1155090  20.2393379   0.7699242  66.5542526  18.9498463   0.1098451
  64.0477600   5.4577031  34.7692947  64.7708359   5.0234818  34.3167038
  63.7686348   6.1479249  34.1677017  71.0632935  54.2442093  78.2061081
  71.1395187  54.6348953  77.3356018  70.6394272  53.3996811  78.0533295
  25.7706089  32.0727463  80.5530853  24.8636723  31.7675667  80.5768051
  25.8449802  32.5381966  79.7199860  18.3240147   0.2923977  40.4101753
  18.1402187   0.9612854  39.7505989  19.2682533   0.1481092  40.3483200
  19.6240273  24.1532879  81.3267365  19.5813770  25.1055984  81.4134445
  18.7671471  23.9058075  80.9792557  14.9660959  67.8635406  19.6877499
  15.7098637  67.4065094  20.0803928  14.3165150  67.1771851  19.5354385
  29.3223495  64.3997726  52.8743668  29.2621155  64.9499283  52.0933876
  29.4162884  63.5100937  52.5339508  73.6006393  22.4678917  57.1187363
  73.4934158  21.6360893  57.5800858  74.3943253  22.8493233  57.4939728
   0.5943885  32.8273888  81.9845963   0.8556188  33.6949234  81.6757660
   0.6094950  32.8983459  82.9390411  61.8476181   2.4633884  88.1694489
  61.2921295   3.2274060  88.3241806  61.2810974   1.8448083  87.7083206
  29.5608330   2.8726940  69.9695435  30.1262093   3.4154732  70.5190659
  28.7333450   3.3522112  69.9300766  58.8207817  63.5148506  69.2337494
  59.3050232  62.8339539  68.7667160  59.1269951  64.3349228  68.8465195
  38.6017036  53.6125793   5.9849086  38.5675278  52.8523521   6.5655303
  38.3986740  54.3564453   6.5520720  16.2680302  49.4734688  82.7164154
  16.1032925  50.0427666  83.4680710  15.6420994  49.7649345  82.0534744
  81.1953888  10.4172583   9.0014391  80.8181076  11.2869225   9.1339941
  80.9406738  10.1790037   8.1100426  52.9535103   2.7939630  54.6156807
  52.8818092   3.2583687  53.7817650  52.9133568   3.4836986  55.2781639
   9.2157030  26.3599472  74.4548569   9.5392504  27.1392384  74.9067993
   8.2625933  26.4409542  74.4902267  60.2660522  38.3004837  88.0002136
  59.5099792  37.8118477  88.3255234  60.4215546  38.9715347  88.6648483
  20.2938843   2.2541749   2.6536760  20.2054863   1.3362969   2.9104190
  19.9510536   2.7457349   3.4000459  51.4653473   1.7409040  16.5922565
  52.3985710   1.8801117  16.7533379  51.0293541   2.4176896  17.1100426
  75.4199829  17.7592430  58.1547699  75.3897018  18.6861305  57.9177132
  74.7923126  17.3407135  57.5656242  77.2749100   2.7235723  60.7374535
  77.1679230   2.1796923  59.9570808  78.1209793   3.1541910  60.6151276
  53.8065834  27.0728111  20.2461376  52.8854332  27.2447929  20.4414082
  54.2412834  27.9148731  20.3810482  48.6312027   0.8829785  12.1688433
  48.2305756   1.0954906  13.0117950  48.8127937  -0.0554585  12.2197580
  32.7819290  16.2572327  11.0969133  32.9712448  16.8856030  10.4001045
  31.9378014  16.5382824  11.4500341   9.4791927  19.2420597  54.0867844
   9.6524553  18.4526787  53.5738602   8.6502724  19.5743961  53.7422867
  78.4456635  44.6522293  45.9335136  77.6453094  44.7033272  46.4560509
  78.1412354  44.6746483  45.0262909  16.6757278  68.6593552  17.8393421
  16.1419754  68.2662582  18.5298595  16.2174835  69.4689636  17.6140118
  34.3199997  43.4531021  25.8538342  33.9117088  42.7593880  25.3358669
  33.6324348  44.1109543  25.9573708   2.8228967   7.5542088  49.6163330
   3.6263392   7.2419024  50.0324783   2.1208215   7.2447519  50.1886597
  85.1596603  13.9178181  69.1730728  84.7147217  13.1388502  68.8392029
  84.4792252  14.5906363  69.1967621  16.2682724   9.1945963  11.7800417
  16.6663017   9.2239685  10.9100170  16.8429127   8.6210709  12.2870827
  15.8652830  59.9030800  35.5120010  15.2115002  59.4247665  36.0219193
  16.1330395  59.2882500  34.8289795  80.8501587  20.0094547  26.2718792
  81.0422821  20.1010036  25.3386364  81.6411057  20.3221455  26.7110386
   8.5901394  13.9669228  21.9147434   7.6881886  13.7467852  21.6818142
   8.7338705  14.8300552  21.5267029  70.0404358  51.6374092  32.0532837
  70.2168427  52.4715424  32.4884071  70.1851807  50.9779816  32.7318382
  82.2623291  30.9535503  88.7000580  83.0129471  31.5189533  88.8820724
  81.6630554  31.5054283  88.1975327  86.7180405  40.8995247  12.3600855
  86.2026367  40.5262413  13.0751028  87.5437927  40.4159203  12.3822002
  32.1826897  25.6586609  10.3210983  32.0112495  25.1566067   9.5243673
  31.6897812  25.2018967  11.0027418   3.6793983  29.2014484  25.0280056
   3.3018699  28.4552345  24.5623131   3.0618062  29.9165840  24.8750610
  16.2443008  47.4618645  12.5171385  16.4456959  46.6479034  12.9788065
  16.8369827  47.4638519  11.7655020  32.7014771  67.2308502  86.6011963
  32.5739059  67.2857056  85.6541214  33.5018005  67.7299423  86.7643661
  83.5760193  10.4832134   9.9359856  82.6272888  10.4839849   9.8089724
  83.6914825  10.3572989  10.8778172   0.7182044  45.1312294  -0.1390338
   0.3388125  44.2594872  -0.0278765   0.5208303  45.5846252   0.6805439
  85.7272797  36.5643616  54.2174759  86.2306747  35.8759117  53.7828865
  86.1153183  36.6303139  55.0900040  83.5152435  27.6240692  59.9411469
  82.9975433  27.1834126  60.6149712  83.0623474  27.4238148  59.1219902
  68.3900070  11.3512115  26.6691971  67.5500183  10.8956375  26.6135464
  68.5855560  11.6041117  25.7669582  75.1077118  37.3039665  32.7223434
  74.4402390  36.8797569  32.1831245  75.0312271  36.8789177  33.5765800
  39.7813721  67.6874161  64.5687103  40.5112648  67.5512772  65.1728210
  40.0057869  68.4907455  64.0991058  77.4141083  52.0637550  77.9883652
  76.4804993  51.9423103  78.1611710  77.6467514  52.8548164  78.4745102
  30.7077045   7.3027425  38.3576050  29.9991817   7.9326019  38.4899063
  31.2245750   7.3512583  39.1617966  66.8201828   5.3571277  68.6144333
  67.1178207   6.2570858  68.7475433  67.5310974   4.8163676  68.9585266
  18.6715183  25.4281006  62.3224945  17.9712925  25.1144447  62.8948021
  18.8143349  26.3349209  62.5936317   7.3572016  68.7457733  67.7259369
   7.6311550  68.7826462  68.6423569   6.4937801  69.1588821  67.7172546
  75.9468689  36.4197502  11.7350693  75.1694260  36.6504936  12.2435637
  75.6044083  35.9553757  10.9713249  17.7789402  70.8678513  21.2481289
  17.9159908  71.6674728  21.7561321  18.1296597  71.0718155  20.3811646
  59.1911240  39.7489967  82.4879990  60.0763359  39.5476608  82.1845169
  59.2538872  39.7244072  83.4428253  70.5641327  23.1990108  30.8138199
  70.1146774  22.6248493  30.1936913  70.1137619  23.0524540  31.6456337
  84.3798828  48.2788773  53.3838921  84.3608704  48.7723618  52.5639267
  85.2207031  48.5062447  53.7808266  62.4192543  70.1845093  87.0994873
  62.3335419  70.9657364  86.5530624  62.4714813  69.4604263  86.4756241
  80.0548096  34.5374908  31.6554813  80.9855881  34.7239532  31.5325108
  79.6530151  35.3970299  31.7819157  27.4790955  60.5227509   3.1277423
  27.3810425  60.1976395   2.2328012  27.4374180  59.7376251   3.6737018
  74.3071365  24.4375954  47.3363686  74.3379288  23.9333019  48.1493721
  75.0460587  25.0425434  47.4016304   5.9862213  63.4415131  30.1523380
   5.9900112  62.7162056  29.5277195   5.0702205  63.5244980  30.4174557
  49.3558998  32.3883438   2.3893137  48.8995209  33.2282677   2.4391179
  48.7246552  31.7524300   2.7260227  84.5084457  40.9633598  80.6050262
  83.6641922  40.9061356  80.1576080  84.2829971  41.0739937  81.5286942
  57.1355896  48.7765312  29.9212494  57.9723320  49.2286224  30.0294552
  56.7252235  48.8222504  30.7848129  85.9456940  15.3025188  72.2782440
  85.8147278  16.0562840  71.7029953  85.9697113  15.6751680  73.1595993
  15.1276026  15.8577700  68.9340668  15.0141907  14.9202299  69.0902252
  16.0660782  15.9627180  68.7776031  39.0529709  17.9583473   6.2015543
  38.9895515  17.3396320   5.4739542  39.3005142  18.7866859   5.7906919
  42.8475266  18.5985870  87.1270599  42.6734123  18.6087322  86.1858826
  43.7139130  18.1993847  87.2060699  63.2608490  38.5909271  62.0124321
  63.6633835  39.3193626  61.5395889  63.1201057  37.9202003  61.3441887
  21.5662365  70.0065689  85.9798126  20.6969910  70.1106949  86.3668594
  21.4827747  70.3758621  85.1006775  80.7170486  11.2739325  12.9162912
  80.8933563  10.5516291  12.3134441  81.3812103  11.9299707  12.7047949
  69.6522293  69.2908859  86.1527863  69.3677063  68.5541000  85.6120224
  69.2477646  70.0570068  85.7457199  83.8651810   3.4584210  88.2463303
  84.3947754   3.8612826  88.9344177  82.9636078   3.5461950  88.5556641
  25.6825714  68.0689468  26.8659706  24.9986115  68.5611343  26.4118938
  26.2092896  67.6872482  26.1637573  61.8159752  40.0187988  81.4306488
  61.4923096  40.2402992  80.5574875  62.7086906  39.7065201  81.2830811
  41.6278076   4.7219024  70.6649323  41.7802162   4.5065274  69.7448120
  42.5039940   4.8421493  71.0310822  47.2897301  54.2744255   2.5123787
  47.2269325  54.6100464   1.6181487  47.6523781  53.3941841   2.4129183
  72.1511002  66.7243347  61.1545906  73.0615311  67.0152512  61.2068405
  71.6594086  67.5149612  60.9323730  73.7027664  70.0167847  60.1351509
  73.8162918  70.8410492  59.6619377  73.9872589  70.2120438  61.0279922
  58.7415848  61.0397720  46.1676483  58.0009956  61.1701355  46.7599030
  59.4530449  60.7435989  46.7353897  84.5333176  11.2233696  45.5859032
  85.1016159  11.7561407  46.1421661  84.6844711  11.5556850  44.7010574
  32.2808838  50.0094070  25.0511875  32.2130127  50.8248520  25.5478535
  32.8947144  50.2097321  24.3445663  77.9542847  65.6541138  24.6547508
  77.1060867  66.0927353  24.7211494  78.5412598  66.3205643  24.2976227
  53.2517433   1.5835878  28.8316364  53.6849556   1.2810016  28.0335140
  52.5191460   2.1149042  28.5198078  76.5814438  19.3375645  88.1957245
  75.9514999  19.9570160  88.5640717  77.4213715  19.5959702  88.5751801
  54.7930145  52.7383270  17.7453518  55.2265930  53.5474472  17.4741173
  55.5106163  52.1431274  17.9621716  27.6482601   0.5748895  65.0181351
  27.3728123  -0.2869465  65.3305435  27.6337757   0.4996682  64.0640030
  -0.0280044  17.2423840  82.5698547   0.1068403  17.0976009  83.5063858
   0.8459972  17.4316177  82.2284698  50.1597252   3.1702297  12.0374756
  50.8602180   2.7471981  12.5340452  49.5509949   2.4611387  11.8304224
  23.8890705  52.0905724  55.5778084  23.8332291  52.1851006  54.6269226
  22.9933529  51.8936577  55.8519363  28.9607639   4.5133557  74.7697601
  29.0688324   5.4473534  74.5903091  28.1127949   4.4504619  75.2093277
  36.1738701  69.8659897  34.2634583  35.4989777  69.1912155  34.1897278
  36.0001221  70.2875671  35.1050720   6.7549500  66.8176727  87.7801514
   6.8120871  67.2779465  86.9428253   6.9457641  65.9046707  87.5651016
  75.5701675   1.3158617  42.0285187  74.9194870   0.6139168  42.0392342
  75.1465836   2.0421083  42.4860916  79.8996353  38.9729729  56.4027824
  80.1937637  38.9338531  57.3128319  80.6921158  39.1694565  55.9031792
  55.1434708   0.1517664  38.5206680  55.1534882   0.3865931  37.5927734
  55.8432083  -0.4950170  38.6116142  79.6883316  29.1436596  10.9757633
  79.1664429  29.0850792  11.7760353  79.1232758  29.6028461  10.3544025
  64.7853775  33.4386978  81.6100082  65.2297745  33.9190063  82.3086166
  64.7405548  32.5376320  81.9298630   7.7573624  14.8615360  39.2289619
   7.5852957  15.6387939  38.6974602   6.8905849  14.5628614  39.5041389
  22.9311829  42.1138916  66.5077057  22.0326900  41.7962303  66.4180908
  22.9685516  42.8882866  65.9463272  72.3044128   1.5290712  74.0777435
  72.1232834   0.6040422  74.2443161  72.9937668   1.7544202  74.7024307
  75.1855621  57.3872681  59.1468163  74.9361267  56.5040855  58.8747749
  76.1407776  57.3958778  59.0857735  83.9736328  56.4114876  78.4760895
  83.8317719  55.4661446  78.5253754  83.0951080  56.7883835  78.5249023
  40.1753845  34.9312859  71.9870529  41.0455017  34.8385658  72.3750305
  40.2305450  35.7307053  71.4634857  29.7990379   8.6349545  18.4628162
  29.3683033   7.9630246  18.9912186  29.1262856   9.3027201  18.3296852
  29.5974407  54.8340683   8.7461195  29.4607925  54.5978088   7.8286557
  30.1666164  55.6029549   8.7132301  78.8827286   4.5793290  13.0175114
  78.5372162   3.7333114  13.3023024  79.4727020   4.8466215  13.7222958
   7.9935269  28.4701271  77.9864273   8.7477617  27.9660091  77.6810989
   8.3608198  29.0969524  78.6096573  71.9753342  35.6297646  63.2830429
  71.3452072  36.2464409  63.6557083  71.4958725  34.8033600  63.2246552
  81.0538864  20.7571888  56.6084213  80.4818268  21.1348534  57.2765160
  81.8117294  20.4349365  57.0963287  63.5926819  49.8237419  80.9059601
  62.9636307  50.5004768  81.1560822  63.0940590  49.2282600  80.3464890
   6.8136163  54.1978416  30.1937008   6.0975456  54.3294907  29.5722961
   7.4388738  54.8932304  29.9894543  71.8930206  11.8772774  65.4839249
  71.4631042  11.1207418  65.8827438  71.1914368  12.5180998  65.3683777
   4.2160697  63.1062698  15.8100405   5.0791378  62.7301865  15.6371002
   4.3361421  64.0479279  15.6871729  66.0308228  24.1489944   8.6292372
  66.9721832  24.0056038   8.7267208  65.6416092  23.2851486   8.7653141
   3.2575567  23.5126534  28.2171345   3.7937644  23.0548306  27.5697441
   3.4995003  24.4336967  28.1203117  53.4600258  30.5829716   2.4559724
  54.4109154  30.6861267   2.4933605  53.2706680  30.4422169   1.5283068
  65.2151718  70.5038223   5.9245186  65.6093826  71.0877914   5.2765932
  65.7863770  69.7357864   5.9336596  79.1068878  33.8997345  61.7894859
  79.9236221  33.7658653  61.3085938  78.4195557  33.7542877  61.1393700
  44.9427528  38.3884697  23.1879063  44.5170784  39.0464325  23.7375546
  44.9114189  38.7572060  22.3051338  18.6205425  20.9136028  12.3198452
  19.5402393  21.1670055  12.2412500  18.2764454  20.9815044  11.4292173
  69.3668365  33.1679115  35.4085655  70.3157043  33.0746918  35.3237610
  69.2513428  33.8467751  36.0734253  62.9710121  28.0515804  42.5123177
  63.0858536  28.2360859  43.4445190  62.8124275  28.9084759  42.1163216
  25.0410900  60.0044289  34.9352036  24.7052212  60.5668983  35.6330910
  24.4135990  60.1094780  34.2200432  39.4474525  45.3836632  75.7548828
  38.6543388  45.9104652  75.6565170  39.7760086  45.2764473  74.8622513
   1.7358851  66.7944489  67.8770599   1.7154579  65.9678345  68.3592606
   2.6250830  66.8452530  67.5263748  76.9384079   4.4757066  36.7856941
  77.2943802   4.9500856  37.5370102  77.7058334   4.1004477  36.3538742
  25.1125565  70.1262131  87.6624603  25.3572655  69.2128601  87.8112411
  25.6345596  70.3938751  86.9060822  69.2861481  31.1357574  31.3236465
  69.6080704  30.3884468  30.8195343  70.0130539  31.3650894  31.9026527
  53.4238014  60.6970444  28.0307541  52.6055756  60.5603065  27.5532169
  53.1657257  60.6988831  28.9525070   7.6110921  53.9240494  69.0888443
   6.8344951  53.3898582  69.2554779   7.2767377  54.6978111  68.6352615
  83.7742691  70.8501129  39.1567345  83.2080231  71.3351059  39.7570534
  84.4668350  71.4698029  38.9274521  66.2733994  55.2126732  38.9485474
  65.3277969  55.3045235  39.0652809  66.5733871  54.7854080  39.7508469
  39.4833946  22.5829544  80.4133682  39.4058647  22.0060482  81.1732330
  40.0826302  22.1242428  79.8245239  66.1077652  68.5716782  -0.0540839
  65.9803848  69.3017273  -0.6599196  66.4355698  68.9798508   0.7472726
  22.0708179  48.8904839  60.2920952  21.3242607  48.7234802  59.7167740
  21.7006760  49.3742371  61.0304756   8.6463213  65.0726547  21.9505253
   9.0308332  65.8980331  22.2457027   9.2867689  64.7168274  21.3345337
  67.1970444  50.5384254  51.2499886  66.4873810  51.1592445  51.0851173
  67.9645081  50.9376221  50.8402596  58.3719788  39.8195839  64.6796722
  57.9299812  40.3186951  65.3665237  58.5011253  40.4498940  63.9709702
  70.4823151  15.1048584  27.3068867  69.6555481  15.5102711  27.0454845
  70.4289703  15.0456209  28.2607613  55.7127495  11.9528046  86.7296066
  55.1499596  11.1923285  86.8751373  55.1950302  12.5299940  86.1683121
  18.9816132  60.2999916  85.7515640  19.3535614  60.2236252  84.8729019
  18.9906750  61.2394714  85.9346695  20.1935310   5.7556543  56.9861336
  20.4310970   6.0026126  57.8798943  20.0560799   6.5890813  56.5358696
  38.7628212  35.3347740  10.0040836  38.4488678  36.1845016   9.6948509
  39.6843262  35.3115807   9.7461681  51.4457321  46.2805595  29.7807045
  50.9828300  46.6275482  30.5432987  51.9105186  47.0350761  29.4188881
   6.9500809  62.6153450  50.5860519   6.3970857  61.9253654  50.2195053
   7.5930085  62.7965508  49.9004593  37.2359848  53.6154137   3.5917151
  37.9038315  53.7138596   4.2703309  36.9390411  52.7094917   3.6775334
  67.4363098  56.7002640  36.9366417  66.8610764  56.2529373  37.5573158
  67.3176727  56.2246017  36.1145058  47.0627670  27.0595837  66.9777756
  46.1543770  27.3541279  67.0434113  47.5822296  27.8450680  67.1492538
  25.1597137  45.5545311  41.2797127  25.2528763  45.3239822  40.3553734
  25.2408867  44.7212791  41.7437515  85.7451172  64.4911880  86.5558167
  84.9207230  64.2760010  86.1195831  85.7379227  65.4459305  86.6240158
  52.5893822  49.2726402  66.4180908  51.7550812  49.6132431  66.0953445
  52.3870583  48.9282074  67.2879562  29.5785770  58.3903885  82.0845032
  29.7370586  58.1012306  81.1858902  29.1748409  59.2532043  81.9907837
   7.4787383  27.3548965  30.6080112   8.2221813  26.8077011  30.8611946
   7.8745852  28.1117783  30.1759605  83.7005844  32.6896553  51.9789276
  84.3409805  32.1033478  52.3818779  84.0544662  32.8684464  51.1077042
  66.2803192  20.2985992  82.5456543  67.1991425  20.2523460  82.8099747
  65.9811401  19.3894577  82.5592194  83.8616791  44.4882965  10.2940226
  83.3930283  43.6561737  10.2294703  84.7806168  44.2567139  10.1592607
  47.0645142  54.6042213  51.1754761  46.3601189  54.4181290  51.7963028
  47.7892151  54.9109879  51.7203941   2.8745613  51.6947021  73.9375458
   2.0809011  51.6018677  73.4105530   3.0158103  50.8255959  74.3129578
  38.3809204  40.8007240  35.4917107  37.8386955  40.1076164  35.8683052
  38.4534454  40.5713692  34.5652275  73.6597595  27.2286453  26.1132622
  74.5621033  27.5376606  26.1940327  73.1299744  28.0251980  26.1459198
  23.4682655  66.3547516  67.5242920  23.8215294  66.9657440  68.1709213
  23.9813709  66.5199738  66.7333145  23.5204029  14.6039200  30.9392185
  24.3187885  14.1029844  31.1061840  22.8100643  13.9819527  31.0967178
  70.7155151  19.5717812  88.6506805  71.2457275  19.6333809  89.4452362
  70.3187561  18.7017784  88.6943512  47.4557991  46.2950630  62.9094543
  46.7616882  46.9290085  63.0898781  48.1113167  46.7908058  62.4187660
  18.1549702  43.3505135  81.5176086  17.2837467  43.1483765  81.1765213
  18.2129345  42.8556824  82.3349380  60.0696793  14.6873865  81.5421524
  60.4299736  15.2455902  80.8530807  60.2444839  13.7949800  81.2433395
  86.1323013   8.0424004  43.9909592  86.9888611   8.4221373  43.7951584
  85.5206223   8.5373611  43.4458961  54.4905891  20.3812351  63.3934441
  55.3470917  20.7689972  63.5730972  54.1005440  20.9564762  62.7352676
  30.5738392  57.1612968  11.8631506  31.1432724  56.4476013  11.5757217
  29.9390316  57.2617111  11.1538076  49.5889435  50.5018272  40.2225876
  49.5517311  49.9985085  39.4092522  48.7228851  50.9028130  40.2959480
   9.5577316  21.1906319  66.1154709   8.8944302  20.5016155  66.0764923
   9.7077379  21.3260269  67.0511017   4.0374756  69.3541260  81.2640991
   3.7051470  70.2478333  81.1799850   4.3155909  69.2869949  82.1775436
  17.1453323  11.1176443  18.4927464  17.2946510  10.1808805  18.3646526
  17.5855255  11.5338850  17.7516613  79.4624252  68.0741043  61.4016876
  78.6426926  68.2868195  61.8478050  80.1406555  68.2332916  62.0581169
  66.5937729  68.8404541  85.4191895  67.0845413  68.0194778  85.3820343
  67.0737991  69.4328537  84.8405228  21.1678162  25.0075893  60.3602676
  20.3547688  24.6134968  60.6763039  20.9553490  25.3233395  59.4819794
  62.8195801  59.6246147  54.7253838  62.5763855  59.3242989  55.6011086
  62.3492584  59.0388985  54.1321144  73.9721756  27.2816010  54.6153603
  73.2192001  26.7052612  54.7461357  74.5436249  26.7975445  54.0192375
   6.3427505  60.5593567   6.9321113   5.8439856  60.9870720   7.6281877
   6.4936504  61.2498398   6.2865939  78.4425430  25.9020977  22.7638416
  78.1503143  26.6866093  23.2279282  77.9076309  25.1960335  23.1265755
  17.6132507  49.8138428  77.0638733  18.5570316  49.8076515  76.9042664
  17.4402199  48.9844627  77.5093155  70.4371414   9.7607803  47.5754280
  70.3231049   8.8486958  47.3083534  69.6665421   9.9519205  48.1101036
  78.1121292  47.3334618  75.0412903  77.9137802  47.2553596  75.9744492
  77.2741394  47.1805573  74.6046829  84.5185089  22.3418312   2.2412632
  84.6496658  21.4704285   1.8675154  84.4033432  22.9132366   1.4820108
  50.1112823  10.4600706  76.8782120  49.4459648  10.9835281  77.3249512
  49.8840828  10.5249529  75.9506302   5.7841239   7.6534772  61.6285667
   6.3980417   6.9364452  61.7873154   5.0481043   7.4724660  62.2131538
  66.1779327  29.6039886  79.1956177  66.7353516  29.7593269  78.4331284
  65.4664993  29.0558376  78.8645248   0.7008311  19.5954037   7.0526829
   0.6442543  19.4424744   7.9958920   0.8616503  20.5355148   6.9716916
  56.8062515  64.7890549  53.4946632  55.9677925  65.0575943  53.8703003
  57.3391380  64.5419540  54.2504425  81.9280243  28.5274353  17.6260796
  81.4455032  27.9288559  18.1962624  82.8282852  28.4927483  17.9494343
   1.8053132  68.7845459  70.2483826   1.8979709  68.1535339  70.9621506
   1.8900719  68.2598419  69.4523087  80.4009705  15.1976767  58.0751190
  79.7588577  15.9071398  58.0992966  81.2433395  15.6404467  57.9722023
  28.3332500  56.6169395  23.8343906  28.5272312  56.1628380  23.0143929
  27.7394676  56.0278053  24.2997646  69.3523254  57.3473930  29.9037743
  70.3014755  57.3920212  29.7882175  69.2246323  56.6853180  30.5831738
  41.5522423  61.5878487   4.9426537  41.6699982  61.2018433   5.8106203
  40.8017197  61.1224632   4.5733738   7.6466465  47.1330376  38.5962486
   7.7827778  46.3280525  38.0965462   8.1679850  47.0132523  39.3900299
  59.4110641   3.3241982  85.4240189  60.0610771   3.9282320  85.0650482
  59.8614235   2.8908665  86.1490173  84.5505371  31.1654186  68.2395477
  85.4715347  31.2381592  67.9891510  84.3810654  31.9507313  68.7599335
  66.2851562   9.2431993  60.3990517  66.5892334   9.8919401  59.7643051
  66.4271469   8.4007950  59.9672775  65.2500381  47.8233566  20.0692177
  64.3198776  47.5975189  20.0634499  65.2643433  48.7777176  20.1414700
  70.7345657  12.3459358  27.7497864  69.9809494  11.9320402  27.3290806
  70.7125320  13.2522287  27.4425755  46.4733582  58.0448647  38.1361198
  46.5107384  58.9222031  37.7551842  47.3519669  57.8982697  38.4865379
  53.9329910  25.0191994  87.8158417  53.7312279  24.1315575  87.5198441
  53.0775795  25.4291916  87.9439697  13.9422140   1.4896499  47.7592964
  14.4519310   0.6806005  47.8024216  14.4553051   2.0660920  47.1930084
  35.7061234  51.2399063  73.8625946  35.6196404  51.9303627  74.5198746
  36.2542839  50.5769272  74.2823639  78.8409805  10.2289076  67.7852249
  79.7125168  10.2678785  67.3913498  78.2879028   9.8439674  67.1054001
  54.4105186  63.1992073  39.2869606  53.5766068  63.3295784  39.7384300
  54.4876289  63.9541512  38.7035713  47.5678024  69.4172897   3.1290472
  47.5508842  68.5736465   3.5809367  46.6583748  69.5697403   2.8722696
  61.1734390  36.2276878  43.0793457  61.8353577  35.8596687  43.6647148
  60.3384018  35.9701195  43.4699936  12.5561991  57.1334457  46.5663834
  11.7551737  57.2944603  46.0677223  13.0832767  57.9213943  46.4338875
  53.6381760  67.2652817  16.6037083  53.4833488  67.8682785  15.8766193
  52.7928123  67.2044144  17.0485516  73.5406342  36.9125977  27.7266273
  73.5381317  36.1909027  28.3554230  73.0275803  37.6009064  28.1499844
  63.4313736  25.6424122  24.8069477  63.4888611  24.6905479  24.8899193
  62.8849449  25.7828617  24.0336971  67.8096542  49.0233192  12.1138172
  67.3355179  48.2160530  12.3131924  68.4190216  49.1298141  12.8442707
  21.6701889   3.6684208  81.1280136  21.4917183   2.7397125  80.9800949
  21.9948578   3.9870334  80.2858124  75.9254684  16.1016865  31.5044975
  76.5782700  15.5352488  31.0931282  75.6683197  16.7119904  30.8133831
  25.5401077  35.1641998  31.1362362  24.9340839  35.5455666  31.7714729
  24.9833679  34.6452599  30.5557404  37.7236366  35.7124939  43.6139412
  38.4642906  35.2853622  43.1835670  37.3808365  35.0501938  44.2140083
  60.0935173  26.0772591  13.8012037  59.4538536  26.4851875  14.3848610
  60.9428177  26.3476505  14.1502180  68.0042191  60.6365509  87.1676102
  67.2780304  60.7354164  87.7833328  67.6087265  60.2367859  86.3930130
  13.6952724  45.2060966  30.9889526  14.3271589  45.7279282  30.4943371
  12.8411036  45.5280991  30.7009563  62.9873428  17.9586754  28.5581360
  62.7103424  17.9877911  29.4739151  63.9294586  18.1253757  28.5874577
  40.8974457  57.8017044   7.4669638  39.9454918  57.7425117   7.5476818
  41.0838165  57.4764824   6.5862088  58.5476074   3.4253685  16.4873714
  57.6586876   3.4308596  16.1323738  59.0873985   3.0802739  15.7761993
   9.5931396  36.7902374  27.2168331   9.7937794  37.4358177  26.5391884
   9.1987686  37.3003044  27.9243183  46.3462067  45.9290619   8.6392717
  46.3506317  46.3679733   7.7886434  46.0838928  46.6099815   9.2587690
  14.0346813  47.4739952  55.9258385  13.5864534  46.6292038  55.8852234
  13.7449999  47.9368744  55.1396713  75.1730118  21.4476128  89.1867752
  75.7269211  22.2206688  89.0781326  74.2842712  21.7970333  89.2521515
  48.9056587  63.4061317  30.0386086  49.6436195  63.4504242  30.6466236
  48.5525932  64.2957382  30.0252590  40.5240250   0.5197642  49.1516762
  40.4927673  -0.4352490  49.2082863  39.6758080   0.8075928  49.4891853
  14.4790277  31.6871853  85.5703888  13.9615345  31.0974445  85.0220795
  14.0189190  32.5251236  85.5214996  82.3399506  24.4734783  22.8188915
  83.0135956  23.7938976  22.8435555  82.4714508  24.9704857  23.6263103
  34.3522415   0.3675970  65.3233795  35.1361885   0.6868032  65.7703400
  33.7660217   1.1238754  65.2985382  14.8888273   5.5532885  71.6783981
  15.0442476   6.2148576  72.3524933  14.6060486   6.0533299  70.9127426
  66.4737396  29.9060135  35.0091591  66.7836533  29.9172935  34.1035881
  67.0944061  29.3396606  35.4676857  12.2004442  60.0288010  70.4003983
  12.9832993  59.5203323  70.1886673  11.7548447  59.5135994  71.0728836
   3.7936106  18.3312702  77.5902252   3.6710694  18.4743900  76.6517487
   4.7376733  18.4153214  77.7240601  71.1840363  54.3750763  54.9351959
  71.1707535  54.1271477  54.0107574  71.6524048  55.2096825  54.9526291
  83.1305771  63.6281090  80.1602249  82.2569962  63.9486885  80.3845520
  83.4811172  64.2873230  79.5612411  44.0497398  37.2432747   7.2170167
  44.0448990  37.8300247   6.4607534  43.3871002  36.5834885   7.0125084
  68.3599243   7.1622028  41.2787704  68.1944656   6.8795452  42.1781921
  67.5234070   7.5211935  40.9828033  56.8772621  42.2797546  26.2509823
  56.7527390  41.3337669  26.1746044  56.2353020  42.5537224  26.9060078
  61.6369820   1.3514215  51.7380295  60.9620552   0.7418976  51.4393921
  61.6936493   2.0059009  51.0418434  52.0264168  53.7638435  65.0059357
  51.9254227  52.9391327  64.5306625  52.5366669  54.3190994  64.4163818
  41.6455612  18.6489449  17.8274593  41.2181664  18.9923725  18.6120758
  42.4163170  19.2046471  17.7118759  52.4398689  50.8507500   7.3881264
  52.2476768  51.3290482   6.5815740  51.5852737  50.5515862   7.6986065
  45.9996758  19.1906414  17.8353786  45.6835976  18.4214554  18.3093815
  46.8874359  19.3276615  18.1660385  57.1461411  69.8229141  39.0039940
  57.6732979  70.3452530  38.3994293  57.7087479  69.0838318  39.2352104
  78.2636490  15.3411388   8.1600666  77.4005356  15.3298826   8.5737495
  78.0815353  15.2614260   7.2237372  68.3396149   4.1740313  53.9434357
  69.1868134   4.3575187  53.5374527  68.5100174   4.2194204  54.8842506
  84.6838226  48.1205139  70.4367676  84.1021118  47.8397827  69.7303467
  84.8452530  49.0473099  70.2600632  44.1082764  13.6716509  30.6447124
  43.5802994  12.8820419  30.5264130  43.7932816  14.0496044  31.4657860
   6.8033342  48.4783630  58.6952820   7.7253132  48.6917992  58.8389168
   6.8186579  47.7743454  58.0469322  84.0730896  30.3531952  75.8892212
  84.8573685  30.7186222  76.2986145  83.8660202  30.9633083  75.1813202
  64.1083298  11.8795490   3.1373792  63.2825775  12.3545284   3.2309890
  63.9661751  11.0573092   3.6063623  12.1288080  10.9399042  77.5149994
  11.2120171  10.6831465  77.4160004  12.3842125  10.5915022  78.3691788
   3.0406342  16.7905731   9.8464642   2.6250818  16.2805824   9.1511517
   3.7935464  17.2033710   9.4234362  10.9685955   1.4726169  36.6803627
  10.2053690   2.0201678  36.4962311  10.7745924   0.6392253  36.2513466
  41.5875549   3.2053432   6.2878180  41.9047508   2.3037202   6.3397260
  41.9672623   3.5465853   5.4781208  28.6796875  55.8702545   5.9988327
  28.1021824  55.1070023   5.9861174  29.4721279  55.5785484   5.5480800
   7.2500610   3.9352534  48.6540794   6.7716885   4.4595494  48.0118141
   6.9524293   4.2650580  49.5019417  38.7005844  54.0484772   9.7485094
  38.4319496  54.3550873   8.8824511  39.5856552  54.3950882   9.8614035
  51.6844749  44.0500221  85.5461655  51.0855293  44.7760353  85.3717957
  51.1542168  43.2645226  85.4118195  56.2851028  14.4420767  68.8343658
  56.7758331  14.8949575  69.5201645  56.6784973  13.5703773  68.7942123
  39.0795517  49.9997711  29.1649094  38.2126350  50.0439034  28.7615013
  38.9850197  50.4779778  29.9886894   4.8785281  22.3569736  44.4622955
   5.6915240  22.6399689  44.8808441   4.4278960  23.1714516  44.2391624
  53.8027763   5.6950226  79.9738541  54.4381866   6.0242949  80.6095200
  54.0320511   4.7724557  79.8618927  65.6257629  45.7152596  67.1109085
  64.8905258  45.2935066  67.5556259  65.6163788  45.3446503  66.2284088
  82.6846924  64.9894562  52.8592720  83.2835007  65.7174149  53.0258255
  82.0687637  65.3296585  52.2103271  73.5422897  29.2150097  65.8677139
  72.9687271  29.0995579  66.6252899  73.2228470  30.0120373  65.4447021
   9.9422636  27.0280972  81.9943924   9.0531816  26.9250278  82.3337173
  10.4847803  27.1417961  82.7747650   6.8529654   8.3223276  71.7327042
   6.7939401   7.8949142  70.8782654   7.6183228   7.9241486  72.1473236
   2.5739322   0.7787151  62.6353798   1.9230400   0.5519665  61.9711876
   2.1562386   1.4651579  63.1555367  76.8469238  20.6710854  18.7335281
  77.4242935  21.3897896  18.4759693  77.1915970  20.3774090  19.5768433
  70.7126999  64.2586823  13.0712719  70.0708847  64.8844147  12.7354641
  70.2142868  63.7022629  13.6697779  45.2955399  13.0287209  13.1754971
  45.3835678  12.5838203  14.0184364  45.7857361  13.8438749  13.2825632
  24.7654610   5.5700021   8.6407509  24.3022251   6.2203302   9.1686888
  24.0705395   5.0708599   8.2115974  47.9457359  68.9059448  32.7757454
  47.9047852  69.8095551  32.4626312  47.0505333  68.5797806  32.6837578
  19.0206566   8.6740999  28.2434311  19.7243767   8.9349689  27.6493282
  19.4331722   8.0556278  28.8463860   0.5135669  32.3089905   5.3530416
   0.7555108  31.4962158   5.7969928   1.3496631  32.7148666   5.1240454
  64.1986847  24.9737835  79.7565384  64.8196335  24.2804947  79.5329208
  64.7140198  25.6034069  80.2607498  10.5784016  54.9694862   9.5311470
  10.2961378  54.2414398   8.9775162  11.1978464  54.5765991  10.1460943
  46.1758690   0.4933583  59.2971878  47.0770035   0.2636337  59.5239334
  46.1350021   1.4429407  59.4105644  58.6678658  51.7333069  14.0787735
  58.5598068  51.0084000  13.4630899  59.5762405  51.6645737  14.3726425
  14.9368782  25.2780972   6.6044683  15.4508238  24.7091370   7.1775084
  14.0888529  24.8403835   6.5303636  44.8471603  51.5361366   7.5481458
  45.3459473  50.7407303   7.3616848  44.0131989  51.4073257   7.0963168
  20.7405605  59.1549797  68.4160995  20.1800785  59.9300346  68.3789215
  21.6250401  59.5040627  68.5259628  41.2750473   7.1814475  25.9449215
  41.8401566   7.2013388  25.1725941  41.0962868   8.1024609  26.1346893
  20.8186474  39.9100800   5.1460428  20.3442764  39.0854340   5.2516980
  21.2107029  40.0724907   6.0040321  79.9829712  36.6500130  27.3177032
  80.1121216  37.5607834  27.0530319  80.8649673  36.3265800  27.5013199
  55.1418533  69.4815369   4.3794870  54.7008743  68.8584290   4.9569783
  56.0438232  69.1649857   4.3296885  24.1447506  49.2756844  14.4978113
  23.5622444  48.9669762  13.8038254  24.7726860  48.5633049  14.6179934
  16.2691250  71.2523956  59.3515778  15.9112692  71.5919724  58.5312996
  16.7817726  71.9780121  59.7078094  60.4513397  45.3679085  35.7608070
  60.4961395  44.7473183  36.4881935  61.2219238  45.9245377  35.8730659
  61.0165825  51.1680260  66.7571945  61.9142570  51.0724258  67.0754242
  60.5208817  50.5032959  67.2353668  53.3603058  42.5361481  47.4935989
  53.9696350  43.2646027  47.6131897  52.4976006  42.9491692  47.4563293
  22.2431412  12.0074530   7.3993068  22.4865837  11.0935240   7.5466189
  21.3136578  11.9742489   7.1730509  17.2174969  30.1564140  67.9278564
  17.4002800  29.2721786  68.2455750  17.7386036  30.2363377  67.1289215
  27.3541584  18.1782932  15.8776016  27.3202782  18.5735416  15.0064745
  26.4443092  18.1755543  16.1749210  30.8426857  47.0629349  18.2233200
  30.2251740  46.5922318  17.6635456  30.5393028  47.9705849  18.2043247
  26.9077110  56.2412033  72.6553421  26.5064659  55.7732658  73.3876495
  26.5900364  55.7845230  71.8763962  76.7096863  17.1987400  44.6116905
  77.4416504  17.4072495  45.1921883  75.9402542  17.2158012  45.1808205
  75.1038742  41.1138916  62.9464874  75.3315430  40.9772568  63.8661232
  75.9457550  41.2298088  62.5059967   6.6648831  53.9292679  77.0066452
   6.9683180  53.4417992  77.7724991   5.9175630  53.4261742  76.6831665
  50.5211296  11.6008730  25.1714706  49.8524323  11.2539206  24.5809612
  51.0827789  10.8502493  25.3647232  10.4889450  20.2335701  29.3509827
  10.7998962  19.3846531  29.6654377   9.6742182  20.0343437  28.8897209
  78.3121567  33.7508278  37.7102013  78.3346176  32.7949142  37.7544136
  78.8483200  33.9679871  36.9475746  12.6398706  53.0146866  46.0266380
  13.3104458  53.6499596  45.7756653  11.8362513  53.3426361  45.6230583
  22.2516289  56.8121376  53.7262802  22.5750542  57.3771782  53.0245972
  22.8374271  56.0552292  53.7135048  35.0411644  69.1078186  13.7127628
  34.5563240  69.2093124  12.8937035  35.9611053  69.1093674  13.4483051
  27.1937904  41.2800980  12.7467632  26.3929234  41.3217964  12.2241707
  27.8860550  41.5574646  12.1467047  85.7416763  31.3380280  56.3414345
  85.1871948  30.7285366  56.8285713  85.1552048  32.0551262  56.1004753
   8.5558128   8.0376644   8.3794718   8.0784502   7.3412738   7.9284768
   8.1226625   8.1131611   9.2297144  15.6770220  51.6320877  65.9265747
  14.8302622  51.3721390  66.2894135  15.9285669  50.9031181  65.3595047
  84.6266251  42.3356781   8.6136312  85.5554733  42.1588402   8.4646378
  84.1755524  41.8365173   7.9327474  42.5125771   9.1796532   9.6610270
  42.0458679   8.9830561   8.8487682  43.2509575   8.5705576   9.6664429
  17.5458279  56.7996788  75.2906723  17.0750046  57.5698700  75.6090546
  16.9142113  56.0844765  75.3666763  25.6902790  56.2910194  60.6213303
  25.7157249  55.7788200  59.8130989  24.9279385  56.8609047  60.5198326
  63.7369766  58.0171165  10.7318316  63.5677757  58.0962410   9.7930336
  63.6102982  58.9022522  11.0734720  13.4723930  25.1921921  77.5163879
  13.9094124  26.0432415  77.4853897  13.5615263  24.8447094  76.6289520
  55.9518204  17.9872398  68.3238144  55.1988945  17.4072514  68.4375839
  56.3167572  18.0813675  69.2036972  64.7728577   3.4875207  42.7105026
  64.3290710   4.3353443  42.7324181  64.1827698   2.9210854  42.2133293
  80.1486130  36.5759048  20.4894218  79.5696869  36.5259361  21.2500668
  80.3162613  37.5115891  20.3770866   0.1169426   8.8454838  20.3619099
   0.0371399   9.5415297  21.0141258   0.1875340   8.0416889  20.8768501
  65.3984375  19.8748341  71.7062683  65.4249725  20.4368534  72.4806519
  66.0541992  19.1990719  71.8781967  20.6064281  11.5548725  80.6940155
  19.8952694  11.2390909  80.1365509  20.3277893  12.4295216  80.9652786
  68.3653946  67.3716125  55.7885590  68.5280228  67.5018616  54.8543129
  67.7067566  68.0295868  56.0110321  18.0932903  50.3175201  88.8192062
  17.6535320  51.1585732  88.6948242  17.8787117  50.0655670  89.7173767
  10.1291313  63.4772758  46.0149307  10.8293095  62.8367348  45.8896790
  10.5690889  64.3259048  45.9648705  43.0606842  42.1325378  79.8333511
  42.5935936  42.0972557  80.6681061  43.7667274  42.7619171  79.9803772
   8.7684202  37.6176949  88.5409241   8.7814522  38.4876099  88.1417923
   7.8739843  37.3051224  88.4048615  59.9368172  36.8323364  31.8384438
  59.9450836  35.9468956  31.4749088  59.1152763  37.2117119  31.5263882
  59.7136345  44.0906181   1.4418000  58.9582596  44.6016235   1.7325085
  59.6426430  44.0800400   0.4872951  52.5027847  58.7930298  13.4013262
  52.2992096  58.8608665  14.3341637  52.9055443  59.6333046  13.1823483
  86.9912720  48.6372070  33.9172974  86.7230606  49.5266533  34.1479073
  86.5577698  48.0809288  34.5644913   6.4632087  52.8442764  26.5144196
   6.8496265  53.3199005  27.2497387   6.8263545  51.9612923  26.5829372
  55.0871124  21.5757084  19.4811478  54.6923676  22.4377613  19.3497238
  55.3156166  21.2800484  18.5998974  44.4421730  62.2109184  57.1253395
  45.1781387  62.5202675  57.6534386  44.6124306  61.2772446  57.0008659
   3.3563216  14.1163054  71.8398590   3.5615973  14.4923029  72.6958542
   3.6214421  14.7892265  71.2128677   0.4947615  51.9092979  66.3885880
   1.4190520  52.0374069  66.1752625   0.1000190  52.7734756  66.2719193
  41.1359444  27.4398098  10.0786572  41.6525650  28.1693306  10.4209061
  40.4392090  27.3165150  10.7233191  41.7258453  53.9021378  66.2057343
  42.0887108  54.5064278  66.8533401  42.4021988  53.2336731  66.0964966
  38.8512115  65.7878342  40.3444214  38.4301224  65.1884689  40.9605980
  38.2378502  66.5182419  40.2636642  38.5245094  62.3248062  87.5552063
  39.4555016  62.5233459  87.6555252  38.0997658  63.1817017  87.5157547
   5.8360729  16.5381641  85.4333191   6.0653648  15.8067551  84.8600006
   6.6781473  16.8805866  85.7331314   9.4330435   6.8864441  21.6088753
  10.2406397   7.3430467  21.8445301   9.3800631   6.9694443  20.6567535
  56.6782036  37.6050262  62.1393585  56.2669296  37.5512581  63.0020256
  56.4115906  38.4593163  61.7997398  50.8430824  61.2145958  17.0539742
  51.5190315  60.5368958  17.0609131  50.2781830  60.9819031  16.3171082
  31.4073410  68.1089096  30.5289936  31.8806877  68.9194260  30.7166977
  30.5676765  68.3989716  30.1725368  75.2609863  33.2851028  23.1153660
  76.1783981  33.5445023  23.0298977  74.7691193  34.0204201  22.7498455
  18.3572350  66.0612030  66.3812866  18.0623169  65.8615570  65.4928055
  19.3036556  66.1783447  66.2988510  42.4394951  48.9836121  88.5259399
  43.0627365  48.9678078  89.2522736  42.7472649  49.6928940  87.9616470
  45.0275230  14.8063269   4.3244643  45.3890877  15.5681028   3.8714747
  44.6809921  14.2534094   3.6241570   6.2929358  31.3827496  27.6653976
   6.9012008  31.2560787  26.9372501   6.1776767  32.3314743  27.7189274
  48.3847122  57.5170708  68.6135254  48.6991577  58.4082260  68.4612045
  47.5861549  57.6297073  69.1291275  56.3038483  24.3599052  31.7244053
  56.1655502  25.2647648  32.0042877  55.5383949  23.8880539  32.0525398
  59.6457481   9.1191025  84.0541916  59.8466759   9.0277328  84.9855957
  58.7300568   9.3971043  84.0328522  71.6385498  60.0272751  72.7237549
  70.7391357  60.2332344  72.4690781  72.1806488  60.5085258  72.0986404
  48.5044975  45.0187378  89.1219406  49.0176201  45.2903862  88.3609238
  48.8953743  44.1870842  89.3898926  84.3790436  32.4258728  27.6172695
  83.8479385  32.3861771  28.4126186  83.7445984  32.5514297  26.9116211
  46.9540901  39.0901947  57.2725525  47.2493095  38.1858597  57.1664734
  46.8061256  39.1850319  58.2134819  77.6542282   9.1000900  10.2123785
  78.2229538   9.6026773  10.7956371  77.6050568   8.2328615  10.6145334
  77.9169693  62.1366081  11.9611330  77.8764343  63.0425491  11.6547623
  77.1169510  62.0211372  12.4738464  34.9977531  58.9732857   7.8209815
  34.5021133  58.5037575   7.1500754  34.3348846  59.2710609   8.4440088
  50.7018776  57.8084297  28.0276871  49.8251801  57.4276276  28.0789165
  50.6389999  58.4614716  27.3306847  19.4619160  34.7062340  32.9681091
  19.0260162  35.3532486  33.5227280  20.3811073  34.7446251  33.2323914
  24.1620331  35.5887413  19.9408855  23.9490795  35.2664833  20.8166904
  24.9081192  35.0564842  19.6646786  55.4864922  51.9646950  44.4183655
  54.9453087  52.5126686  43.8499680  56.1508141  52.5609055  44.7639771
  65.9599686  47.2184906  31.0853291  66.3054657  46.8506851  30.2719517
  65.9590302  48.1644440  30.9390392  17.9645805   1.6926049  78.1951370
  18.8262558   1.9374480  78.5324783  17.4289684   2.4769056  78.3143997
  56.1126328  47.0893364  75.6758881  55.2488365  47.4915886  75.5848694
  56.3458633  46.8192596  74.7876892  83.4926147  33.5892372  35.4399452
  84.1327438  33.0834389  34.9393082  83.1850204  34.2583961  34.8285217
  77.0514374  25.2691441  42.0848083  76.7103806  25.6696529  42.8844986
  76.3731079  24.6478882  41.8199692  70.4854660   2.1037977   8.0719719
  71.0270691   1.4438040   8.5047655  70.6077881   2.8952982   8.5961819
   3.2839599   1.0160412  17.5083809   3.1254513   0.0822416  17.3700848
   4.1457920   1.1724330  17.1223507  34.8288956  50.9145355  19.9160118
  35.7073479  50.9143562  19.5358086  34.2875137  50.4632034  19.2683735
  73.3947983  69.3959045  11.4887981  73.0876389  70.1699219  11.0167980
  72.6017380  68.8863297  11.6549768   5.3251076  27.1361313  56.2230453
   6.1713543  26.7740383  56.4856987   5.5084805  28.0546188  56.0255928
  74.1016693  26.1169147  85.4242859  74.1639786  26.3913193  84.5093765
  73.1646881  26.1415501  85.6184387  71.5743484  37.5122185  50.2857895
  71.1403122  36.9057884  49.6857109  71.1491089  38.3544312  50.1242867
  31.5043869  56.1419868   0.4641749  31.6753235  56.6855049  -0.3049795
  30.5894527  56.3182030   0.6834324  30.3124657  50.4510384  58.5009232
  30.6816940  50.4540100  57.6178093  29.4717827  50.0029716  58.4075317
  59.7070923  35.9825058   6.5896034  59.4141006  35.6354828   7.4321966
  60.5882149  35.6258736   6.4770250   2.7456508  20.8303757  46.9824982
   3.3737082  21.5353012  47.1401520   2.7105703  20.3512440  47.8104095
  25.5347862  27.1644669  81.4017639  25.2433510  28.0493031  81.6216812
  26.1849194  26.9529896  82.0717163  63.6626663  60.9049759  83.1666565
  63.8692856  60.3648758  83.9294357  63.1271820  60.3391380  82.6104965
  68.2220917  39.6824112  24.8489838  68.1643829  40.5943184  25.1341667
  67.4286041  39.5423813  24.3322639  75.8790665  52.8942299  49.6554070
  76.5731812  53.3711472  50.1103630  76.2886276  52.5900536  48.8454857
  16.1765594  39.5504723  54.6425896  16.1248074  40.0084724  55.4815102
  16.9505653  38.9928665  54.7214775  33.0271263  65.2923279  77.9051514
  33.9587402  65.3471756  78.1180344  32.5814705  65.4562454  78.7362671
  82.6447449  62.6150208  35.3774872  82.3844681  62.4522705  34.4708443
  81.9786911  63.2145233  35.7139473  72.8222885  28.3922653  11.9466496
  73.1697083  27.5480499  12.2344599  73.5803833  28.8534260  11.5876760
  57.5545235  11.5292435  66.2022095  57.4900131  12.4422159  65.9219360
  57.4455681  11.5621948  67.1526184  27.7092438  38.5490837  79.6543961
  28.3682861  37.8549004  79.6570053  26.8762779  38.0889320  79.7576599
  79.4755020  38.4368286  37.1796570  78.7644958  37.8956070  37.5228615
  79.0978394  38.8717804  36.4151840  82.2666855  31.9007225  78.4430237
  81.7292099  31.7070980  77.6750031  83.0335083  32.3526840  78.0909500
   1.8466858   7.9223156  32.9103508   1.3063600   8.3969002  33.5420532
   1.2232448   7.5871196  32.2659912  68.2018661  26.3887577  13.9072418
  67.7961502  26.8827591  14.6196957  68.9453812  26.9269600  13.6356783
  81.4701843  42.3877640  23.5581894  81.2062302  43.2904282  23.3799858
  82.4080582  42.3704033  23.3675785  68.5582962  24.3398857  57.9689407
  68.2891693  25.0268307  57.3590965  67.7381134  23.9340019  58.2496300
  59.8276825  24.7417011  22.8300629  60.6488838  24.4096718  23.1928520
  59.5906525  24.1070614  22.1538372  68.8008499  49.5528984  22.5686474
  68.3340683  49.8643303  21.7931767  69.7263641  49.6695328  22.3540325
   6.2177563  60.9562035  24.5781517   5.3389864  60.5928268  24.4688206
   6.7931700  60.1913910  24.5920410  30.5463409  15.6946297   4.4667292
  31.1702194  16.0897369   5.0757442  30.3320713  14.8481703   4.8589368
  29.5467148  29.9790173  19.5482616  29.3362656  30.5389957  18.8010235
  29.6148243  29.0994816  19.1767693  53.3441277  26.7217541   5.1981511
  54.1315269  26.2075672   5.0196996  52.9057198  26.2504082   5.9065742
  77.8745575  59.4617500   8.5538788  78.4656601  60.1797867   8.7802782
  78.2714539  58.6889954   8.9558144  50.0912247  30.4406223  87.8918152
  50.5416069  31.2754135  88.0203171  50.6784935  29.9357433  87.3292847
  86.1353836  67.4370956  73.5886459  85.9461670  67.7989578  72.7229156
  85.7877045  68.0858307  74.2006149  30.4939480   8.1131811  51.2181091
  29.8728924   8.8298473  51.0880661  31.2097721   8.3035975  50.6118317
  21.1717777  -0.1562729   9.2624998  21.6988411  -0.1230119   8.4641705
  21.6911240   0.3173219   9.9122839  10.4693727  13.7388773  17.9026566
  11.0285673  13.3491468  18.5746994  10.3779774  13.0538931  17.2403297
  31.7420540  53.5852127  23.0964203  32.3425751  54.1325073  22.5903816
  31.0655022  53.3290863  22.4695950  33.4351768  49.7317314  32.3914375
  33.9496231  49.4916916  31.6207485  34.0850449  50.0159645  33.0341797
  47.7096901  68.9641495  69.9202194  46.8714790  69.3924789  70.0939026
  47.4721794  68.1169586  69.5432739  55.3286705  41.1507645  53.2089005
  54.5922775  41.0430527  52.6069450  56.1004105  40.9397850  52.6834106
  41.5829926  69.3092194  20.6649971  41.0935898  69.7231140  19.9540768
  42.3262939  68.8898087  20.2316055  85.7850037  24.2006264  30.3635750
  85.5372543  24.5729370  31.2098808  85.9371643  23.2732182  30.5452137
  33.9560280  38.3119888  67.6912460  33.3777924  38.8191566  67.1214600
  34.7967873  38.3045387  67.2337494  63.4957275  30.3052979  28.0335388
  64.4361267  30.3894291  28.1910305  63.3777847  30.5931759  27.1283054
   8.0571918  31.9531479  86.0477371   7.8867893  32.8911781  85.9623489
   8.7151709  31.8913059  86.7401810  75.3201141  32.9489288  65.7534943
  74.4020233  32.8293076  65.9964600  75.2877426  33.3953629  64.9073944
  31.6992168  48.5806122  21.8107872  30.9533005  48.9895706  22.2496433
  31.7919540  49.0677528  20.9920521  12.8941984  59.8935585  42.0161552
  12.0967474  60.0856361  41.5227890  12.6745644  59.1193657  42.5344391
  14.3041258  53.6042252  49.2958794  13.6527538  54.3021851  49.2266045
  15.1243029  54.0138741  49.0206871  69.9901733  45.3120003  11.9298239
  69.9561996  45.8925056  12.6901464  70.1958237  45.8907089  11.1956358
  68.6933594  32.8522186   7.3468513  68.4139023  33.0833282   6.4610043
  69.0756683  33.6576653   7.6951799   4.9932289  54.2330055  36.2231827
   5.4209042  54.7425880  35.5349617   5.0845737  53.3233719  35.9395409
  76.7614975  70.8897476  18.6207943  75.9139709  71.1024246  18.2300167
  77.2914429  71.6753159  18.4856548  12.3134222   9.1996050  41.2425117
  12.6112700   8.2899828  41.2321930  11.6444874   9.2248478  41.9267044
  39.2284012  13.7267122  19.1793804  38.7087440  13.6315365  19.9775848
  39.4489326  12.8296118  18.9287643  22.7758732  64.0118408  80.1884766
  22.1325436  64.7200928  80.1613388  23.4124165  64.2915421  80.8463593
  40.6294556  19.2764683  23.9249859  39.8169899  19.7510052  23.7490711
  41.2442207  19.9520111  24.2112293  17.8587017  31.2604485  59.7352753
  18.4706020  31.8769989  60.1373634  18.0380497  30.4268970  60.1703110
  83.7256012   3.1748075  55.4644432  83.2055893   3.2108905  54.6616249
  83.4843521   3.9685431  55.9419518   7.0566134  45.9559631  86.2179413
   7.3014617  45.8981094  87.1414871   6.1562853  45.6323090  86.1881180
  41.0453110  52.0507011  15.8537579  40.6895485  51.1783104  16.0228672
  41.8143654  52.1097527  16.4205894  15.7394314  57.0679741  20.9270058
  15.9618979  56.1972198  21.2564411  15.8157024  56.9909439  19.9759636
  26.5414314  70.4861145   4.1735201  26.4207268  69.9966278   3.3598466
  26.7347584  71.3794327   3.8892014  54.6996994   2.5897615   4.2589445
  55.0609741   2.7828581   3.3938282  54.0214615   1.9346428   4.0944924
  81.8283768  17.5671577  67.1123886  81.4614410  18.0750465  66.3887634
  81.5153885  16.6751842  66.9618759   1.9682435   6.5565209  84.8311157
   1.0952681   6.2096257  84.6472397   2.2970963   6.0110879  85.5456696
  67.7433395   8.8948374  62.7524796  68.4308853   9.3907318  62.3079605
  67.1023788   8.7066612  62.0669174  60.1990509  37.4412079  56.0657616
  60.0824242  38.2033806  56.6329689  61.1297836  37.2294769  56.1374588
  70.1666870  33.1779099  89.1518936  70.3505478  33.4179840  88.2437134
  71.0288086  33.0233536  89.5380173  73.7142258  58.6280022  56.9561157
  73.1379166  59.3914604  56.9911423  74.1604080  58.6256676  57.8029671
  56.2321167   0.2111985   6.2817693  56.8393822   0.5710752   5.6352792
  55.5989609  -0.2866163   5.7645388   7.7838702  53.5991020   7.4101892
   7.0170074  53.4922523   6.8473964   8.1756773  52.7266388   7.4493170
  68.3146820   2.1646190  81.6475067  67.9791565   2.7689252  80.9853287
  69.0491867   1.7243961  81.2198029  11.2228289  49.0943909  72.2762909
  11.0552425  48.1568718  72.1803436  11.1692600  49.2520409  73.2188950
  18.6532745  42.3484001  15.2599316  19.3336697  41.7781181  15.6178036
  19.0507069  43.2191505  15.2512741  21.3183784  32.5136032  57.7118988
  20.7860355  33.2983170  57.5812531  21.7005234  32.6256065  58.5823326
  20.8438053  39.2854462   8.1124945  21.7205734  39.5051460   7.7974672
  20.7711716  38.3403854   7.9790101  78.1112137  70.3496704   4.5246267
  78.4479446  69.8325272   3.7929094  77.1767273  70.4449463   4.3405633
  27.2913933  24.0768566   4.2852707  28.0383625  24.6688709   4.3735037
  27.6437340  23.3131447   3.8282888  79.1368332  33.9897537  48.3257065
  78.8940353  33.3628998  47.6442833  78.4930191  34.6933861  48.2442665
  64.7593079  41.8295059  43.1307526  63.9508934  42.0426941  43.5968513
  65.4183350  41.7463303  43.8199539  15.5067272  60.0706825  48.8636284
  16.4130077  59.7753906  48.9513245  15.5425262  61.0102310  49.0430756
  40.4976120  25.3718452  15.8547192  40.4953079  26.2437077  15.4596491
  39.9703751  24.8381233  15.2602501  30.0788765  66.9578476  40.9156189
  30.0341358  66.1945267  40.3397942  30.2833099  66.5958023  41.7778053
  45.9830704  64.7230911  77.9258194  45.1498184  64.2963943  77.7261963
  46.0324898  64.7166672  78.8817215  48.9471550  43.8463020   8.2339945
  48.2396889  44.4001732   8.5640783  48.9953423  44.0505066   7.3000731
  14.2369680  41.9993477  20.8721333  13.7972879  42.3906822  20.1173019
  13.6899576  41.2493668  21.1056633  28.9252033  65.8763733  50.6077385
  28.9544163  66.8251801  50.4846764  28.0317879  65.6310501  50.3672028
   4.2604518  18.7722092  27.4090786   4.7008071  18.0522594  27.8607349
   4.8160648  19.5339890  27.5740585   3.4139550  63.6393814   1.6704623
   2.8139424  63.7507133   2.4079051   2.8863566  63.2139626   0.9945275
  85.0417938  22.2397919  55.8882179  84.4349747  21.5571232  55.6019287
  84.6303406  23.0580406  55.6100006   1.6896875  27.1266766  75.5074081
   1.1979039  26.6153355  74.8648224   1.2584474  27.9812031  75.5142212
   5.5322080  41.5086174  77.9739914   5.8950057  42.3797874  77.8137589
   4.6746950  41.5243874  77.5489578  38.4705238  51.6022148  31.4171562
  39.1828842  50.9713707  31.5211391  38.1381683  51.7366219  32.3046837
   1.0535630  23.2811565   5.8975892   0.5676243  23.3547459   5.0762000
   1.4616107  24.1394081   6.0121903   5.6073575  25.4824333  78.8238220
   6.5049257  25.1554375  78.8844528   5.2553892  25.3814163  79.7082138
  13.6056938  13.0577164  84.7413559  14.1455116  13.7037554  85.1968307
  13.0106878  13.5795918  84.2029800  77.8419800  58.3339386   0.4375118
  78.1237488  59.0767555  -0.0964012  77.1984177  57.8789787  -0.1056934
  12.1947670  35.7050934  48.7825356  11.9002409  36.5729332  49.0588303
  12.3932076  35.8047028  47.8514442  26.1011581  46.8832169  37.8967896
  25.4429131  46.7756805  37.2102165  26.0927448  46.0507393  38.3691635
  66.4624405  22.1657467  64.6062088  66.4332657  21.4772472  63.9418640
  66.4944763  21.6942024  65.4385834  46.0483589  25.0026627  77.4420471
  46.5534058  25.6075287  76.8986282  45.6351204  25.5606308  78.1009369
  11.2092123   8.6783524  74.0909729  10.7370815   7.8872600  73.8311691
  12.0615492   8.3613529  74.3897476  75.7259903  44.1663246  30.1543045
  75.4429932  43.9267387  31.0367661  76.6387177  44.4346085  30.2600498
  84.9411469  27.3404942  63.1595802  85.2643890  27.2358894  64.0544586
  85.6996155  27.6522751  62.6658669  85.2235870  18.7329826  39.7936478
  84.8428650  19.2644310  39.0944748  85.5489426  19.3706417  40.4290771
  78.9984894  43.0289154  26.7079277  78.0801620  42.8674698  26.9243603
  79.3783112  42.1558838  26.6090393  74.5881882  67.3565140  76.7438965
  74.4578323  67.8205490  77.5708847  73.8006287  66.8220215  76.6424332
  50.5600700   7.9176426  12.7321405  50.5863228   7.0081968  13.0295477
  51.4797058   8.1634436  12.6317329  40.4211197  10.1025543  88.9788666
  41.2698898   9.8541460  89.3450928  40.1830978   9.3715162  88.4086456
  10.2303123  56.3171082   2.1504576   9.6815596  56.6315765   2.8689351
  10.6026077  55.4970284   2.4746535  80.0208664  37.3565369  80.6559296
  79.6785431  37.5346527  79.7799606  80.8314285  36.8711624  80.5021973
  59.5493469   0.4765758  23.6089668  60.1292686  -0.0868049  24.1213360
  58.9450111  -0.1289941  23.1796684   1.6066927  59.2159767  84.8569946
   0.8309828  59.0536118  84.3202057   2.2885201  59.4511147  84.2276688
  43.1475487  51.0241127  79.8068008  43.1702499  50.1934700  80.2819290
  42.2221985  51.1572876  79.6013107   9.8855009  44.7657738  49.9853363
   9.8175888  44.2262764  49.1975784  10.0365162  44.1388321  50.6927071
  18.2122002  55.7340088  61.1078224  18.9681244  55.1616287  61.2389526
  17.6020889  55.2098999  60.5888748  67.7925491  69.8585434  33.5551300
  67.1345825  70.0661087  32.8916245  67.7175293  70.5654144  34.1961746
  41.4092522  33.1125717  25.5225430  40.5615273  33.5472183  25.6156979
  41.9528961  33.7458649  25.0539055  14.3606720  15.3920584  28.0506992
  14.6546793  16.2325802  28.4018631  14.7275572  15.3600931  27.1671810
  25.0000992   2.6116631   0.3314397  24.8646622   2.3515611   1.2426125
  25.6059971   1.9575756  -0.0168250  75.2304993  11.0622759  45.8273659
  75.0671387  11.6092062  45.0589828  75.8275452  11.5801020  46.3673897
  80.5226517  49.1516457  13.2837248  81.1786728  48.8471413  13.9107389
  79.8794861  48.4436646  13.2471752  38.0141220  65.7286835  16.2119617
  37.6861572  66.4793930  15.7168837  37.9470940  64.9927673  15.6035433
  17.5496540  57.2747688   9.8883591  18.4734173  57.1786842  10.1200132
  17.4698753  56.8430672   9.0377693  48.2295189  54.3799400  53.7773209
  48.5813217  53.4898262  53.7646942  48.6815300  54.8058205  54.5057068
  83.5276260  55.0146904  68.0995636  83.0585938  54.8037071  67.2922668
  82.8852234  54.8706665  68.7944183  61.0584030  54.0325470  80.8386536
  61.1175385  54.4438477  81.7009583  60.2345657  53.5457230  80.8614807
   6.3084922  60.8883820  46.2357788   5.5816088  60.4381409  45.8054810
   6.7168636  61.4033546  45.5398827  22.8844566  25.4677067  81.2672806
  22.2564526  25.7436352  80.5996704  23.3556652  26.2682247  81.4982910
  28.4818764  54.6684685  50.5459137  28.0599918  54.9754868  51.3484001
  27.7848721  54.6785812  49.8899307  49.2705956  47.1537590  77.8758774
  48.7299652  47.2879868  78.6542969  49.2543068  47.9976997  77.4245148
  53.1010056  21.0455952  70.3603592  52.1847572  20.8026752  70.2272797
  53.1668434  21.9335327  70.0089874  67.2649231   7.8713269  55.1623535
  66.5678482   7.5889187  54.5702705  68.0740280   7.6207867  54.7164803
  15.2842455   5.4355044  21.7427387  15.9318438   5.6458001  22.4155121
  15.3788624   4.4929271  21.6055241  10.4350471   2.1653717  63.5278282
  10.0764990   2.6807199  62.8052673  11.3598213   2.0544379  63.3071060
   2.0209119  26.2517929  70.7052689   1.1730853  25.9639835  70.3667603
   2.5061181  26.5318794  69.9291458  50.1740608  39.1711540  76.2914276
  50.2970200  39.6003838  77.1381073  50.2705879  38.2376633  76.4798660
  71.3834457  65.7752991  84.0333328  70.9116898  65.4048767  83.2873688
  70.8928452  66.5658035  84.2583923  17.7059975  65.6643372  39.6255836
  18.2724361  66.4287033  39.7310143  17.2316647  65.6015549  40.4546204
  67.4854660  24.8316288  43.3230057  67.1260529  24.1455097  43.8854065
  66.7210922  25.2100353  42.8885269  71.6400986  42.7624588   4.3982177
  71.2094727  43.6038246   4.2469015  71.6227036  42.6520424   5.3488688
  26.2867661  71.3285446  18.9274883  26.5971394  70.8753052  18.1436024
  25.9939842  72.1828156  18.6101017  64.8858032  50.8593063  77.0180511
  64.9820251  49.9577904  76.7110672  63.9776230  50.9155083  77.3151703
  65.0201340  68.1439896  46.1093674  65.6904297  68.8246918  46.0495033
  64.2259903  68.5596619  45.7735329  53.3424759  38.9165306  88.3885117
  52.9720802  38.1121330  88.7518082  54.2645454  38.8924980  88.6443253
  56.8610077  65.8222046  58.0393600  57.2260284  65.7511978  57.1573448
  55.9253922  65.9688797  57.9002762  20.3147221  62.4297905  20.8967876
  20.0613670  63.3418655  21.0387840  21.1002617  62.3134308  21.4312210
  68.3209305  38.5596275  73.9565277  68.8674927  38.7606964  74.7161789
  68.0187378  39.4132233  73.6462250  66.0230713  22.8608932   3.6097889
  66.3715286  22.4395180   2.8241320  66.5348587  22.4889183   4.3280826
  20.4241581  27.3258839  75.6878433  20.3605251  26.3845711  75.5262451
  19.8088017  27.4882965  76.4028168   3.1864252   9.7944689  60.3656921
   3.9979632   9.9203825  60.8574104   3.2768235  10.3667068  59.6037216
  33.8239403  59.9408302  71.8692780  34.5782738  59.6594658  72.3870163
  33.7681236  59.3006287  71.1598740  28.1233654  50.3127670  80.2707367
  28.9522915  50.6026878  80.6516113  28.3599987  49.9855042  79.4029007
  55.3890495  57.0340462  72.7717361  55.3823662  56.0790443  72.7072601
  55.0650253  57.3337173  71.9223557  76.3773041   7.6957183  56.3573723
  76.1128387   7.5958061  57.2718697  77.0540237   8.3724251  56.3763123
   1.6885670  65.8462982  43.4664383   1.7748579  66.6714478  42.9890404
   1.8109894  66.0869522  44.3847656  55.7803574  16.7440643  83.4661789
  56.7179565  16.6422939  83.6298141  55.7027664  17.5980473  83.0408249
  37.5741844  44.1070290  72.9454575  37.8056908  43.2741165  73.3564224
  36.6723976  44.2684937  73.2228394  24.0225143  33.1210594  84.9601288
  24.3081913  32.9483795  85.8572388  24.8304596  33.3137016  84.4843750
  57.1195526  66.8829498  46.7269516  56.8396225  67.4140625  45.9814415
  57.3822784  66.0475082  46.3406372   9.0999756  29.1330299  74.2653580
   8.2890053  29.6144390  74.4290771   8.8301535  28.3820438  73.7367249
  43.8110199  33.9789772  30.2623844  43.1644363  33.9845810  29.5566006
  44.2069130  34.8499222  30.2314434  80.0394592  57.6021576  85.9332657
  79.7158890  58.1500168  85.2181549  79.5171127  56.8020058  85.8772049
  83.0621719  22.1654320  69.3339539  82.9964294  22.4763775  70.2368546
  82.1594772  21.9722710  69.0808334  58.1026115  29.2665558  50.4748001
  59.0520401  29.2105618  50.5829086  57.8583031  28.4348049  50.0689240
  73.3463745   7.5600395  27.7585506  73.9614258   8.2913752  27.8141689
  73.2388000   7.2681823  28.6638012  53.0530243   0.8541292   6.0100164
  52.8504295   0.7851717   6.9429860  53.5576897   1.6638966   5.9337244
  62.7451820  29.0215740  83.3481522  62.3609695  28.3618946  83.9255905
  62.0042610  29.3614101  82.8463745  57.9568100  23.5087795  10.9093351
  58.8580742  23.7829895  11.0789251  57.4592247  23.8479919  11.6533623
  60.6930313  11.9085760  48.5703697  61.2773209  11.5130606  49.2172127
  60.0937195  12.4474382  49.0867882  71.5030746  11.7733002  85.7480927
  71.7770386  12.6893148  85.7023239  70.6782227  11.7454939  85.2632523
  20.4986668  22.7791519  15.2811203  19.6768589  22.4409904  14.9254398
  21.1172447  22.7195892  14.5530767  81.3383560  13.3467693  32.3120880
  80.6882477  13.9559612  32.6620483  80.8215485  12.6278610  31.9483490
  71.2372971  43.9498444  81.2183609  70.7229767  43.6302643  81.9596939
  70.7779083  44.7387085  80.9304657  56.0385971  55.8713799  85.6051941
  55.6773720  55.3488007  84.8891907  55.3552132  56.5118561  85.8027039
  54.9380569  55.4731903  42.5307121  55.4115410  56.1140976  42.0003471
  55.3199997  55.5563545  43.4044609  15.5880499  62.1438675  29.0020123
  15.0577621  62.1970596  29.7971210  15.9958124  61.2788582  29.0434933
  58.7717247   5.2448282  68.9253006  59.5282707   5.4753718  68.3861160
  58.8141174   5.8475585  69.6676941  82.4180069  37.6580658  77.6103668
  82.7379303  38.5129395  77.3221359  81.5720749  37.8438683  78.0179214
  21.6644669  41.6987953  88.3912506  21.7293339  42.6355133  88.5772247
  20.8164234  41.4410210  88.7526474  46.9305840  12.6506910  27.9398441
  47.5058327  13.3480883  27.6252689  47.4647522  12.1647463  28.5681362
  70.7414780  58.7874756  82.5547638  69.8316956  58.6193924  82.3092575
  70.8350677  59.7379532  82.4910355  52.1424294  49.4486008  15.9540253
  51.2157822  49.2529831  16.0929146  52.4345589  48.7896118  15.3242416
  36.1464539  37.3110962  83.2576065  35.3254547  36.8244171  83.3306656
  36.8212280  36.6348534  83.1975555   6.9361467  26.1791935   0.0664210
   6.2670155  25.9816647   0.7217667   6.6207418  26.9726028  -0.3663072
  80.6927643  16.5771675  12.9681263  80.9785843  15.9442701  12.3093576
  80.7331696  17.4227238  12.5213213  64.6383438   4.2392550  66.8432846
  64.2494125   3.6853390  67.5201416  65.4248199   4.6005301  67.2521515
  51.1287117   9.9159184   6.9881611  51.6711884   9.4260006   7.6061678
  50.3992920  10.2415142   7.5155768  53.1354752  60.5272255  65.8291550
  52.5934486  61.2322273  66.1832809  53.9518814  60.9574242  65.5748978
   9.7825108  33.8507729  49.6263809  10.5087013  34.0072250  50.2300377
   9.3888025  34.7135506  49.4966125  29.4246292  68.9848785  37.1416206
  29.8355618  69.1117325  37.9967690  28.7702541  69.6811371  37.0846901
  67.6309967  22.5508900   5.7945628  67.9009628  22.7609367   6.6885595
  66.8973770  21.9454880   5.9018950  75.1755600  39.6200333  53.1456795
  76.0681763  39.8222008  52.8653221  74.8588181  40.4323463  53.5407104
   7.0741978  20.4177513  52.9310532   6.3350797  19.8483124  52.7173347
   6.7082319  21.0719814  53.5262718  79.1379471   1.4835618  81.9641724
  78.7836227   2.3235610  81.6724777  78.9931488   0.8928754  81.2250137
  23.7282867  38.5621452  79.1099854  24.1168251  38.9718056  78.3370361
  23.3283501  39.2873650  79.5899200  12.4724541  12.7731819  10.9482260
  12.8453760  11.9023333  10.8111696  12.5274277  13.1949415  10.0907125
  65.7839584  35.9609146   0.7439632  66.5760574  35.5685349   0.3767374
  65.0838547  35.6859512   0.1519547  21.5669899  59.4742928  23.7094383
  21.1661949  58.6311951  23.9210587  21.5554333  59.9588852  24.5348263
   9.6726780  51.2914925  82.3395462   9.6117020  51.8194046  81.5434189
  10.4939976  51.5665436  82.7469940   2.3750248  21.5978966  59.6971512
   1.5451897  21.3636971  60.1127892   2.7279332  22.2988892  60.2451439
  80.9977188  67.9868927  26.0716057  81.7448730  67.3929291  26.1437168
  81.0083008  68.4853821  26.8886890  57.8641930   3.9908271  20.5024281
  58.3581352   4.4002433  19.7920532  58.2410126   4.3611622  21.3006077
  34.3028450  45.5888748  36.7544022  33.4856834  46.0803566  36.6711731
  34.2646828  44.9399719  36.0517654   1.7766607  43.2338409  75.3330536
   2.2102301  43.9943352  74.9458847   1.6395538  42.6363029  74.5979462
  55.9217644  36.1672783  59.7488480  56.1835289  36.3992310  60.6398659
  56.0202522  35.2159424  59.7102661  55.9506111  25.9369431   4.4619355
  55.7630157  26.5915184   3.7892010  56.5237656  26.3880329   5.0818110
  43.5409203  25.7506771  15.7007570  43.7568512  26.6751652  15.8229294
  42.7902985  25.6020184  16.2758236  40.2046127  61.8103790  60.4019318
  40.4850502  61.1380081  61.0228233  41.0178719  62.1288872  60.0102806
  24.2171326  50.1991425  34.4347229  25.0679703  50.4504967  34.0753784
  24.4142246  49.8776627  35.3145180  85.5306854  45.7366676  86.4924088
  84.6740646  45.7114944  86.0660400  85.3325882  45.8586311  87.4209061
  80.9838562  62.5498276  43.8690796  80.4424133  61.9523125  44.3848686
  81.6897583  62.8061752  44.4625664  64.4248352  56.8003769  45.5970764
  64.8669739  56.0855560  46.0550919  63.9670029  57.2801781  46.2873001
  67.8354950  27.8568726  69.0408554  67.4044647  28.6494179  68.7209854
  68.4676285  28.1721020  69.6868134  11.7493649  48.0156937  39.0304451
  11.3403549  47.4040337  38.4182243  12.6343317  47.6731644  39.1559067
  76.1906357  30.1371689  65.6797104  75.4217834  29.6266270  65.9335709
  75.9447632  31.0449753  65.8576660  80.6366653  45.0478554   0.9376510
  79.8373947  45.4288025   0.5739512  80.8385086  44.3146133   0.3564066
  64.1983032  70.0715485  27.9008484  64.9871368  70.0286942  27.3603554
  63.5499878  69.5574417  27.4195843  72.3862762  66.9595337  73.1283951
  72.5362167  67.7528152  72.6141357  72.4223785  67.2537308  74.0385437
  56.3745384  48.0469360  32.7935562  56.0450592  48.6829147  33.4285431
  57.2586784  47.8412743  33.0972519  72.1482391  71.0038910  82.2277069
  72.8441925  71.1899261  82.8580017  72.1386795  70.0494156  82.1562424
  59.0732193  10.9581318  46.6740417  59.6979866  11.3496351  47.2844696
  58.8058014  10.1415691  47.0958786  67.6278534  30.8707390  81.4337311
  67.1419907  30.3586540  80.7872543  67.8866959  31.6643047  80.9652405
  38.3034172  42.8152847   9.6825562  38.3406181  43.7420692   9.9190292
  38.6680336  42.3596764  10.4413090   3.9426637  27.9707794  68.8883514
   4.6333585  27.5309143  69.3840179   3.9604816  28.8745918  69.2030487
  23.6597691  31.5533600  73.5294495  23.1953888  32.2557983  73.9846039
  23.2346401  30.7505207  73.8310242  34.4704895  65.9361649  58.2707520
  35.1499481  65.2847900  58.4447289  34.2202682  65.7837296  57.3594971
  43.0203133   1.7543617  49.3982353  43.1399460   2.1485386  48.5342064
  42.0710373   1.6890618  49.5023499  86.0191879  68.7104416  10.8243742
  85.9754562  69.6296616  11.0877256  86.2794876  68.2455902  11.6196032
  41.9689980  41.6326180  16.6675835  41.8923645  40.7631836  17.0605831
  42.8762360  41.6800613  16.3660927  24.6092262   3.6684091  55.3081970
  24.9985161   3.8140042  54.4459381  24.3633080   2.7433391  55.3068504
  71.7829590  19.2382793  85.3779526  70.8371887  19.3436050  85.4811630
  71.8836823  18.3909016  84.9443207  78.7671509  43.5640831  67.0179672
  78.2303238  43.0558891  67.6260681  78.5020294  43.2576027  66.1507797
  43.6265602  69.4944839  42.2791176  42.9017105  69.5667191  42.9000893
  43.2032928  69.4375076  41.4224777  75.6907806  52.7253914  55.9046059
  75.4696198  53.0161705  56.7893448  76.4915161  53.2032890  55.6885719
   0.0626289  46.9584122   1.7771047  -0.3312652  47.5056801   2.4565001
   0.8120900  47.4657860   1.4654741  53.3468208   3.9957128  17.3456306
  52.8282394   4.7625618  17.5890446  54.0536804   3.9700489  17.9905529
  66.2678909  44.4828148  28.6339149  65.7036972  44.0005684  28.0294685
  66.9912186  44.7940674  28.0897160   4.8427682  33.0451126  14.3659143
   5.7505302  32.9699173  14.0717278   4.3987308  33.5094604  13.6563778
  48.1406364  14.8527422  27.3060246  48.1444817  15.1417561  28.2185402
  48.8016968  15.3978758  26.8793411   7.6799927  62.7198105  44.2896309
   8.3179779  63.0224075  44.9358826   8.2019396  62.5229568  43.5117798
  15.6000032   3.4886026  62.6022377  15.3445759   4.3506227  62.2737389
  16.4637928   3.6266935  62.9908638  38.4561310  51.7426567  38.1483231
  39.0582466  51.9543381  38.8616829  37.6090927  51.6223221  38.5775986
  52.2320175  19.1442032  87.4279709  51.8037949  19.6395226  88.1261978
  52.2305641  18.2394791  87.7405396   0.7722358  19.9825802  57.2077980
   1.1349653  20.2607956  58.0487823   0.6016798  20.7992630  56.7385712
  86.3228226   2.5710161  46.4800758  86.8567200   3.3651180  46.4559593
  86.8517838   1.9129723  46.0290718   8.5262232  18.8323002  40.1070900
   9.3456202  18.5536861  40.5159874   8.7923040  19.4801960  39.4546623
  13.6774254  64.4265747  71.0875015  14.2406101  65.0612640  71.5304642
  14.0735502  64.3172150  70.2229996  81.5445862  51.0192490  27.4985085
  82.2618103  50.5011024  27.1333523  81.7903137  51.1571808  28.4132881
   0.6478444  61.8356476  48.1436958   1.0303069  61.8861389  49.0197105
   0.7700574  62.7118073  47.7781296  85.9648056  33.4917831  15.5231953
  85.8909378  33.8036766  16.4251347  86.9050140  33.4983559  15.3437443
  57.7157364  46.2979851  28.5713673  57.1032333  45.7214470  29.0281754
  57.5635681  47.1615028  28.9553089  86.4629593  56.6475029  59.0614281
  87.0041656  56.0396042  59.5652046  86.6858215  57.5110817  59.4089890
  57.4629707  68.0941162   5.0715857  57.6138153  67.1498184   5.1137671
  57.9078331  68.3722000   4.2709613  44.2175369  62.0102043  63.6836243
  44.8630257  61.3110313  63.5800056  44.7251511  62.7611465  63.9912758
  69.5344620  23.5320663  84.1071014  69.4705200  24.1299629  84.8518600
  69.1133118  22.7273197  84.4091644  79.5266953  29.4688244  50.9767990
  80.3271713  28.9520206  51.0683594  79.8343887  30.3568859  50.7954063
   9.7680597  44.9329643   1.8602039   9.5382309  44.9054909   0.9314112
   9.8091202  45.8661499   2.0692749  58.8474617  69.0608521  73.2128830
  59.7457390  68.8289948  72.9771423  58.4968185  69.4865952  72.4305649
  81.9393539  29.8801765  56.4682693  81.0042572  29.6820297  56.4176636
  82.0601196  30.6194763  55.8723793  85.5730820   4.3341689  49.0312462
  85.6768799   3.9782488  48.1487617  85.0762634   5.1427693  48.9064789
  15.2973537   1.6219819  57.2891312  15.3524675   2.3729355  56.6981468
  15.0948229   2.0037148  58.1432343  26.6061001  57.2227173  18.7617359
  27.4072857  57.6857262  19.0065937  26.8890266  56.3222847  18.6023464
  53.8501358  35.8045273  72.9861526  53.3261948  35.5027313  73.7282028
  53.7983131  36.7593651  73.0289459  78.6499329   9.9809303  31.3426361
  78.4239731  10.5292273  30.5912743  79.2895126   9.3566818  30.9998817
  45.7242508  46.4419441  29.0496693  45.3083038  47.0603752  29.6503029
  45.0341949  46.2111320  28.4277515  24.0790901  -0.0522906  76.3261032
  24.9969711   0.1816298  76.4639740  23.6312180   0.7870889  76.2208176
  43.5029945  64.8183441  22.8217278  44.1185799  64.2078400  22.4160557
  42.6556931  64.5958481  22.4359665  20.5733738  61.8806648  70.6933899
  20.9898891  61.0324593  70.5407639  21.2836666  62.4447021  70.9992981
  52.6216698  59.0126457  55.4010239  53.3704147  59.3186264  54.8891754
  52.3319778  58.2191582  54.9508171  86.4966354  70.4914017  44.3178711
  86.6754913  70.4133759  43.3807716  87.0057678  71.2526398  44.5963135
  58.1626892  68.7307053  81.1369781  58.5066299  69.0949707  80.3213501
  57.8141861  69.4870605  81.6088943  53.0467148  34.9513817   3.5931239
  52.8579483  34.4977875   2.7716308  53.6007576  35.6889458   3.3376400
  42.1549797  53.1848640  55.4321098  42.8543167  53.6456566  54.9686165
  41.5352821  52.9374962  54.7458000  50.2569084  10.2250261  60.5097580
  49.7921944   9.9147806  61.2869453  51.1828423  10.1042089  60.7201996
  57.3363342  52.1341782  36.2089195  57.5665131  52.8403702  35.6051445
  56.3823433  52.1767349  36.2747116  10.8980751  37.5157623  53.1555710
  11.4389057  38.2214317  53.5102081  10.0053349  37.7455330  53.4133568
  79.3899155  63.7806435  34.6500435  80.1238174  64.3108978  34.9606018
  78.6238174  64.3437271  34.7608070  23.7977600  37.6634445  35.7227364
  23.4268875  38.4208832  36.1754761  23.2273159  36.9349289  35.9678688
  54.1802254  67.8435745  87.4418106  53.4462547  68.3555984  87.7814484
  53.7705307  67.0880356  87.0204544  44.8876152  69.3885193  73.8288269
  45.3817177  70.0471420  73.3406601  44.0487404  69.8093109  74.0171204
  59.6133995  26.0393372  39.3464394  59.8681793  26.9408951  39.1501961
  60.0307846  25.8500099  40.1867867  66.2859116  16.6959839  52.0873909
  67.2196732  16.6694088  52.2962227  65.9217911  15.9232903  52.5193520
  32.7452660  58.5302734  46.8327026  32.0089607  58.5898933  47.4414139
  32.5151062  57.8078575  46.2484283  77.5240707  45.9137917  80.6994781
  78.4373474  46.1165352  80.9020996  77.0412445  46.6984520  80.9591141
  16.8957119  41.3558235  36.4275970  17.3297596  41.0379601  37.2192993
  16.8706837  42.3068123  36.5335541  40.2196274  52.7850838  73.8097458
  41.0776863  52.3609161  73.8030167  39.9828568  52.8612900  72.8854294
  21.4049435  63.5788307  84.9892120  21.7969570  63.0339203  84.3068390
  20.5060349  63.2586288  85.0644760  72.1020432  -0.0251504  10.6100464
  71.6712189   0.4920116  11.2906094  72.5097656   0.6246224  10.0375204
  73.8441238  60.1900215  32.8665237  74.2527771  59.3705025  32.5879173
  73.5159378  60.0068436  33.7468491   3.9699585   9.0507746  84.3954773
   3.6340935   9.7885017  83.8863754   3.2304668   8.4461842  84.4575577
  61.1113396   7.2551579  14.4524622  61.7820816   6.8251419  13.9219685
  61.5591850   8.0059710  14.8422642   7.8479385  55.7209320  26.7213707
   8.2259274  55.1411438  26.0601578   7.5351281  56.4776955  26.2257023
  36.7709427   3.6768069  65.7038803  36.2126770   4.4383307  65.8608856
  36.9552155   3.7044170  64.7649841  82.5517044  40.4813347  47.6386070
  82.1725693  40.1676178  48.4596291  82.2908249  39.8281822  46.9893265
  67.1601334  68.3217087  68.2105255  66.9139252  68.6643982  67.3513489
  66.5869827  67.5661316  68.3402481  59.3013878  63.5112534  30.9442482
  59.2725563  64.4501724  31.1282082  59.7999573  63.4419060  30.1300926
  58.7315598  40.2334404  61.6035690  57.8021698  40.4139404  61.4625587
  58.7435646  39.5427589  62.2661781  32.6623726  38.1322632   3.5225267
  32.7357178  37.8924713   2.5987570  32.9345512  37.3463478   3.9963272
  18.7438564   4.0776114  47.8059731  19.0495262   3.5874581  47.0427246
  18.3145981   3.4219005  48.3555298  61.2688484  15.1501207   5.9872360
  60.7524147  14.8037548   5.2595277  61.5534363  14.3739595   6.4697452
  25.0695591  52.3909531  25.3301125  24.5218639  51.7475967  25.7799530
  25.5252781  51.8876038  24.6554337  47.8847427  66.9527359   4.2474036
  48.8141327  66.7242432   4.2315402  47.5097656  66.3841934   4.9199953
  81.6734695  16.3526382  49.2503052  81.3058395  15.4739351  49.1556625
  81.9712219  16.5837440  48.3704376  39.4410934  57.5397453  10.9946146
  39.9340782  56.8699493  10.5207300  38.7069702  57.7500191  10.4174843
  18.0465603  70.9630280  71.4728012  17.1492424  70.7719421  71.7458191
  18.5213299  70.1452026  71.6210861  27.3580513  56.1286430   3.1967762
  27.5386543  55.5808144   3.9606459  27.2092419  57.0023193   3.5584087
  11.5250549  27.4622993  21.9562969  12.3986149  27.7338924  21.6745872
  11.5111942  27.6385288  22.8970337  71.6239700  40.4391937  22.2267094
  71.3947449  39.5147514  22.3220787  70.8193970  40.8546906  21.9164658
  69.2336578  52.1544609  50.5722809  69.2584076  53.0441170  50.9246063
  70.0718918  51.7711754  50.8305206  39.1027374  27.2982559  24.3326378
  38.5748100  26.7039852  24.8659000  38.4878120  27.9738331  24.0468140
  76.0727844  34.0594215  42.3684692  76.4654160  34.9158058  42.1991196
  75.6395340  33.8278885  41.5469322   1.6549838  39.5122147  82.0362854
   0.8071320  39.0886650  82.1703796   1.4699491  40.4482155  82.1131058
  31.4555206  69.2338257   1.4667269  32.2868919  69.6824265   1.6210506
  31.3873978  68.6025848   2.1830566  15.6904840  51.2114754  78.5917130
  15.8062601  51.8596382  77.8969345  16.3441429  50.5382805  78.4025803
  67.2271118   6.9948950  59.2676239  67.3742371   6.3912044  58.5395164
  67.8969421   6.7623577  59.9106483   8.1537676  10.6384563  59.9244194
   7.4564257  10.6466503  60.5800743   8.0214109  11.4435711  59.4239197
  13.5569906  21.6423893  80.4546127  12.7963276  21.6737595  79.8744049
  14.3097897  21.6921768  79.8655090   2.8176208  10.8581085  53.9085007
   2.3440797  10.5568323  54.6838875   2.3340762  10.4838028  53.1720848
  25.0776768  10.9751320  32.3667488  25.1443005  10.3306770  31.6621418
  24.8593273  10.4595108  33.1430779  42.3260536  48.6286926  46.5555840
  42.6305656  49.5349464  46.5086136  42.5005302  48.2719498  45.6846504
  61.9591484  59.2550888  81.8726425  62.1210213  58.4277229  81.4193344
  61.7342644  59.8705063  81.1748428  83.7075653  44.0582962  60.6792908
  83.4114609  43.3401299  60.1200066  82.9503021  44.6403198  60.7427597
  54.6043587  51.6853943  70.7996445  54.2584801  50.8298912  70.5452499
  55.5290489  51.6524239  70.5545044  28.7767391  59.8669548  35.3382072
  29.1929455  60.5643463  35.8448105  27.8430519  59.9569168  35.5289040
  30.6992722  46.4755173  37.4407730  30.9419537  45.5614510  37.5884933
  31.2799606  46.7668991  36.7378311  44.8632164   9.1275864  81.1220245
  44.4801369   9.1829853  81.9974747  44.4802361   8.3366346  80.7426147
   4.2145848  48.2421303  76.1298523   3.7269912  47.4208908  76.1934891
   3.7145185  48.8595619  76.6636581  67.4703827  50.7247963  24.7112713
  68.2233047  50.5178642  24.1576328  67.8539810  51.0571022  25.5228481
  29.0639668   5.3445163  15.3062096  29.7208462   4.8196659  15.7636757
  28.8178005   4.8132381  14.5489931  12.0653334  34.6296501   9.6695385
  12.8801250  35.1296539   9.6211109  11.6096735  34.9874649  10.4314938
  40.8181877  70.1226959  40.0287399  40.0855789  70.6961746  40.2537727
  41.4740791  70.7088928  39.6513710  13.6087379  60.6356506  64.3973541
  14.1873178  61.3820686  64.5533676  13.4940205  60.2371101  65.2600479
  33.4005203  11.8092680  26.3412666  32.4938622  12.1156483  26.3595867
  33.8919678  12.4875984  26.8044930  26.6084385  34.2965355  19.3401909
  27.1926193  34.9501457  18.9557972  27.1655216  33.8007889  19.9402962
  15.9016304  58.1483994  24.3087864  15.5631495  58.6510315  23.5678234
  16.2568874  58.8086815  24.9038086  54.9893456  18.8388062  39.8710480
  55.7017975  18.2268963  40.0560074  54.1929054  18.3192654  39.9805527
  52.6942978  66.8167572   2.4575760  52.4274673  66.2835388   1.7087692
  53.4402733  66.3479843   2.8317378  68.6205978  18.7400074   3.4804513
  69.1898499  18.0201397   3.2084749  68.6984253  18.7596607   4.4342794
  64.5594254  14.0553923  66.1824799  64.6679077  14.8777246  65.7047424
  64.0089493  13.5182076  65.6127090  16.7301750  31.2414227  87.1132202
  16.5209827  30.3080120  87.0783768  15.9391499  31.6762104  86.7946777
  35.8004150  50.8098526   9.3231316  35.2336578  50.3942947   8.6732655
  36.2750893  50.0831490   9.7266397  26.5988541  58.1611443  12.7563524
  26.5273857  58.2830887  11.8096466  27.5402927  58.1061058  12.9203587
   3.7486782  19.9926834  55.3465195   3.3161013  20.8454971  55.3038902
   4.6132789  20.1433086  54.9644089  31.4408398  11.8715649  29.9776821
  31.3113327  12.2171278  29.0944805  32.0517998  12.4840641  30.3873215
  34.2688370  40.3667145  26.0857830  34.3590927  39.5149231  26.5130329
  34.0726547  40.1570663  25.1726608  24.7107391  70.1003647  13.8255777
  25.2903385  70.4124451  13.1306686  23.8614693  69.9906387  13.3978691
  67.4277878  50.1791954  46.0299530  66.6539154  49.6610947  45.8087578
  67.0837860  50.9268188  46.5187874   7.0417910  29.0296593  48.9387894
   6.5436831  28.3375854  49.3737068   6.8126807  28.9442520  48.0133438
  12.6443748  58.1353416  50.3184776  13.1943464  58.8447762  49.9861145
  11.7849855  58.2957878  49.9286842  59.6445618  60.6627922  20.2197037
  59.7568703  61.5689240  20.5070095  59.8932076  60.1377563  20.9804554
  20.4667702  60.5399971  16.0207787  20.2081108  60.7868500  16.9086914
  19.9185371  59.7832909  15.8132458  71.8528748  39.7558632  36.9135361
  72.4504623  40.4720612  37.1284332  71.0748825  40.1899376  36.5634880
  58.5011444  51.1491737  60.4469032  57.7248840  50.5900993  60.4799538
  58.2805023  51.8278923  59.8090248   6.7516341  49.3928757  15.7431240
   6.7703557  49.9843025  14.9907284   7.6181450  48.9862480  15.7497616
  23.4905262  21.1370583   2.0803826  22.5504246  21.3054199   2.0163989
  23.8209229  21.8351192   2.6458735  64.3520355   5.0587425  13.0763683
  64.9546280   4.4195590  12.6961594  64.0165863   4.6321507  13.8648643
  70.3299942  37.4271126  65.0717468  70.1317978  37.6802368  65.9733429
  69.9230042  38.1085167  64.5366898   7.5449190  36.7784615  41.8169365
   7.6986890  35.8669472  42.0653877   8.4096165  37.1869545  41.8576851
  76.9313126  53.1247101  31.1875267  77.2552490  53.1169548  32.0882149
  77.0798798  52.2333488  30.8718815  66.2033768   0.8449159   9.1139174
  65.6840668   0.1503090   8.7088633  66.3081360   0.5661682  10.0236197
  15.6562815  55.8265419  62.9983559  15.1445799  56.4575500  62.4921761
  16.4278946  55.6557159  62.4582977  85.0968781  13.9579973  52.5544205
  85.5742645  13.1571941  52.7713165  85.6043549  14.6580400  52.9650688
  46.2505379  29.2620792  88.0388412  45.7483482  28.8354225  88.7331009
  47.1423416  28.9331131  88.1515350  10.6010275  66.0378418  84.9544144
  11.4896660  66.2654190  84.6809769  10.1277075  65.8940659  84.1349487
  82.8994522  30.6591396   2.2011099  82.8825912  29.7080708   2.3079476
  82.5002365  30.8110466   1.3444995  33.2575150  54.1565323  77.7753830
  34.0591850  54.6757240  77.7121429  33.5307465  53.2661552  77.5544586
  68.9621887  66.2010880  11.4711580  68.1000443  66.5512772  11.6954517
  68.8171616  65.7056503  10.6650925  73.6255646  40.0541573  58.7747116
  73.5184937  40.9761238  59.0086937  73.6037521  39.5905075  59.6118431
  66.0407791  29.3013134  47.3212738  66.4243774  28.9668465  46.5105858
  66.5534134  28.8891773  48.0166740   3.7158482  23.1231689  79.3494873
   3.2927530  23.5638428  78.6125870   4.0844159  22.3247185  78.9715118
  38.2420807  14.9448376  87.8847198  37.3770943  15.2168007  88.1914139
  38.8337517  15.1762981  88.6006699   6.6005344  56.7293320  68.5978088
   7.1699595  57.4968910  68.5445557   6.0532365  56.8899918  69.3665009
   9.3697853  60.9737015  10.9416561   8.5272617  61.3910446  11.1211367
   9.3816862  60.8569374   9.9916801  17.6359882  59.6049843   2.0156379
  18.0120621  60.2689972   2.5934689  17.9167805  59.8643532   1.1380755
  24.4314556  47.3967133  69.1602478  24.3229675  46.5719337  69.6337433
  24.3008137  48.0732841  69.8246384  11.1712427  32.6318169  47.7296486
  10.6640272  31.8412609  47.9140053  10.6992188  33.3303680  48.1829109
  77.3981323  32.4002037  72.8023300  77.6894302  31.5087662  72.6107254
  76.5354691  32.2895622  73.2020798  20.2235031  47.6545982  75.9983215
  20.7194462  46.8914490  76.2947617  19.9039268  47.4099770  75.1298370
   5.0668387   7.8466659  82.2578430   4.6422253   8.4539738  82.8637390
   5.4115090   8.4052496  81.5611191  71.6551437  52.1892204  25.4431934
  70.9147568  51.8283195  25.9308491  72.1169586  51.4215508  25.1060829
  86.6136017  54.8277016  24.3470554  86.3192368  55.2916298  25.1308613
  86.8774261  53.9641685  24.6647587  32.9554214  49.3710136  86.5396881
  32.3275146  49.0589104  85.8881073  32.9448318  50.3235092  86.4455032
  72.8939285  14.4670677  86.7988205  73.5762405  14.1545286  86.2046890
  73.1651382  14.1529837  87.6613922  61.4348183  24.5970573  65.2619705
  62.2788582  24.8984451  65.5981216  61.2112045  23.8474045  65.8135605
  42.6067886  60.6487961  33.8733177  42.7520103  61.2981606  34.5614090
  43.4496880  60.5827789  33.4245453  68.3591614  47.6334000  32.3466034
  67.5035934  47.4574165  31.9551029  68.1811752  48.2781448  33.0313339
  24.0322971  50.4878502  23.4585629  24.5279369  50.0410004  22.7723427
  23.3676682  50.9891815  22.9861565  65.7150879  13.5129242  68.8249130
  65.2817307  13.6281433  67.9792404  65.6941605  12.5682831  68.9780273
  56.3264961  39.7212982  83.1586151  56.6639557  38.8524704  82.9406891
  56.9654655  40.3274040  82.7836761  29.6044731  42.5460396  35.9489403
  29.2769108  43.2971535  35.4542046  28.8227348  42.1603470  36.3443642
  23.1719303  67.3630066  29.5797863  24.1211929  67.4528656  29.6638126
  22.8156643  67.9598312  30.2378941  56.6656418  31.8018322  46.1885071
  57.2008972  31.1093426  46.5760536  56.3557663  31.4309807  45.3622627
  52.1975861   0.6296042  51.5473938  51.7050629  -0.0977958  51.9275780
  53.0440331   0.2491011  51.3129196  43.7831230  23.6449356  63.2183456
  43.3666382  24.4970455  63.3474998  44.5978394  23.8440208  62.7570038
   2.9396117  27.6658401  83.8418503   2.4249303  28.0502205  84.5514908
   2.2936127  27.4399967  83.1725922  57.5214844  10.0663052  39.3724823
  58.1677818   9.9590559  38.6746063  57.0517464  10.8680553  39.1427612
  49.9557877   6.1024380  17.4756508  49.0154533   5.9247861  17.4546204
  50.0330048   7.0165596  17.2024288  79.3337250  17.7714787  85.1713867
  78.3981400  17.5751095  85.2198792  79.6825027  17.4857979  86.0157623
  54.3025856  43.6232109  53.6449165  53.4601021  43.6417084  53.1909218
  54.6560211  42.7533836  53.4585876   5.0885296  30.8600101  64.5837021
   5.5491691  30.0264664  64.4875412   4.8907528  31.1292343  63.6866837
   5.3968539  30.3578987   8.4271326   5.5680470  30.0945148   7.5229459
   4.4426565  30.4053211   8.4862118  83.4018555  27.8881779  55.4007988
  83.0388718  28.7546921  55.5841904  84.3327866  28.0466728  55.2443771
  48.5469666  61.1105766  79.7568207  48.0072021  61.5559769  80.4098892
  48.5868378  61.7221985  79.0215912  65.1664963  28.5403271   2.7432678
  64.6924744  29.3064632   3.0666435  66.0466843  28.8654919   2.5541613
  27.7058926  51.9693680  36.7279320  27.8712997  51.6626511  35.8364182
  28.4664688  51.6733360  37.2280540  21.9482403  61.1420555  26.0969200
  21.9611073  60.7863579  26.9854832  21.0773048  61.5286980  26.0062943
  60.8399506  38.6758308  76.9051514  60.2001953  38.5437851  76.2055054
  61.6668472  38.3667946  76.5350494  46.4881783  42.6882172  80.8283539
  47.2390900  42.1808319  80.5202560  46.4770050  43.4639664  80.2677078
   9.2486744  61.4925690  26.9380436   9.2542305  62.3335037  26.4808464
  10.1732922  61.2949638  27.0872631  44.1304588  70.4028854   5.0675941
  44.8961029  69.9782944   5.4545655  43.7524986  69.7373657   4.4927421
  42.7705460   1.9549787  18.1440296  43.1639442   2.8069570  17.9553471
  42.6525497   1.9507374  19.0939198  60.6830177  66.8029251  52.1645851
  59.7550201  66.8922729  51.9476280  60.8384972  65.8584366  52.1673050
  56.8835793  33.1031952  17.7926445  56.3816109  33.7720795  18.2583141
  56.5324516  32.2729034  18.1144466  17.5519104  70.0068054  36.1013870
  16.7000256  69.5908966  35.9689140  17.3632431  70.7709961  36.6460342
  82.8432922  57.4495163  27.3327732  83.1069412  56.9599571  28.1119080
  82.1452637  56.9226494  26.9436779  35.1180229  17.3103771   7.2184019
  35.3338661  18.2024155   6.9465365  35.5746498  16.7512989   6.5897880
  11.3439655  57.6929550  75.8091965  11.2886429  58.6159210  76.0567932
  10.5013361  57.3232994  76.0729446   3.7351284  66.9872665  59.8758354
   4.5416880  66.5291824  60.1121635   3.9529688  67.4555130  59.0699043
  38.5151443  25.0544701  80.6323700  38.9564018  24.2052765  80.6521454
  37.9786263  25.0641155  81.4250183  66.0827713  56.8322487  79.9277878
  65.2059479  56.8825073  79.5471573  66.4875793  56.0787659  79.4981079
   1.6502584  59.9111595  72.9480362   1.3718389  60.2031059  72.0800018
   0.8496138  59.9217720  73.4725189  29.9952755  44.5253906  24.1920662
  29.2308502  43.9583626  24.0902576  29.6592445  45.3025589  24.6385250
  39.9422112  23.8593502  11.1132889  39.1190681  23.4348450  10.8715048
  40.3122063  24.1556244  10.2816896  44.4541321   4.5701780  65.2815247
  44.3052635   4.7945147  64.3629761  44.0645561   3.7016516  65.3821335
  40.9177322  18.5071087   8.6726208  40.9956741  17.5535278   8.7015810
  40.7172127  18.7033482   7.7574620  51.8668213  29.1711845  86.3823700
  52.1237755  29.7538147  85.6677017  51.1140938  28.6893177  86.0396805
  39.3008194  70.2778015  23.8700447  39.3254814  69.6896362  23.1152706
  39.9015656  70.9868927  23.6408577  76.8115997   2.5185843   6.7919793
  75.9702301   2.2156112   6.4506168  76.8319473   2.2014632   7.6948924
  64.6896820  48.8736534  33.6234550  64.4449997  48.7138672  32.7119560
  63.8787537  48.7444496  34.1153183   3.3650076  60.6398964  32.0651169
   3.6853580  61.3493004  31.5080204   2.4165123  60.7659187  32.0917015
   0.6274038  34.8145027  46.0397224   0.5529468  34.1403503  46.7151527
   1.3427939  34.5140114  45.4792290  51.2866402  46.9598961  69.7629929
  52.0698738  46.4096565  69.7663956  50.6318398  46.4474182  70.2371597
  14.3956642  48.4065666  32.1806870  14.7351027  47.9933510  31.3867931
  13.7375193  47.7930946  32.5073776  76.7109604  62.7743759  49.6963577
  76.3909683  63.1913605  50.4963303  76.5204315  61.8442955  49.8183670
  68.3744888  20.2330894  54.2066498  67.7495193  20.3223934  54.9261475
  67.8905411  20.5195923  53.4320908  10.9988117   9.8587275  49.0882149
  10.9763393   9.9664211  50.0390701  11.3936596   8.9971485  48.9540176
  66.6243362  36.1626587  54.5655022  65.8327255  35.6319962  54.4761810
  67.2829208  35.5554581  54.9028435  62.0454674  13.7227554  27.9171658
  61.4068336  14.4015169  28.1354847  62.6676826  13.7365093  28.6444130
  64.0113754  17.5778370   0.7549120  64.5122375  17.3135662   1.5266210
  64.5640411  18.2284870   0.3219540  76.9043427  15.5624151  36.4679832
  76.6563034  15.2385092  35.6020775  76.8961105  16.5153999  36.3786278
  75.8714218  41.0188026  65.4917297  75.3252945  41.7659569  65.7361450
  75.9914551  40.5328026  66.3075867  79.6496124  55.7450905  89.1802139
  80.2865524  56.3033676  88.7342682  78.9795914  56.3512688  89.4962006
  65.1111679  39.0014458  43.1613541  64.8287048  39.9045830  43.0171700
  64.3125763  38.5381813  43.4140816  50.6607628  18.0319309   4.9765129
  51.1811562  17.2323589   4.8983688  50.6778793  18.2384701   5.9110079
  66.4521713  68.3862305  50.5461006  65.7597733  68.2025909  49.9111977
  66.3729172  67.6876678  51.1956825  56.3256111  14.3949890  13.7215395
  55.6000900  14.1061344  14.2750854  56.7801208  15.0536118  14.2467728
  33.8006020  10.5238991  19.6565208  34.0228958  11.4272099  19.8820095
  33.0952339  10.2928104  20.2609138  70.1700439  36.0483704  36.4963684
  70.8636780  36.1724930  35.8485298  70.6287003  35.7634888  37.2867508
  38.1833305   9.6813774  19.4418755  37.8978157   8.8024244  19.1925659
  37.7255745   9.8577709  20.2638092  21.7965469  49.9612160  16.3695507
  21.6586723  49.2717934  15.7199984  22.1700573  49.5073090  17.1249905
  76.0528717  27.6541920  57.2083855  75.1286545  27.8064728  57.0112267
  76.3535690  27.0711784  56.5113144  39.8769836  39.4275970  13.6554499
  40.1611023  38.6154785  13.2359629  39.2950020  39.1424370  14.3598700
   2.1607544  27.2946453  50.2166672   1.4043964  26.7111931  50.2777977
   1.9487109  28.0235558  50.7997284  34.9497337  42.3593712   6.1991115
  35.6534004  42.4136162   5.5524697  34.2037582  42.7861710   5.7776947
  46.0948143  59.2052422  14.5396051  46.4352646  60.0358582  14.2073336
  46.3317680  59.2031021  15.4670105  28.2360382   0.6779746  55.4238014
  27.3167801   0.5379572  55.1966667  28.6717701  -0.1361018  55.1715126
  71.7622604  50.0825806  70.0620422  71.1966858  50.3823433  70.7737350
  71.1819153  49.5798759  69.4904556  45.1287613  60.8347473  89.0765381
  45.6775742  60.2581100  88.5450058  44.8823013  61.5444756  88.4834290
  50.3424110  69.8622360  81.8194504  51.2925491  69.7558823  81.8659210
  50.0241165  69.0258636  81.4797440  82.1632690  15.4355326  10.3586540
  83.0078278  15.0084915  10.2152004  82.1734390  16.1902580   9.7699976
  49.0491295  36.5953712  48.6524734  49.2932358  37.5197868  48.6982803
  48.2278824  36.5400200  49.1410675  63.3978004  64.0967789  19.1027012
  63.2808876  64.7810440  18.4436493  63.7614861  63.3563080  18.6172485
   9.9860458  15.8370457  73.8727875  10.5045614  15.2776575  73.2944641
   9.1652136  15.9747849  73.4000320  74.9863968  16.4776726  28.7426968
  74.8309402  15.6152544  29.1277962  74.1290741  16.7531013  28.4181023
  58.4259644  60.7329750  29.9785786  57.6487045  61.1552048  29.6127644
  58.4774055  61.0621452  30.8759270  84.6146088  32.7141418  19.5348434
  84.4097748  31.7848129  19.4317932  84.0285110  33.0129204  20.2301502
  48.7046471  47.1164780  12.0208025  49.1054077  47.8831673  12.4304476
  49.3678932  46.4304466  12.0962601  76.5922928  23.8716049  23.8451233
  76.7640991  23.2135601  24.5186901  75.7059860  24.1806240  24.0327206
  77.5319977  44.7464142  34.1643829  77.2177277  43.8615913  34.3502579
  77.7515488  45.1079254  35.0230675  24.1678123  64.5035782  -0.0131462
  23.2154503  64.4375610  -0.0829845  24.3278942  64.6878891   0.9123991
  71.8427963  67.5786743  51.3980827  71.4313507  67.8708649  50.5847168
  71.8378220  66.6232986  51.3392563  59.7655563  44.5086212  87.8443985
  60.1739311  44.2475929  87.0189743  58.8963966  44.8212318  87.5932770
   2.9816411  44.4541092   4.2318325   2.1451669  44.8817635   4.0483823
   2.7907109  43.8536835   4.9524360  79.2077408  68.2197800  43.5078278
  78.7076645  69.0232239  43.6514664  79.5196991  68.2898941  42.6056099
  76.2261658  59.0437622  54.6377831  76.5423813  58.2932663  55.1407738
  76.8490372  59.1278229  53.9158401   0.0511732  32.3609772  65.4976807
   0.5298302  31.6570492  65.0599518   0.5723234  32.5568619  66.2763062
  38.2542267  18.5996990  19.1925125  38.1084785  19.1720848  18.4392776
  39.1955070  18.6555004  19.3571510  37.7137260  59.4600029  19.6986542
  38.0794640  58.5756760  19.6778202  38.4786224  60.0354385  19.7051735
  46.6115341   5.9953628   5.1309185  47.0954361   6.8212280   5.1265435
  46.4527931   5.8058758   4.2061872  16.7311821  52.2729378   4.6233678
  16.1944103  53.0329781   4.8479767  17.5282898  52.6455956   4.2465715
  69.9144821  66.6023254  45.4286385  69.7325134  67.3758621  45.9622765
  70.1677475  66.9542389  44.5752678  24.0982990  38.0401230  86.3807297
  24.6352139  38.2832909  87.1349335  23.2853165  38.5318336  86.4969788
   3.8452528  36.7306671  61.7555122   4.6419444  37.2494049  61.6440582
   4.0939617  36.0383148  62.3679085   2.7943058   3.7360504  37.0345612
   3.5867920   3.1999724  37.0631561   2.0773244   3.1087680  37.1277618
  64.7527695  27.5466442  69.1230621  64.6104431  28.4731064  69.3170776
  65.5445099  27.3187714  69.6103592  63.8881149  28.3239975  33.5966988
  63.3581276  29.0179253  33.9888878  64.6018829  28.1867409  34.2195396
  77.7809143  68.3944321  73.1503983  78.4654617  68.5450363  73.8022690
  77.0927887  67.9314728  73.6282883  66.2136154  62.2535706  35.7869568
  66.8665237  61.6278152  35.4733200  66.7225723  62.9187164  36.2503853
  10.7123013  53.1382141   0.6191357  11.5284405  53.0950012   1.1174142
  10.9688997  53.4976807  -0.2300829  35.8439636  56.7809296  21.4074860
  36.0235176  55.9111481  21.0504570  35.3956032  57.2427635  20.6990299
  29.2652969  14.3007669  33.0006523  29.7872124  13.5042009  33.0971832
  28.5006714  14.1551018  33.5577545  79.4282303   5.7035360  31.2448807
  79.0631104   6.5721011  31.0760250  79.6778793   5.7241321  32.1687202
  68.8368530  40.5523834  68.2351532  68.0382996  40.3764572  67.7375641
  69.2049866  41.3364906  67.8278656  63.6483917   0.4693080  21.5864716
  63.5589638   0.0763129  22.4546814  63.1151772   1.2632123  21.6268501
   9.8324518  33.8745880  45.6430130   9.3469248  33.2446632  45.1103859
  10.1917257  33.3540993  46.3615150  85.0013199  22.2773094  58.5694427
  84.9959717  21.9918003  57.6558304  85.5088043  23.0888844  58.5637856
  73.1891174  41.4268150  88.1764603  73.8073883  42.1069298  87.9092407
  73.5374451  41.0988007  89.0055008  41.5844383   1.2461108  29.0789585
  41.2355423   1.8631432  28.4357033  40.8088303   0.8674287  29.4928017
   3.8823452  37.2504845  56.1679840   3.7748921  36.8864822  55.2892418
   3.6564684  36.5291786  56.7552872   2.7390060  49.8535385  24.5151367
   2.1410949  49.1697464  24.2132015   3.2425356  49.4391327  25.2158203
  51.2787628  28.3195858   9.0906811  51.4321938  27.4582672   8.7023277
  51.0698509  28.1356144  10.0065098  48.8091354  45.9080582  29.1334896
  48.5296288  46.7166023  28.7041111  49.7620392  45.9818268  29.1860466
  79.2617188  12.6467094  21.2187023  79.1552658  13.5633039  21.4731674
  79.0497818  12.6310778  20.2853909  85.8204803  55.3426704   2.5429878
  85.0025330  54.8577538   2.4331846  86.0498276  55.6288071   1.6588174
  21.1396008  67.6386185  60.3604851  21.1601048  68.5280533  60.7136307
  20.2089062  67.4188156  60.3189201  77.1157532  41.2539673  48.2845726
  76.4710159  41.7142258  48.8218880  76.7266006  40.3935776  48.1279488
  51.8844109  30.5862198  84.1340332  52.3509674  31.3091164  83.7145386
  51.6885757  29.9806042  83.4191132  69.8940353  20.5091553   8.4388447
  70.1633224  19.8771801   9.1054201  70.7158890  20.8376064   8.0742874
  82.6462326  13.9486361  53.9970551  82.9529266  13.4500256  54.7543945
  83.3989792  13.9741879  53.4063301  48.2212715  66.4216461  10.0042267
  47.7107811  67.0896912   9.5466805  48.1433029  65.6421585   9.4541855
  14.4722233  11.7899380  28.1355915  14.7842712  11.1961012  28.8183899
  13.5282192  11.6361866  28.0975285  56.1334610  10.0357771   2.1159661
  56.5978928   9.4949989   2.7547886  55.4258995   9.4754562   1.7971652
   5.3448167  15.4816027  67.1529465   6.1157827  16.0061588  67.3690109
   5.6089978  14.5802708  67.3374481  47.2063942  59.7493248  73.4600754
  46.5946579  60.1254616  74.0929489  46.7104111  59.7089729  72.6423874
  79.4571991  33.0681534  42.1759758  80.1319733  33.1231003  41.4992981
  78.7915344  32.4895630  41.8040085  38.0926361  41.9093971  74.1559372
  37.8414764  41.9996033  75.0751801  38.5591545  41.0745392  74.1159210
  85.0003586  32.9548225  23.5748253  84.6306763  33.6903076  24.0633183
  84.3868256  32.8136024  22.8538094  80.9800720  11.8508549  42.4436188
  81.4282150  12.0316381  41.6173553  80.5606537  12.6795988  42.6749268
  54.2680244   5.2659612  23.8432617  54.8228683   5.4880242  23.0955544
  54.8386879   4.7624350  24.4238071  47.3229485  27.6337471  31.7175522
  46.7868919  28.2231598  32.2480927  47.5956650  28.1657143  30.9699764
  21.2940578  39.8907700  12.7810221  20.7306576  40.3441925  12.1539488
  22.0434570  39.5986404  12.2620878  82.8779602  67.5239868  42.9812355
  82.6269302  68.1864243  43.6249657  83.8251572  67.6265869  42.8888817
  26.6112118  45.4677353  66.5537338  25.6555939  45.4860344  66.5018539
  26.8593273  44.6537285  66.1154861  17.9056664   2.3488350  38.6804199
  17.6838398   3.2760947  38.7653542  18.7084846   2.3413882  38.1592102
  83.8070374  23.7470627  47.5092659  83.2312775  22.9855614  47.4396248
  83.7098083  24.0387363  48.4157448  82.3254547  35.2921371  85.8158951
  82.6746521  36.1053505  85.4512329  82.7432175  34.6006355  85.3025436
  31.1426716  70.1192322  20.5195141  31.6078033  69.4374619  21.0043640
  30.2368221  69.8120041  20.4836750  51.8930588  24.7629623  15.6648417
  52.6440010  24.3065872  16.0443630  52.1155777  24.8616180  14.7391071
  75.2653656  71.4352417  56.2705688  75.3827744  70.6710510  56.8348999
  75.1541824  71.0699692  55.3928185   7.3962994  22.4657841  38.5010948
   7.9492769  23.1309433  38.0912018   8.0033436  21.7674255  38.7460938
  81.2479248  67.1619110   8.1859417  80.7341232  66.5651321   7.6418014
  81.1211853  68.0214539   7.7842464  73.8657913  11.1407852  61.6274185
  74.3728180  11.3768282  60.8506012  73.1653290  11.7921705  61.6632843
  70.9644928  58.7464256  53.9016075  71.8060837  59.1523209  53.6937447
  71.1711807  58.0975266  54.5742493  49.2109489  60.5652199  19.6144199
  49.0644798  61.4959755  19.7831478  49.4670830  60.5262527  18.6929493
  23.1968842  47.8571434  74.6694565  22.8566399  48.3790627  73.9427719
  22.7306843  47.0236664  74.6046066  57.6835976  13.8756933  65.1525192
  58.5946388  14.0024157  64.8876038  57.4885864  14.6302633  65.7082367
  75.4109650  54.5603981   2.0413406  75.9374161  55.3569984   2.1085517
  74.8927765  54.5471649   2.8460343  22.0643826  45.6719093  63.0385628
  21.5030861  45.9350662  62.3092308  22.3807735  46.4967499  63.4070282
   6.0108824  57.6583099   6.8542886   5.7249808  57.3178635   6.0065928
   5.9773493  58.6096497   6.7539773   2.2962618  21.1608810  73.5207291
   1.5191391  20.8298759  73.0704575   1.9854015  21.9268475  74.0033188
  32.5860939  14.5682058  14.3883247  33.2714119  14.6035061  15.0556498
  32.3049812  15.4773865  14.2853689  29.0589962  51.0070992  63.8074379
  28.4847107  50.7530365  64.5298538  29.9315453  51.0496674  64.1986923
  85.9572449  52.3305435  13.5394936  86.5877914  51.9890060  12.9054623
  86.1055832  51.8100357  14.3289881  70.4464035  30.9817657  74.5957489
  70.9457550  30.2095814  74.8614807  70.7265701  31.6681919  75.2011948
  80.4303284  60.5146866  66.3423538  80.0171585  61.2526016  65.8940201
  80.5455780  59.8537331  65.6596451   6.6734896   0.5537618  56.0000267
   7.3652782   1.1210277  56.3404198   6.7384205  -0.2443073  56.5245247
  78.5629501  71.0064774  10.5372143  79.0399780  70.2325745  10.8368044
  77.7846756  71.0383530  11.0935440  17.6990280  40.3411140  18.6114616
  16.9886456  40.1859856  19.2339764  17.6486034  39.6046448  18.0021152
  34.8663788  32.3294334   9.5653715  35.6840744  32.3077660   9.0682411
  34.8295174  33.2147942   9.9273233  83.8031006  44.0207405   1.8235000
  83.4054565  44.0052185   2.6940582  83.5252762  44.8562965   1.4481448
  17.8223248  39.3761711  11.7307730  17.8499641  39.1474495  12.6598339
  18.5838108  39.9413223  11.6004868  25.6514053  40.1717339  83.0626297
  25.7631836  40.9028473  83.6702576  26.1221294  40.4415627  82.2740631
  33.0715675   9.0772467  84.9656677  33.1895561   8.9049950  85.8998184
  33.9555550   9.0355024  84.6008987  58.2742043  22.5752468  20.1793060
  58.0873985  23.3076477  19.5920048  58.2481766  21.8027821  19.6146355
  51.2288284  22.9871845   5.4900908  51.2358284  22.3037205   6.1602092
  50.6552048  23.6657677   5.8460608   6.9572830  44.8854790  51.6563759
   6.3104281  45.0201950  52.3489532   6.9465437  45.7017441  51.1565437
  64.3280334  21.1067467  29.2979069  64.6646500  20.6236572  30.0525913
  63.4445229  21.3692532  29.5562363  14.8042288   7.0062428  16.9441738
  14.8007498   6.8954878  15.9934092  15.5929136   7.5184097  17.1227589
   9.2552691  64.4025803  25.5060711   8.8708448  64.3124542  24.6341038
   8.5532351  64.7743683  26.0400715  49.7273178  39.9556999   8.7220993
  49.9049530  39.7818451   7.7977328  50.4154205  40.5658264   8.9875984
  85.2333298  29.9366455  13.4403620  85.6221390  29.4884033  12.6892681
  85.7551270  29.6468239  14.1886683  63.7448540  54.0048866   4.6281381
  64.2913666  53.2600365   4.8786454  64.3235550  54.7633858   4.7057323
   0.8373483  14.6101742  14.2622461   0.0130253  15.0816107  14.3825407
   1.2430495  15.0272017  13.5021629  46.5950775  34.0689545  84.0697250
  47.5448532  34.1394997  83.9739227  46.4452744  33.1527863  84.3030243
  45.1037331  39.4964981  87.5267487  45.1552238  40.4522858  87.5336838
  45.8271484  39.2217484  86.9633560  24.9051476  10.8281460  75.8429489
  24.2135048  11.4845285  75.7591400  24.7881889  10.2585382  75.0826187
  83.0790634  11.9466820  56.1206703  83.5054321  11.8151779  56.9675140
  83.2486420  11.1371574  55.6388588  35.7039528  50.9535904  38.6594391
  35.0877495  51.5718155  38.2666016  35.2244453  50.1258125  38.6924858
  84.5600204  67.7858810  79.5372086  85.3169327  67.7362595  80.1210251
  84.4341354  68.7228546  79.3873444  23.8691158  25.1007996   6.6208963
  23.3222637  24.8224850   5.8862357  23.7276154  24.4325390   7.2914462
  69.4910889  63.1921883  17.9583969  69.0537109  63.9832077  18.2733917
  70.4220581  63.3580246  18.1067963  43.7311859  47.3008270  14.2949772
  44.6188774  47.1941299  13.9531403  43.7415657  46.8429756  15.1355104
  45.1291161  55.9891624  79.3877029  45.9264946  56.5069008  79.2765274
  45.0268211  55.9075127  80.3359146  68.9533310   6.3161354  84.7554779
  69.3166428   5.7969460  85.4728928  68.2457275   5.7761331  84.4034576
  45.7799225  33.1638870  17.9353180  46.2888603  33.8940392  17.5830441
  46.2405586  32.9155006  18.7367840   8.1316748  37.4270020  68.5989609
   9.0001431  37.2439194  68.9573975   7.5853500  37.5921135  69.3674011
  30.1534653  57.6472397  56.4043999  30.1414185  57.8837318  57.3318481
  29.8601589  56.7362785  56.3856812  73.3167572  34.1380119  86.3635788
  72.4175491  33.9599571  86.6391754  73.2459106  34.3390465  85.4304123
  11.3214760  65.2682877  71.9154663  12.1799793  65.0230637  71.5704041
  10.7358065  64.5723419  71.6173325   3.6087155  66.0374069  29.4998646
   3.8350296  65.3755112  28.8464794   3.0340431  65.5807877  30.1142616
  61.5275536  51.9580269  29.3456211  62.1088905  51.3631744  28.8718853
  61.9077454  52.8254623  29.2068958  48.6300468  15.7729511  85.7853394
  48.4181633  16.6485920  86.1087494  49.3354721  15.4705687  86.3573303
  63.6155815  44.1642456  85.1883087  63.9908028  43.5958519  84.5157242
  63.4153976  43.5749207  85.9155350   8.9695129  39.4065819  48.0584030
   8.9658976  38.7904892  47.3258438   8.2371092  39.9962120  47.8790894
  69.5100098  38.3136330  14.4694309  69.1950836  37.6391945  13.8676167
  70.3359833  38.6094208  14.0866652  53.5287056  47.1223450  22.6251774
  53.6547890  46.2014084  22.3966942  54.2473907  47.3207474  23.2254810
   2.0057600   8.0352926   1.7159773   2.2785194   7.6914754   0.8653166
   2.2380133   7.3462310   2.3384595  80.3316422  18.0341053  30.9957371
  80.7746582  17.4172077  31.5783215  80.4019623  18.8778782  31.4422073
  29.0830116  46.8317833  31.2089939  28.8644695  47.6222801  30.7154522
  29.8233509  47.0894051  31.7583199  39.3725090  59.3348503  65.0644455
  38.6326675  59.7257156  64.5995941  40.0208817  59.1633301  64.3814926
  69.2042389  69.4928513  14.0636568  68.2513199  69.4431152  13.9880981
  69.3638153  70.2988052  14.5547771  11.7939005   1.7566411  59.2856140
  12.7117653   1.9681402  59.4559822  11.3048773   2.2906258  59.9116707
  27.7255688  55.3598518  31.3451023  27.9726868  55.9357109  32.0686684
  28.1226444  55.7620277  30.5725632   2.9218242  50.2752228  37.4612770
   3.0441039  49.9579697  36.5664978   2.2483039  49.7026939  37.8284492
  47.0318947  51.6294212  18.9070301  47.5137787  52.2705383  18.3845501
  46.4611969  52.1565056  19.4662418  67.9502335  56.5013733  24.6155071
  67.4481430  56.5025101  23.8005581  68.2457352  57.4062500  24.7160339
  30.5729599  47.0997963  13.8944263  31.2002239  47.7080841  13.5035830
  30.2447052  46.5868797  13.1559153  71.3369217  49.2500839  43.9039268
  71.8324127  49.3040619  43.0867310  71.9817810  49.4321327  44.5874863
  54.2663040  50.8481941  49.6637611  53.3360672  50.9795113  49.8471832
  54.4198112  51.3272514  48.8494072  62.0460777  49.7150154  59.1788216
  62.8870087  49.8766632  58.7511101  61.5824127  49.1281853  58.5814323
  80.4157486  69.8939209  76.1579895  80.7100296  68.9831619  76.1459427
  80.9703827  70.3161926  76.8139648   5.2201877  47.7747307   2.9146645
   4.2879305  47.7106628   2.7072434   5.3058000  47.3477402   3.7670627
  38.3992844  17.1488094   8.6646757  38.0151176  16.2907448   8.4847431
  38.7643509  17.4285793   7.8252192  52.6805954  27.5135632  13.6668472
  53.1431046  28.3412800  13.5356903  52.3829460  27.5469608  14.5759792
  71.7582932  29.4220314  48.4920311  71.8918839  28.5020123  48.7199516
  72.6071777  29.8342190  48.6524048  12.2711926  32.1456909  29.2163639
  12.8614960  32.5413704  28.5751038  12.8529615  31.7570038  29.8695850
  65.8650894  38.1353455  23.6419582  65.6767502  37.5085411  22.9434757
  65.8606949  38.9877243  23.2064571  57.1803970  13.0048313  39.8152199
  57.4580536  13.8365393  40.1991463  57.6281166  12.3388548  40.3370018
  43.0239143  30.5265465  60.5947533  43.5860176  29.9332600  61.0930290
  42.1331940  30.2655220  60.8286667  14.1194820  22.2907925  21.7262859
  15.0754299  22.2629738  21.6860065  13.8908577  23.1584282  21.3928680
   9.6448717  24.3905907  55.9147034  10.0705881  24.8586464  55.1964264
   9.8630629  23.4708748  55.7638855  74.6390076   2.8566821  37.7069359
  75.5211945   3.2249072  37.7557640  74.2843857   2.9666762  38.5891914
  43.2504997  56.6078835  89.0436554  43.7890015  56.2198639  88.3539505
  42.3612595  56.3126907  88.8478394  80.2570267  23.4658165   3.3857367
  79.4987183  23.4661198   2.8016119  80.2507401  24.3349056   3.7868283
  17.5832920  28.8266773  12.4090261  17.5135059  27.9555073  12.0186110
  17.2990265  29.4230309  11.7163601  35.7860336  69.7091599  37.3539467
  34.8643494  69.9088211  37.5178642  35.8234291  68.7529831  37.3302689
  43.8264084  46.6421585  72.4704361  44.0188141  47.3803329  73.0486298
  43.6635094  47.0428734  71.6165466  50.4542389  13.7100811  31.9315510
  51.0009499  13.6486149  31.1482506  49.8338737  14.4123554  31.7361393
  22.2310009  40.4304848  80.6751022  22.4597912  40.2921143  81.5942001
  21.3931160  39.9806061  80.5665054  19.1065350  47.2438660  22.4287643
  18.7365723  47.6694984  23.2021942  19.5790501  46.4868317  22.7749767
  56.7349167  34.3642273  68.1219635  56.9757195  34.1919823  67.2117004
  55.8355560  34.6884689  68.0745468  83.7569046  62.5899620  19.6749973
  83.9007568  61.9935532  18.9402618  84.5207748  63.1667557  19.6683788
  81.3079224  56.9439697  77.9504547  81.0259476  56.0676117  77.6883163
  80.7072296  57.1882477  78.6545334  57.6669579  23.5418968  42.2143364
  57.2556725  22.8661118  42.7532158  58.2615852  23.0605259  41.6390686
  17.6002045  52.8621979  57.9442711  17.2159214  52.6324692  57.0982323
  18.3750534  52.3046265  58.0147057  70.5789642  38.5948067  75.6164474
  70.0935974  39.1698532  76.2080307  71.4824677  38.9068489  75.6668701
  33.3447266  48.7662277  58.1196671  33.1918030  49.2906761  58.9056664
  34.2477722  48.9642029  57.8715858  13.0699844  69.0806885  23.0481014
  13.8609533  69.4625244  22.6675701  12.3502560  69.5138016  22.5891514
  36.1077614  60.1285057  17.6728897  36.5936699  60.0346298  16.8535557
  36.7548409  59.9543877  18.3564091  85.7382050  25.7632198   9.2157869
  85.4086609  25.7312164  10.1139011  85.8630753  24.8456135   8.9736357
  41.7200890  56.1264954  33.8310814  41.6899605  55.6148148  34.6394806
  41.0639153  56.8119469  33.9568901  43.8483582  40.8549728   6.8345056
  42.9703369  41.1620560   7.0603490  44.3666992  41.0096741   7.6242046
  60.1869202  60.6002045  63.0205879  61.1063766  60.8162270  62.8651390
  60.1570587  60.3254967  63.9370346  43.4944191  64.2142639  82.0886230
  42.9655571  63.4346848  82.2583084  44.3844872  63.8802414  81.9770660
  28.1182251   1.5751107  45.4088249  29.0746040   1.5947223  45.3743896
  27.8531570   2.4746714  45.2170944  41.3690262  56.0301628   5.2511835
  41.1000519  55.7712440   4.3697939  41.4152145  55.2077637   5.7387881
  42.9017029  61.3667374  68.6243362  43.6969528  61.4834213  69.1441345
  42.2074738  61.7521553  69.1588745  31.6536045   1.4850018  49.9283752
  32.4628830   1.8615493  50.2740784  31.5391197   1.9049006  49.0758438
  20.9449940   5.1242433  48.8443756  20.1798725   4.6772714  48.4823837
  20.9628353   4.8613558  49.7645950  39.8763962   5.6479812  74.6299057
  40.4969139   6.0422421  74.0169220  39.9668922   4.7054949  74.4893341
   6.6170282  31.7841129  34.5490189   6.5026174  32.2022896  35.4024048
   6.5448017  30.8469410  34.7299194  80.9380722  40.5710182   1.8414208
  80.6446381  39.8791733   1.2485688  81.8710327  40.6695480   1.6513709
  86.6037064  41.3969383  24.6469975  85.7871933  40.9438019  24.4367428
  86.5772247  41.5097313  25.5971584  50.1236267  50.1410599  65.0952301
  49.7761841  50.4968300  64.2773438  49.6453514  49.3217087  65.2223053
  79.9268570  15.8318405   4.2214656  80.6829681  15.6253090   4.7709017
  79.5397491  16.6069946   4.6283002  84.2067947  57.2377701  62.3113403
  85.1009064  56.9574966  62.5069046  83.9606400  56.7306862  61.5377045
  53.3064117  10.5657024   5.4826827  53.3439941   9.7664452   4.9573183
  52.4659462  10.5138493   5.9378300  13.4136829  56.9084015  55.6562843
  13.2616758  57.2235985  54.7653389  14.2059088  56.3753014  55.5898438
  72.0156021  69.3046799  44.3686752  71.1726837  68.8896027  44.1857948
  72.6195526  68.9067917  43.7416534   4.9150667  58.0500488  75.5749893
   4.3412471  58.5014420  76.1940308   4.7898040  58.5163689  74.7485046
  66.0381470  26.5256271  80.9010239  66.0461960  26.1827736  81.7946777
  66.6625137  27.2509785  80.9171371   8.9716778  57.1719017  61.7231674
   8.0900698  57.0131035  61.3858528   9.5283861  56.5673561  61.2324257
   6.5435395  51.3335381  29.2065315   5.6394358  51.6462364  29.1741562
   7.0538483  52.1022072  29.4614048  31.9023895  31.9880676  -0.0110744
  32.0836372  31.1089115   0.3212854  32.2836685  32.5744743   0.6423649
  14.9333878  27.1710758  25.6519279  15.7982588  27.5794315  25.6903419
  15.1020374  26.2817402  25.3406849  25.8037109  65.4299545  79.6082611
  26.5173302  65.6527481  80.2060394  25.0075493  65.6271515  80.1016922
  78.6322479  26.5155811  17.5760555  78.9963913  26.1959457  18.4015636
  78.3275223  25.7268772  17.1273708  72.8234024  40.9740257  24.7082233
  72.4570236  40.8584747  23.8314972  72.2014389  41.5491943  25.1538315
  42.4536705  13.7755880  15.7294827  42.4720573  14.7188406  15.8912477
  43.3746834  13.5148849  15.7277174  47.8841934   2.1682546  17.2383099
  48.6004868   2.7682252  17.4461327  47.9594994   1.4706867  17.8894310
  57.7249489  71.1232605  44.0829010  57.8176193  71.1785126  45.0340004
  56.9656906  71.6711655  43.8840027  67.8082428  11.1409893  46.7931366
  68.3941040  10.6083727  46.2552490  67.8868179  12.0235596  46.4310226
  85.2002182  18.8097076  85.6372528  84.4783478  18.7725067  85.0097656
  84.8738861  18.3416348  86.4057922  48.3859787  65.5814056  63.8994751
  49.1074409  65.2025986  64.4016953  48.8111420  66.0167694  63.1606026
  80.6094131  69.0815887  49.6962929  81.3477325  68.5483322  49.9908524
  79.8391953  68.6481628  50.0638962  79.6328049  57.3133659  74.4779739
  80.2721329  56.6335373  74.2650757  78.8472061  56.8310661  74.7357712
  29.8329334   5.5532937  24.0546455  29.5831738   6.2415285  24.6712360
  29.6602688   5.9303966  23.1919670  28.1119938  54.8625641  80.3274841
  28.7040749  54.5753479  81.0225906  28.5740700  54.6505203  79.5164642
  34.4993134  62.6551743  67.5055923  35.3345642  62.2969666  67.2051315
  34.6393471  62.8433037  68.4336166  41.1534309  67.5571747  41.8379440
  40.5434799  66.8205338  41.8773499  40.6751060  68.2392426  41.3665428
  15.2125950  70.8039780  72.0053177  14.3632393  70.4154739  72.2148132
  15.0015697  71.5600433  71.4575272  27.2542572  43.8799477  13.8545017
  27.1290112  42.9831276  13.5442410  27.1624527  43.8194466  14.8053656
   5.5914626  41.0595627  83.1346054   5.6496229  40.6955719  82.2512283
   5.4099493  40.3039818  83.6935196  26.1366844   9.5006418  54.2143707
  26.4405308   9.8234272  55.0627327  26.5065842  10.1131706  53.5785942
  66.7333298   0.3379809  50.5599060  66.8603973   1.2296081  50.2357330
  66.0905533   0.4282319  51.2634125  82.5354919  44.4327850  67.1280060
  82.5439911  44.0856895  66.2359924  81.6783829  44.1837196  67.4737701
  37.6152878  59.6381264  33.6085091  38.3358002  59.0591049  33.3598557
  37.3930740  60.1037827  32.8022728  57.1007576  51.7734985  69.4611816
  56.9047508  51.6542358  68.5318909  58.0171165  51.5109520  69.5483017
  38.7999763  39.3634262  80.2017746  38.2122421  39.3878670  79.4466553
  38.4006500  38.7277145  80.7956161  52.6375961  13.7007675  29.5703411
  53.5368538  13.8929644  29.3045769  52.1574783  14.5097380  29.3934669
  82.5059204   5.7418590  10.3782768  81.8133621   5.0816460  10.3516760
  83.0180969   5.5205021  11.1560364  43.8922386  61.2143555  52.8959351
  44.3271484  61.9740562  53.2831612  44.3355064  61.0862846  52.0572815
  81.0928040   7.4594464   4.8342404  81.7163239   6.9487453   4.3178654
  80.4358444   7.7472157   4.2003431  39.3113747   7.5917554   1.3737154
  39.1733131   7.1695280   0.5258388  39.2591667   6.8771834   2.0084543
  19.0958195  70.8410339  32.1639938  18.9164047  71.5744553  31.5756569
  19.3670311  71.2528992  32.9843864  64.7317200  18.0369358  45.8758659
  64.7385712  17.2225342  45.3729362  63.8844376  18.4348431  45.6758347
  68.0626450  46.3726082   1.2060814  67.9464188  45.4379883   1.3769797
  68.8743210  46.4246902   0.7014063  39.5084648   6.4705110   4.4367681
  39.2275925   7.1179304   5.0834446  40.3836021   6.7570391   4.1754889
  69.3410645  57.9413948  74.3579636  68.6822662  57.2474556  74.3320847
  69.0992508  58.5280647  73.6413193  54.0408821  57.1392975  34.2398987
  53.8170586  56.7818794  33.3806038  53.1971092  57.3574181  34.6357536
  47.6376305  56.4142952   6.4333525  46.8283577  56.0127983   6.7497568
  47.5081177  57.3529930   6.5686603  23.2430267  56.7769203  29.7082558
  22.3791504  57.0319138  30.0321808  23.0602837  56.2207794  28.9509315
  35.8918266  54.7510834  67.4310150  35.8493195  55.4493141  66.7776489
  35.3420525  54.0541458  67.0728836  44.0364342  55.4589081  32.4168892
  44.6214676  54.8953438  32.9232140  43.2223091  55.4726906  32.9201202
  59.7857628  55.6388588  23.7873955  60.1455383  55.6520081  24.6743107
  59.0938225  54.9782295  23.8193855  55.1470566  54.7404556   5.9744577
  55.9486504  55.2281876   5.7852659  55.4252357  53.8250809   6.0050745
  29.4257507  23.1704407  87.1142502  29.7665710  24.0366154  86.8910599
  28.5528049  23.3404541  87.4682236  60.9739151  43.6672058  18.6581535
  60.3319092  43.0911560  19.0731564  61.5307198  43.9633865  19.3782101
  15.2660398  24.4255600  79.6101303  14.7083788  24.7511597  78.9035721
  15.2243872  25.1066971  80.2813644  84.1747208  32.3905334  13.3168592
  83.9803238  32.4941597  12.3853521  84.4514465  31.4783382  13.4037504
  62.7251740  21.7580261  64.3593674  63.2742119  21.4160919  65.0649643
  61.8418198  21.4611301  64.5779266  40.9481964  46.1382523  14.1426773
  41.8971939  46.0466080  14.0575733  40.7127800  46.8030777  13.4955168
  84.2190857  51.3069572  17.4838562  84.2672882  52.2629433  17.4825439
  85.0439453  51.0260887  17.8800182  45.2448540  69.9748840  70.4076157
  45.0759697  70.7840347  70.8902893  44.5920944  69.3579178  70.7385178
  60.8818436  40.6687737  79.0111847  61.4232063  40.2463608  78.3443069
  60.0472755  40.2015419  78.9734268  63.2158890  49.3940277  31.3210506
  63.1247826  48.8868370  30.5143986  63.9389992  49.9960098  31.1450882
  53.5454750   1.2102935  62.9749680  52.8342781   0.8879269  63.5285988
  54.3432884   0.9739367  63.4481125   6.3884721  19.1640530   5.0954952
   5.8805237  19.8117580   4.6069264   6.0725188  18.3196907   4.7738457
  33.0507126   5.1404238  54.5283661  33.7645950   4.8363972  53.9678574
  32.2843285   5.1520467  53.9549980  64.3150482  22.8362255  11.0415678
  64.4903488  22.0956631  11.6221447  63.9571762  22.4387493  10.2477350
  20.5784607  15.4419298   4.9925179  21.2826252  15.1859169   5.5882039
  21.0299435  15.7874231   4.2224340  10.5094967   3.1343384  53.0493813
  10.4639769   3.7212892  52.2946320  10.8317862   2.3074820  52.6906776
  61.1961060  12.3329077  86.4464340  61.3019676  13.1884890  86.8623734
  60.3729668  11.9951830  86.7994461   5.7162838  23.4233513  73.4541092
   6.5160542  23.5973473  72.9577942   5.6927543  22.4706841  73.5441360
  24.7957840  60.8589211  29.5119934  25.2175064  60.0202675  29.6991978
  25.0621853  61.0663147  28.6163101  56.9319458  34.7099800  50.9182510
  56.8585243  33.9728737  50.3120232  56.6674995  35.4716492  50.4023438
  75.5654755   3.4256821  86.1467896  75.5734787   3.8323331  87.0132751
  76.4272308   3.6248043  85.7807846  34.3674736  18.4547558  31.0995598
  34.7099953  19.2067184  30.6163769  34.2568436  18.7754097  31.9946423
  85.9363937  41.0835609  61.9220314  86.2363052  41.2576065  61.0298462
  85.0631561  40.7072792  61.8120499  66.1845779  44.4060974  35.6591377
  65.3574982  44.4175797  36.1408463  66.5286026  45.2944183  35.7527161
  61.5878448  24.2891331  38.5127449  61.2654648  23.4872417  38.1013184
  60.8388863  24.8849506  38.4955559  86.6585693  10.3213787   7.9212823
  86.3961487  11.0411406   7.3474264  85.9954224   9.6462955   7.7773180
  76.7922287  16.8501778  20.1304855  76.5734100  17.2284889  20.9820900
  76.2483215  17.3320694  19.5074463  12.8830147  52.6427040  60.6898460
  12.6408625  53.5490303  60.8800125  13.2455359  52.6723824  59.8044472
  11.8337879   8.9286232  57.4041443  11.8547935   9.1527843  56.4738007
  11.7402945   9.7698584  57.8511505  49.9930878  30.8351326  14.1596813
  50.0109978  30.3813210  15.0022764  49.3441010  31.5291805  14.2751913
  18.2525024  63.5948410  71.3387070  19.1861229  63.4899902  71.5219803
  18.2217274  63.9660759  70.4569626   7.3816686  40.3879089  69.8885117
   8.2790527  40.0712929  69.7851334   7.4503932  41.0986481  70.5259781
  20.2876701  66.3540497  47.4840851  21.0458012  66.6968918  47.0108681
  19.5602646  66.9109650  47.2066727  50.7069664  64.3676529  12.7321129
  50.5628700  64.0525208  13.6243896  51.6163521  64.1380844  12.5409536
  13.4510822  52.9862099   1.9101689  14.0860662  52.2910233   1.7377056
  13.9314003  53.7966957   1.7409447  22.5745907  12.3567905  28.2940712
  22.1339340  13.1505175  27.9906712  23.5074711  12.5518618  28.2051258
   1.1549505  19.6252594  41.7949486   1.3458369  19.8269958  40.8789253
   2.0148072  19.5045853  42.1978340   2.3181784  30.3105316  86.9776993
   2.3816590  29.6298218  87.6476517   2.9962881  30.9433479  87.2142181
  46.4918518   1.8679962  81.4997406  45.5735092   2.0713778  81.3222122
  46.5141945   0.9147264  81.5834656  42.5309792  55.3283730  49.6049957
  41.5882149  55.4931870  49.6214066  42.6816292  54.8820572  48.7717285
  83.5322876  50.2029762  55.4250145  83.9533234  50.6770973  56.1420708
  83.8742523  49.3115997  55.4938774   9.4484844  41.4076767  54.4704933
   9.2388477  41.6209412  55.3797798  10.4041834  41.3580246  54.4503441
   1.8159127  51.0222626  87.9069443   2.3655472  51.8058510  87.8960037
   2.0551372  50.5507393  87.1090317  28.6875648  17.4775009  80.7547379
  28.8577023  17.4128342  81.6944733  29.5274353  17.7380714  80.3766479
  54.9352417  14.7873077  28.1974792  54.9669952  14.8248892  27.2415447
  55.6664963  14.2189360  28.4392529  24.0878220  60.7864723  72.9388123
  23.2915211  60.2647552  72.8390808  24.8011112  60.1652832  72.7919312
  51.2013702  63.5144272  70.6767578  50.5555153  63.0415115  71.2015991
  51.9366341  63.6566658  71.2728958  23.2972927  20.3576317  57.3532524
  23.3181915  20.3338642  56.3965759  22.6864891  21.0644417  57.5619926
  51.2678604  36.6516838  41.8607254  51.0854568  37.5851173  41.9687233
  50.5507851  36.3291092  41.3148499   3.5089486  22.6659794  54.5916748
   3.2290509  23.5720596  54.7216988   3.0683770  22.3923035  53.7871666
  48.9995270   3.5318613   1.0652676  48.1456184   3.4381425   0.6430225
  48.9189949   4.3250136   1.5950372  27.7858620  69.6636658  84.1778641
  28.5960960  70.0826035  84.4681168  27.7165527  68.8763504  84.7178345
  35.2009888  62.1627350  55.6203918  34.5070496  62.2207184  54.9636421
  34.7498779  61.9009819  56.4230232  64.5119934   6.9992867  58.7120667
  65.4613800   6.9337740  58.8150940  64.3858948   7.2200942  57.7892609
  48.8448753  51.6066322  75.6263123  48.6021919  52.5305443  75.5653076
  49.8016739  51.6116180  75.6536713  46.7468033  44.5566101  83.0675507
  46.5591316  44.3562889  83.9845428  46.6725807  43.7145920  82.6184006
  37.3534508  70.1378479  29.1732616  36.4517403  70.4283524  29.3102112
  37.2700577  69.2364807  28.8621140  30.3347073  48.1894264  44.7897797
  29.8846588  48.5469704  45.5551910  31.1980724  48.6024666  44.8049545
  13.9524078  43.6178436  81.5305939  14.6881237  43.2425423  82.0144348
  13.2624826  42.9573288  81.5934982  13.4626980   2.6738820  68.0299530
  13.8842649   1.8248813  68.1630325  13.8698454   3.0217173  67.2365570
  24.0432968  63.4556427  17.6519718  24.7096176  62.7889481  17.4853306
  23.4131870  63.0253067  18.2299023   1.9602752  24.9034653  30.2602463
   2.4211237  24.3268833  29.6508179   1.0608478  24.5760098  30.2660980
  56.0202065  49.8534012  46.2801895  56.0189476  50.3318863  45.4511642
  55.4664307  50.3766975  46.8596039   7.7637048  44.7335281  27.5807037
   7.5454497  44.0213470  28.1818638   8.2627296  44.3119469  26.8810787
  11.2507429   2.5844378   1.9141555  10.4243364   2.5130999   1.4364582
  11.8906498   2.1472666   1.3523438  43.6128845  44.2668076  31.3687057
  42.8642426  44.3749008  30.7821217  43.8981361  45.1602440  31.5601215
  43.5864143   0.5077612  26.6104774  43.5197563   0.2775460  27.5371857
  43.5469704   1.4640644  26.5978146  84.4554291   5.8058200  77.7634125
  84.1403732   4.9904160  78.1533966  84.9502335   6.2308426  78.4639511
  79.9061050  49.2579269  86.1189117  79.1660004  49.4469757  85.5420761
  79.8675690  49.9400330  86.7893448  55.7607841  64.1067200  70.4361572
  55.6644096  64.0129089  69.4884491  56.7043915  64.0525055  70.5874786
   6.0444980  54.5913048  61.3781357   5.4266372  54.1261101  61.9421158
   5.8941712  55.5168686  61.5703888  66.3808975   5.9363470  28.7630253
  67.0745544   6.5488052  28.5181255  66.3864517   5.2779264  28.0682716
  75.2442856  33.1844711  77.4056244  75.2933884  33.7328186  76.6225967
  76.0858383  33.3150406  77.8426208  29.2110348  44.7989502  27.7703915
  28.2550678  44.7509270  27.7629261  29.4962063  43.9478569  27.4379005
   3.3936374  68.7248993  87.4985275   3.8859603  68.2956161  88.1982193
   3.1952162  68.0223312  86.8794403  50.5370903  45.4649811   1.8944438
  49.6507645  45.5185509   1.5369660  50.9952164  46.2134018   1.5120618
  75.7956848   2.1139958  65.7848358  75.0867004   2.3480227  65.1858368
  75.3545151   1.9056411  66.6083527  56.6541634  70.5846558   8.7101183
  57.0855103  70.8654938   7.9030852  55.7324791  70.8072510   8.5790319
  33.3517342  40.1563606  32.9588318  34.1797409  40.6309357  32.8852158
  32.8188591  40.6938934  33.5447807  33.4239464  70.1145859   7.8575339
  33.2323227  70.3988419   6.9638300  33.6746140  69.1951523   7.7678695
  70.3148193   6.2606049  30.2036972  71.1740189   6.6334372  30.4011974
  70.5081100   5.4465809  29.7386856  10.0633020  10.1079702  89.0009995
   9.7120571  10.1718206  88.1128693  10.0173531   9.1750498  89.2102432
  36.3073463  63.5518265  58.4806061  36.5454254  63.3166046  57.5838203
  37.1450386  63.6946297  58.9211845  12.3728857  13.1510630  19.8442078
  12.9678669  13.8994741  19.8901329  12.9484119  12.3937826  19.7368431
  83.9886398  43.9879532  34.8090363  84.9257965  44.1287308  34.9437408
  83.8530655  43.0633965  35.0165100  70.0322800  25.7410355  76.5250778
  69.6881256  25.6999073  77.4173203  70.1761932  24.8266029  76.2814865
  62.4436722  30.5255547  71.9822693  62.0742416  30.7784328  72.8283157
  61.8821793  30.9559097  71.3374786   2.3827922  54.7249870  42.6128082
   2.0297384  54.8960571  43.4859161   1.9205277  53.9407578  42.3169594
  29.4258862  24.3805122  10.0693169  29.7702312  24.3000221  10.9587994
  29.0825863  23.5104923   9.8657427  14.7416544  40.1536331  64.8722076
  15.5710764  40.6231270  64.7835312  14.8852577  39.5491676  65.6003799
  24.3158302  36.2185135  33.4757729  24.2926598  36.7747116  34.2544479
  23.5515385  35.6492271  33.5652390  25.8880157  40.4716988  32.6176453
  26.2980576  40.6212921  31.7657566  26.4885311  39.8808327  33.0720558
  64.2980957  38.3577652  85.6327057  64.7361755  38.1164894  86.4488602
  63.6762161  37.6472740  85.4755554  85.2534866  54.2838554  38.0208664
  85.3489304  53.3349724  38.1029854  85.9994202  54.5541534  37.4853706
  54.1972580  19.0639477  31.5456848  54.5546951  18.2360897  31.2245579
  53.5352249  19.3062038  30.8981876   8.8621044  11.6598244  63.5724182
   9.6287012  11.0877752  63.5360832   9.1588163  12.4828806  63.1841278
  43.5563889   8.8808937  35.3429794  44.2664719   8.8213310  35.9820900
  42.8124428   9.2178431  35.8422241  63.4433899  29.3220310  86.2494431
  63.9326668  28.7435417  86.8344116  63.6378746  28.9947586  85.3712082
  65.9471359  31.8523731  66.3992004  65.8768311  30.9018211  66.4871902
  65.8989258  32.1802483  67.2972031  74.0702286  69.7775650  25.4267406
  73.3488159  70.3240891  25.1151066  73.7230911  69.3445587  26.2066364
   1.3553966   0.9530344  44.7091446   2.0215633   1.4327466  44.2168732
   1.8539537   0.3651674  45.2766685  49.9862900  56.8423042   0.8624383
  49.6053581  57.4355202   0.2149706  49.7705383  57.2386436   1.7065935
  65.2306061  52.7779732  33.8187828  65.4945908  52.5428314  32.9292603
  65.4618683  52.0140190  34.3470993  15.3405924  43.8040619  72.7831116
  15.1544704  44.3643570  73.5365448  14.5496464  43.8539734  72.2463150
  72.6951447  66.5006866  68.3384781  72.9107285  67.1378784  69.0194626
  71.8308411  66.7677155  68.0255737  83.5997009   9.9933920  59.6117401
  83.4030991   9.3830128  60.3223877  84.4732208   9.7401733  59.3133011
  48.0992966  28.0804195  21.8619270  47.9374619  27.1922855  21.5437126
  48.4061165  27.9606323  22.7606735  15.7749901  15.5351753  87.5598145
  16.4997272  15.6348753  88.1771011  15.3926525  14.6843719  87.7747192
  11.7726555  58.1613770  81.0826035  11.3813639  57.4191284  80.6219635
  12.7116194  57.9754181  81.0823364  35.5824699  67.5999756  42.4361687
  35.5662994  67.0445099  41.6567917  35.3533745  68.4716644  42.1138268
  51.0939980  52.5501823  13.6178427  50.8697624  51.6436806  13.4075947
  51.6471519  52.4856949  14.3963604  66.6397705  37.5468330   9.4730949
  66.3347473  37.8533096   8.6191244  65.9633408  36.9350586   9.7636127
  58.0690994   9.4325886  36.4188919  57.2091866   9.0169172  36.3556900
  57.9256287  10.3276720  36.1115265  32.2805214  58.7986183  82.4110336
  32.3408890  59.2543793  81.5714722  31.3502331  58.5943832  82.5063477
  71.4132767  67.9660797  54.0636292  70.8084641  67.2389145  54.2108116
  71.6537018  67.8944168  53.1398926   6.3600368  62.7176437  73.5362396
   6.4566751  63.5868378  73.9253311   6.5023837  62.8571510  72.6000137
  77.2108917   1.2322836  31.5904446  77.0674133   1.7891726  32.3556366
  78.1400375   1.3395798  31.3869686  43.0755959  54.7431946  86.8314819
  43.7019119  55.1366386  86.2238922  42.2357101  54.7925339  86.3749924
  47.6278038  44.6131668  58.5351372  47.1182213  44.3036652  59.2839813
  47.8417397  43.8185844  58.0461578   4.7424397  26.5720520  10.7372980
   5.4813409  25.9965897  10.5395603   4.0569749  26.2999744  10.1270981
  86.5077820  45.4428787  79.8577271  87.0693283  44.7838516  79.4495850
  85.6352844  45.2647285  79.5066757  36.6133537  61.8719330  38.1661720
  35.9253769  61.2103500  38.0939064  37.1640167  61.7299385  37.3962135
  52.5960197  64.4980011  68.4392548  53.0679512  65.3265839  68.5227356
  52.0735092  64.4383392  69.2390366   5.1173921   6.1107674   4.2205086
   5.3557835   6.2031302   5.1429348   5.8628855   5.6595039   3.8244879
  83.8385239  68.9004059   4.1610909  84.0016632  69.6205063   4.7702475
  84.4144440  69.0801926   3.4179688  46.8615875  28.3746777  19.2586823
  47.4579582  28.2657070  19.9994259  46.6684761  29.3120556  19.2425518
  21.1011143  34.1172028   5.3102064  20.7690964  33.2407074   5.5045056
  21.6420269  34.0007210   4.5291319  36.6502113  59.4579124  67.2141800
  36.8499680  58.9017601  66.4611664  36.8310890  60.3472214  66.9097977
  43.8738785   1.8651595  66.2400818  44.1420364   1.0411042  65.8335648
  43.9877586   1.7172929  67.1789093  52.7567139  65.3182678  23.4913673
  52.6099243  66.2110443  23.1789017  52.8718262  65.4113770  24.4370480
  86.5275726  19.7198200  23.8981037  86.1290054  20.2717056  24.5710106
  87.2221832  20.2619648  23.5241795  11.1143427  66.0992584  39.8549843
  10.4474297  65.4274216  39.9967422  10.6240101  66.8631363  39.5511894
  41.7101364  37.9211082  12.1009750  41.3005905  37.0759621  12.2859888
  42.2292786  37.7679787  11.3114967  78.7262115  47.7026558  56.2464905
  79.1482544  48.3456573  55.6767006  77.8854141  48.0995712  56.4739838
  84.3503113   1.6602769  19.0968952  83.4764023   1.4249709  19.4085636
  84.5729675   0.9741992  18.4676456  28.2927933  38.8022156  18.9854698
  29.0066509  39.1469193  18.4489803  28.5038013  39.0850029  19.8752670
  11.1413240   6.3646646  10.6839561  10.8158607   7.2614002  10.6054001
  12.0805798   6.4349580  10.5134001  44.7389565   8.5266027  56.3540001
  45.0058556   8.6988010  57.2569656  44.6117020   7.5785642  56.3185120
  42.9688759  39.6649590  20.2934380  43.9185829  39.7762680  20.3370361
  42.7351646  39.2702866  21.1335850  15.8642788  49.9248886  53.4965477
  15.9801979  50.3445740  52.6441040  15.0743856  49.3935776  53.3964958
  40.5428276  51.1285667  44.1463127  40.1964951  50.7440910  43.3410378
  40.3833961  52.0675964  44.0512428  42.3171082  22.0110207  19.3439713
  42.0756760  22.9211864  19.1720924  42.9591522  21.8013535  18.6657028
  50.7533073  19.0549259  23.8179073  50.7287674  19.3360615  24.7325630
  49.9599342  18.5310078  23.7070026  66.6909561  60.4639091  14.8058634
  66.7729645  59.5341415  14.5936384  66.1656570  60.8269196  14.0927591
  78.9485855   3.2794731  48.6876068  79.6003418   2.5843101  48.5970879
  78.2619858   2.8946087  49.2322960  21.8953819  37.6535149  28.1626606
  21.2020836  37.8753471  27.5410805  21.4830551  37.7397728  29.0221825
   9.5223818  64.0392609  69.9309692   9.5948191  63.4081993  69.2149124
   9.5186234  64.8930817  69.4982986  48.9142876  55.8756599  46.2867928
  48.9640007  55.9516106  47.2396774  48.6334381  56.7418823  45.9918098
  75.6897125  26.8579597  81.5447922  75.0193253  27.4967022  81.3022614
  75.2097778  26.0371208  81.6548691  11.6396351  34.9201775  23.6114826
  10.7461996  35.2197456  23.4433632  11.7351236  34.9733315  24.5624237
  31.8697491   7.4118590  35.8984375  31.3553753   7.7415824  36.6352806
  32.6063805   6.9559345  36.3055458  70.8302078  10.1174507  53.1604500
  71.2840118  10.1470566  54.0027199  69.9353256  10.3918715  53.3607597
  24.9301090  63.8466263  64.4695587  25.6430492  64.1078949  63.8867378
  25.1268978  62.9376984  64.6961899  30.3869057  12.2501297  75.7835922
  31.1288700  11.9279432  75.2718201  30.4183407  13.2010241  75.6785049
  20.1760445  51.4447708  40.5090256  20.5550022  50.7390823  39.9849777
  20.5901089  52.2403450  40.1745987  70.0473175  45.5356140  84.7929840
  69.7002182  45.0611458  85.5483856  69.8853531  44.9543190  84.0499573
  73.2597961  22.5904827  63.9331093  73.4814224  23.1262226  64.6947479
  73.1955338  21.6996613  64.2774048  35.1356850  49.5561867   6.1435752
  34.1995621  49.6722794   5.9810061  35.5627251  49.9922485   5.4062023
  45.3985100  50.0437202  20.7837582  45.2142105  50.7915840  21.3520603
  45.5871048  50.4326363  19.9297066   9.3825588   4.6048455  82.5132294
   9.3189116   5.4313087  82.0345383   9.9175024   4.8123970  83.2793808
  57.6683121  48.2356911  84.4117432  56.9756546  47.6090355  84.2025528
  57.2183952  48.9462814  84.8687668  79.8484116  45.2627563  74.2986069
  80.5934906  45.6465378  74.7609863  79.0812912  45.6705437  74.7004395
  75.3043747  13.9923248  75.1933212  75.4624023  14.2131586  74.2754440
  76.0397263  13.4288607  75.4341354  71.1020432   9.8647089  56.0784149
  70.3270721   9.4516315  56.4592285  71.8232193   9.2789192  56.3085899
  83.0787582  38.3532372  29.4028301  83.9786682  38.0445671  29.2973881
  82.5406189  37.6535263  29.0326347  24.4013557  53.2529373  45.7188492
  24.9513645  52.4860420  45.5588799  24.7162743  53.9077263  45.0957031
  65.0940857  61.2196617  40.2449532  64.7634430  61.5595474  39.4134560
  65.3524628  60.3189049  40.0497322  68.5275650   8.2741795  30.4659557
  68.7985153   7.4539247  30.0536423  69.3187714   8.5989790  30.8957634
  34.2533035  52.7410736  24.8052540  33.6747856  53.4582329  24.5459728
  34.5291672  52.3450699  23.9786263  84.0210342  40.0816917  33.4032097
  84.8704071  40.3332443  33.0405579  84.1784439  39.2318420  33.8145599
   4.7796097  35.9064522  74.7465363   4.6465693  34.9629097  74.8374252
   5.4542484  36.1165085  75.3922729  14.0825291  34.9250793  33.7850380
  13.4747648  34.7383194  33.0695152  14.9285870  34.6072388  33.4697685
  73.8593521  55.2440948  23.5038548  73.4937057  54.7976265  24.2675304
  74.4693832  55.8843994  23.8700695  63.1636543  53.6682320  87.7035675
  62.2091866  53.6237411  87.6465759  63.3946152  53.0173569  88.3663330
  78.0516357  62.7922173  60.7425041  78.4103394  62.9709740  61.6117630
  78.4809036  61.9818115  60.4682770   1.0783418  27.6167622  81.5707321
   0.3016740  27.3404999  82.0572433   1.0993818  28.5682125  81.6733551
   8.5071487  59.8143501  56.1346664   8.6980181  59.3959160  55.2951927
   9.1809425  60.4881859  56.2250938   5.2950425  31.4808006   2.4918392
   4.9174075  30.6806755   2.8571126   4.5571775  31.9247913   2.0739164
  13.4715672  51.6714745  57.7178459  13.1150703  51.4104843  56.8687134
  13.2794743  50.9328117  58.2955208  73.3352280  10.3676910  10.2757454
  74.2186127  10.4888706   9.9276371  72.7945557  10.9784708   9.7748966
  50.3847427   0.2540912   2.8645995  51.1746864   0.7510816   3.0772531
  49.9173546   0.1796843   3.6966107  32.6526489  19.0719757   5.0511923
  31.8063583  19.4577942   5.2774000  33.2394485  19.8219299   4.9539142
  28.0107117   7.0717702  36.6630936  27.8078365   8.0056210  36.6083488
  27.9854584   6.8756866  37.5996513  19.8631325  11.9743118  85.8045120
  20.5084152  11.6042871  85.2020798  19.0786762  11.4421291  85.6716919
  56.2655754  14.5461655  73.0072021  56.0099144  15.0341120  73.7900085
  55.8369255  13.6958418  73.1043701  70.0023956   9.3338642  42.2433281
  69.6742477   8.6134129  41.7052765  69.9627380  10.0988312  41.6693230
  62.3114624  10.7568560  68.9753342  63.0564575  10.6572361  69.5680313
  62.4364700  11.6177940  68.5760956  60.5540314  47.7760239  48.9441376
  59.6200066  47.9751511  48.8795128  60.6117516  46.8374290  48.7654190
  54.1642075  52.8290367  62.9388390  53.3217583  52.4009590  62.7863045
  54.1287613  53.6239395  62.4067612  11.5543690  12.1059380  47.4795685
  10.6628580  12.2208300  47.1505699  11.4622602  11.4991360  48.2140999
   2.0882728  30.7987785  64.4010544   2.9875216  31.0872612  64.5571289
   2.1702619  29.8735104  64.1699829   0.7107676  17.0962238  85.3623352
  -0.0162379  17.7186947  85.3772888   0.7931649  16.8023643  86.2695770
  19.1343937  24.2449570  77.6686554  19.6004219  24.5206795  76.8793335
  18.2641525  23.9951096  77.3580246  43.3069878  56.2572517  72.2885818
  42.5879974  56.3748474  72.9094315  43.0421715  55.5083504  71.7544937
  21.6259766   9.0159016  39.9694138  21.9180298   9.5661764  39.2426834
  21.4467773   9.6322165  40.6795349  38.0355148  64.0521927  13.5732574
  38.8566628  63.7151833  13.2149591  37.7036247  63.3410835  14.1213493
  71.6229553  34.8627968  28.9518967  70.8903275  34.9988632  29.5527134
  71.2836761  35.1270866  28.0967522  63.1235886  13.8399878  44.3647652
  62.5091858  13.2781258  44.8370476  63.6312637  13.2366915  43.8220558
  81.2732086  10.5499077  66.5992966  81.6624832   9.8863792  67.1688843
  81.5714340  10.3158865  65.7203598  53.4925842  51.0381851  39.0522461
  54.3635864  50.8423576  38.7069397  52.9582062  50.2871284  38.7942009
  63.6067009  31.5787563  11.0876837  63.1896629  31.8633728  11.9008904
  63.3243294  30.6706600  10.9787788   6.2571764   8.9960899  26.8427868
   6.3102899   8.5228701  26.0124397   5.6588535   9.7222214  26.6667900
  76.0659637  29.9184742   0.2117875  76.1945267  30.8665657   0.1830234
  75.1268845  29.8085308   0.3610579  56.6799583  66.0486526  78.5026245
  57.3385925  65.9273453  77.8187256  56.9522438  66.8448715  78.9588470
  54.0017471  56.0340805  31.0997601  53.0883026  56.3039131  31.0046844
  54.3849220  56.1766167  30.2342587  44.8713036  58.4959869  83.2647400
  44.6907272  59.4140511  83.0628052  45.4776230  58.2148018  82.5795135
  60.2035751  65.1126328  83.9097595  60.3243256  65.7106476  84.6473389
  59.5722733  65.5558243  83.3429489  76.4477768  47.5822296  37.5932999
  77.1823578  47.3587494  37.0217476  76.7865295  47.4551697  38.4794884
  74.3710632  53.5408058  88.7763062  74.7002869  53.5874977  89.6738892
  74.0894623  54.4338303  88.5777206  51.6477089  52.0584030   0.5321311
  52.1681671  52.7723732   0.1638919  50.7415657  52.2970734   0.3367481
  72.9778290  16.9675083  56.3432045  72.3204041  16.5875702  55.7603874
  72.6003571  17.8032608  56.6175423  41.8930130  41.2983398  13.0947285
  41.1809883  40.6944046  13.3057127  42.0172310  41.8106270  13.8937054
  76.6147156  71.3179474  73.3110046  76.6752319  72.2110672  73.6499786
  77.0078583  70.7752075  73.9944611  20.8724041  45.5602875  23.9152107
  21.3368683  46.3788376  23.7406292  21.3636780  44.8978271  23.4293823
  69.0392685  63.0165520  14.9343910  69.3870468  63.3924294  15.7430906
  68.2448578  63.5206413  14.7582340  16.6718884  36.4642792  87.2627716
  16.6267891  36.3671684  86.3115768  17.1418533  35.6855545  87.5610199
   6.6234784  38.8100510   3.1144047   6.9343753  38.5846786   3.9912069
   7.1660752  39.5535393   2.8516433   4.4857492  66.3866959  73.6161728
   4.6018591  65.9489059  72.7729111   4.1246719  65.7104797  74.1893997
   7.2477884  65.9227676  30.8377819   6.9175053  65.0337906  30.7079201
   6.4889140  66.4174271  31.1470604  64.8572617  40.0061455  15.3406906
  64.3903885  40.6498756  15.8734875  64.5746384  39.1592865  15.6859179
  28.4984818  70.1611404  13.7904959  28.1562004  70.8195343  14.3951406
  28.3063335  70.5117416  12.9207897  24.4516544   3.6994057  73.1706009
  24.0361233   4.5068130  72.8678513  24.4304581   3.1191964  72.4095840
  12.7147703  47.8536568  15.0587492  13.0906115  46.9837418  15.1937618
  13.4730091  48.4322739  14.9780817  85.1198349  60.3823586  10.1411295
  85.2981644  60.7650375   9.2820683  85.5466156  60.9744987  10.7603731
  69.3017960  16.2135963  64.5539398  69.5864182  16.7071915  63.7847939
  68.3999557  16.4986191  64.7011948  81.8867722  22.1255322   7.3103514
  82.7306824  22.3248348   6.9049926  81.5187149  22.9812965   7.5304241
  74.0001602  30.3212090  38.8619957  73.3215790  30.8257065  38.4133911
  74.0696869  29.5111256  38.3568573  61.6376877  12.1641808  45.8800049
  61.0648041  11.4972143  45.5015984  61.4354210  12.1508942  46.8154945
  77.8625183  57.4102936  67.2890778  77.6886444  57.4670258  66.3495102
  77.9963379  58.3176155  67.5631027  64.4201813   8.4636011  64.4425125
  64.4416656   8.3322573  63.4946136  63.8161469   7.7940016  64.7634659
  76.8888626  20.7357216  78.0116730  76.3929749  21.5288353  77.8084717
  77.7989273  21.0282879  78.0609131  60.3880386   9.9680424  10.4412346
  59.4817505  10.0355425  10.1407051  60.6182976   9.0492382  10.3033504
  60.0631218  62.5941010  74.3787537  59.8187790  63.4955215  74.1690674
  60.7360039  62.3724289  73.7350769   3.6459863  47.9938087  55.0051003
   2.9518647  47.5834923  55.5209160   4.0918126  48.5740738  55.6221619
  36.7811966   9.4456663  30.1415596  37.6082497   8.9667673  30.0880260
  36.7864494   9.8357573  31.0156498  73.1957626  65.4340363  12.9960461
  72.7651749  66.2317581  13.3033953  72.5046234  64.7718201  13.0006113
  34.2970505   0.1986755  81.8539276  33.6274300  -0.2244204  81.3164978
  33.8049278   0.6400770  82.5461807  58.9154205  18.8403797  75.2702560
  59.4896774  18.0765419  75.3251877  58.2364349  18.5851440  74.6457062
  48.7693443  35.2496605  86.4443130  49.2006874  34.9478111  85.6448975
  47.9011040  34.8478012  86.4143600  49.0218849  33.8427124  46.7518425
  48.9278564  34.5206146  47.4210510  49.8623772  34.0325851  46.3350105
   8.9963465  43.9030190  15.3660631   8.1104956  43.8287888  15.7210140
   9.5305986  44.1782837  16.1110706   2.9600556  41.5229301  37.8015900
   3.5284779  41.2428589  37.0841713   3.5225639  41.5001488  38.5757332
  33.6381569   3.9399431  82.7590714  33.4212418   4.3334413  81.9138870
  34.5899849   4.0187063  82.8227158  79.9645615  52.3831902   6.0153913
  79.3257980  52.0091858   6.6222978  80.8101807  52.0651894   6.3316760
  43.0867920  50.3676147  41.6035347  43.9233284  49.9187965  41.7259979
  42.4699631  49.6690826  41.3848877   3.4226749  47.2123222  83.6729736
   2.8022330  47.4245453  84.3702850   4.2520304  47.5886154  83.9676056
  58.3339920  63.6361160  71.8737564  58.6091309  63.4738731  70.9714203
  58.5080070  64.5669327  72.0135269  48.4872513  44.5974693  38.6150513
  48.2624130  45.3787804  39.1202583  47.7334251  44.0174866  38.7227249
  85.2723465  48.9275055  23.8087158  84.8371048  49.4606819  23.1434937
  84.5568390  48.4955101  24.2752571  64.9999390  67.5301819  65.8209763
  64.9248962  67.4203568  66.7688904  64.6381989  68.3999863  65.6512527
  77.7009964  65.9716949  88.1968231  77.4204483  65.7521439  89.0852585
  78.2379608  66.7570343  88.3024063  56.1857605   8.6691895  64.0512924
  56.4864540   8.7595282  64.9555359  56.6862488   9.3249712  63.5658073
  75.3539658  44.3088188  45.6342697  74.5997849  44.8933792  45.5585518
  75.2412567  43.8811646  46.4831734  72.6820908  33.1847801   6.4400063
  71.8241348  33.5129089   6.7092214  72.4892502  32.5413780   5.7580433
  61.7942848  64.7829590  69.6310349  62.3669624  64.6349716  68.8784561
  60.9367180  64.9658127  69.2471466  67.5856323  68.1632614  37.6715889
  67.3233871  67.3243866  37.2924423  67.6962204  67.9802856  38.6046104
  46.4682007  65.2372665  28.9081211  46.6738777  66.0759430  28.4951477
  46.2647171  64.6538315  28.1770706   0.6200383  51.1035957  22.6422653
   0.4844052  50.3212280  23.1768074   1.1247804  51.6924324  23.2032814
  41.0797691  68.2050095  47.7566452  40.5981216  67.8379364  47.0153580
  41.9356499  68.4358368  47.3955154  58.3682747  38.4848404  24.3883667
  58.2066994  38.1163292  25.2568855  57.5778580  38.2780991  23.8896351
  45.0299530  10.5677729  28.4024868  44.3540001  11.0322647  28.8960152
  45.6283226  11.2553978  28.1103287  20.1703911  39.0539093  83.2260818
  20.2616215  39.2678413  82.2975693  21.0492153  39.1720505  83.5865631
  51.3051720   8.3006601  31.3955688  51.4415703   8.8295517  30.6095009
  51.5513687   8.8779144  32.1183395   6.9475555  64.8169022  75.2336044
   6.9150147  65.4900665  74.5538788   6.9532914  65.3068924  76.0558701
  38.8801994   4.2627196  67.6450424  38.0613708   4.1053877  67.1749344
  39.3132286   4.9557042  67.1465607  50.3871269  55.8379402  58.8072357
  49.8530350  56.2757645  59.4700203  50.7534218  56.5516396  58.2850380
  37.7932053  41.5367889  39.7798805  37.4961815  42.4052887  40.0513916
  37.0195808  41.1303291  39.3893356  19.7984390  19.6252537  19.4791012
  20.5102615  20.0765896  19.0254059  19.0041466  20.0645981  19.1752815
  46.6477547  32.4764786  32.7466736  45.9181557  33.0590897  32.9575729
  46.8544044  32.6725578  31.8328457  32.5878448  61.3969917  80.5520782
  32.4536629  60.7189331  79.8899078  31.7638187  61.8838120  80.5667801
  62.7093925  33.6210785  19.2576580  62.5117035  33.8854065  20.1561470
  63.1637955  32.7835617  19.3488617  47.4266815   2.5011377  31.8170376
  47.9874802   3.2208824  32.1063576  46.8743362   2.8864098  31.1368103
   4.3318925  41.6007614  47.3914642   3.4449816  41.9211082  47.5557747
   4.3207569  40.6952400  47.7015305  68.4374924  48.9995499  18.2629013
  69.2412338  48.5780411  18.5671387  68.1840668  49.5788841  18.9814968
   9.9541779  17.8529930  49.1175423   9.8157234  17.2472496  48.3894386
   9.9260798  17.2996616  49.8980980  28.9085159  42.6093407  87.3827515
  28.4021950  43.3936310  87.5943069  28.2548447  41.9134254  87.3145676
   8.0210781  53.4182358  48.6298332   8.8640375  53.7232704  48.9654007
   7.9440746  52.5213737  48.9553146   9.7756186  21.5026531  33.1826553
   9.7986870  21.8797779  32.3031769  10.6923800  21.3209820  33.3894768
  13.7498093  30.5529022   6.6297421  12.7951717  30.5998478   6.5778275
  14.0109673  30.0958920   5.8302608  25.4805965  55.1181526  84.2134399
  25.6879902  55.5150948  83.3674774  25.0154552  54.3114395  83.9918900
  13.5153027  65.9895630  83.6755066  13.4058256  65.0723495  83.4245911
  14.4125042  66.0423279  84.0048676   4.4197369  38.3425789  78.0676575
   4.1167474  38.7010231  78.9018936   3.9400880  37.5197487  77.9721832
  56.9969711  20.8546429  71.9476013  57.5386810  21.3483124  72.5632935
  56.1627769  20.7384090  72.4024048  68.7658310  26.0302277  85.2032547
  67.8973846  26.2114010  85.5627060  68.6761703  26.1966743  84.2649155
  29.0012112  44.2782593  32.1346512  28.4638214  43.6730728  31.6235809
  29.0152721  45.0826225  31.6159649  72.7898560  38.3462219  42.6405029
  72.7108078  39.2174110  43.0291023  72.1601334  38.3474846  41.9196091
  74.1751022  23.3930874  35.1033936  74.7901459  23.5572567  34.3885498
  73.3210831  23.3324089  34.6753845   5.8207240   4.1450911  72.3637848
   5.0488048   3.7097743  72.7255478   5.8167019   5.0134797  72.7664261
  61.9520988  61.0136108  39.0431709  61.1377563  61.5166473  39.0377731
  62.6427002  61.6754570  39.0076370  49.4380646   3.4196234  67.2391663
  49.0320206   3.8634074  66.4945755  50.3754616   3.5810478  67.1320953
  27.1269913  70.8727188  10.8114653  27.8839092  71.3335953  10.4496641
  26.3716621  71.2929688  10.4002466  84.6720963  17.7181950  25.7143345
  84.4062576  18.1016140  24.8785400  83.8618774  17.6630230  26.2210293
  19.9479141  65.6729202   4.7535625  19.5360718  66.5098495   4.5387249
  20.7867184  65.6934967   4.2928948  77.0399857  46.1749840  88.1613159
  76.2883911  46.0060959  87.5931473  76.7356949  46.8515091  88.7662506
  86.2344666   1.0746346  41.9682732  85.6163025   1.7418315  41.6700211
  86.5989685   1.4309139  42.7784805  51.1440811  11.1053410  38.6922417
  50.4130287  11.5991049  39.0637207  51.3606567  10.4573317  39.3626251
  44.6585388  34.6661911  23.4172935  44.7681046  33.8532104  23.9105377
  45.3319969  35.2503662  23.7657547  55.5855675  46.7312737  36.4362793
  56.0454292  46.1470680  37.0391541  55.7039375  46.3289452  35.5758400
  26.4847965  54.8680649  25.2036591  25.8264751  55.5153236  24.9508724
  26.0335159  54.0269508  25.1321793  80.2977982  22.5515289  88.4897385
  80.8957596  21.8314304  88.2894135  80.8636856  23.3203773  88.5595856
  22.8608818  60.8343048  69.0227814  22.9723186  61.6310005  69.5415192
  23.7104836  60.3960724  69.0713577  24.7574673  21.8180695  18.2845001
  25.0230999  22.7358704  18.3420582  24.2478962  21.6658459  19.0803642
  61.8440094   6.5922503  29.0379982  62.3487129   6.0880594  29.6761971
  61.1681099   5.9862113  28.7345028  13.4058809  51.1868324  37.5770912
  13.3440294  51.9563217  37.0111465  13.9874830  50.5896339  37.1066399
  12.6476068  39.8336868  46.7527695  13.4646187  40.1407852  46.3598137
  12.0440283  39.7485657  46.0147438  82.8841553  34.4682312  43.7587852
  82.9157410  33.8659554  43.0154800  83.7899017  34.5196075  44.0640793
  45.0620689  42.3942375   0.6639478  44.7663269  42.6270599   1.5440404
  45.4440613  43.2010193   0.3183846  20.8501110  50.2132187  31.2491207
  21.7532749  50.0167503  31.0002708  20.9272327  50.6824341  32.0798569
  18.3027363  40.2960701   7.0970263  18.9258347  39.6807823   7.4835486
  17.5191708  39.7715950   6.9321547  37.8068962  54.2237663  28.8255100
  38.6496544  54.1979675  28.3723869  37.2341270  53.6672020  28.2978725
  15.1920280  69.9725647  21.6699810  16.0841961  70.2204132  21.4274101
  14.8717365  69.4684296  20.9219875  56.4408951  54.6506577  60.9556313
  55.9993973  53.8237648  60.7618256  57.1818161  54.4027100  61.5086136
  46.3757553  19.8072624  15.0782022  46.1568909  19.3198547  15.8724089
  46.7724686  19.1562767  14.4993505  35.5405693  48.3148155  51.7498016
  35.2174034  49.1798363  51.4977379  36.0636520  48.0271683  51.0015526
  35.9567413  54.4301643  87.4303284  36.6101036  55.0799866  87.6893387
  35.1352692  54.9197693  87.3890305  60.3255806   6.5769582  40.9415474
  59.8235283   6.6127934  40.1273613  61.0102539   5.9297662  40.7724533
  41.3099403  48.1977196  77.1342392  41.7358322  49.0533791  77.1861877
  40.4688225  48.3740273  76.7127380  86.3285522   1.7543027  53.6885376
  86.1778641   1.8790040  52.7515335  85.9495697   2.5322430  54.0976944
  81.4205170  70.5740356   8.4040642  81.1596909  70.3984146   7.4999862
  80.8972321  71.3331833   8.6611528  31.3050137  15.7444725  77.9933243
  31.8158112  15.3095312  77.3105774  30.6485538  15.0970268  78.2504349
  75.1168442   1.0542035  29.8803120  74.5898056   0.4942028  30.4502773
  75.8527832   1.3280768  30.4276791  25.7198792  11.9656878  12.0501585
  24.7885094  11.9849854  12.2701797  25.7577953  12.2665968  11.1422768
  31.5608311  61.9887352  68.3256989  32.4377861  61.8928032  67.9542465
  31.6280270  61.6058540  69.2004089  35.0989227  49.1223068   2.1936915
  34.6700478  48.9559975   1.3542629  35.9320679  48.6548538   2.1337559
  12.9295616  67.2602997  52.4723587  12.2899714  67.9723434  52.4601135
  13.2297401  67.2235794  53.3805313   1.4202431  59.2202682  79.7110443
   1.3070915  60.1552315  79.8821259   0.5332537  58.8964157  79.5541992
   4.3802352  57.9936371  11.8605309   4.0189466  58.7629166  11.4201746
   5.2314181  58.2833214  12.1888657  71.8137894  54.2333183  28.4755383
  72.3566132  53.4717979  28.6796608  71.7017670  54.6795235  29.3149338
  56.7120628  26.0468884  22.8714046  57.6582069  26.1308613  22.9896965
  56.5975876  25.1923790  22.4555416  60.1692581  32.2333603  19.4980698
  60.5730705  32.8337669  20.1247082  60.1006966  32.7413368  18.6896801
  65.6646118   1.0779777  55.7981491  64.7600403   0.7800402  55.7021637
  65.9075317   1.3906988  54.9266968  79.6373444  19.3327541  14.7196455
  80.5195236  19.6939487  14.6328011  79.3455811  19.1939850  13.8186188
  63.4929619  61.3434181   6.1615252  63.3453789  62.2621155   5.9369321
  62.6463280  60.9218369   6.0141592   9.0905867  41.0142708   9.8241625
   9.9984760  41.1836472  10.0757170   8.6765118  40.6915245  10.6245413
  40.8615685  23.6347275  25.0861626  39.9642639  23.3194447  25.1941929
  41.0447350  24.1168823  25.8925190  21.6058235  59.0781403  73.0805817
  20.7602520  58.9580460  72.6483536  21.7210121  58.2861710  73.6056976
  80.8365402  32.7993050  11.5240564  81.2205200  32.1072044  12.0623770
  80.0145798  33.0165901  11.9638252  73.6719971  54.8255272  34.4441452
  73.4746780  55.3701820  35.2061501  72.9066010  54.2584076  34.3504448
  22.3177738  61.4014282  79.5036316  22.5240574  62.3039131  79.7469559
  21.3735332  61.4055328  79.3467102  30.6857471  47.3895378  59.5986595
  30.3708973  46.5244026  59.8606606  30.4839573  47.9539795  60.3449287
  17.7483864   5.3476601  39.1011353  18.2508831   6.1603694  39.1579857
  17.1211433   5.5027909  38.3949242  16.6359043  18.8647175  20.6951180
  17.0089684  19.0882893  19.8424339  15.6922379  18.8231316  20.5402126
  85.2482452  61.8769035  34.1159325  85.4632874  61.0086823  34.4567909
  84.3117371  61.8332176  33.9228821   2.4259555  67.8790131  62.1094513
   1.6655276  68.2213974  61.6396103   2.8976638  67.3615036  61.4568367
  40.1419487  53.2972260  78.4123993  39.7310829  54.1487122  78.2627563
  39.8627129  52.7626190  77.6691284  61.5227394  49.1930046  16.4281406
  62.0227928  49.9559669  16.7180920  61.9790955  48.4461441  16.8156586
  26.0604553  56.0700836  81.5453186  26.8715839  55.7598686  81.1427383
  25.7453785  56.7532692  80.9535217  23.6602974  12.2547455   4.9298515
  23.2560577  12.0845213   5.7806430  23.5666656  13.1991177   4.8048444
   7.9084754  10.9316635  69.0419617   8.6117458  10.3726339  69.3723068
   7.1443954  10.3565416  69.0013504  19.2328739  22.6450214  21.1040154
  19.4514732  22.4130783  22.0065937  18.9536953  23.5593166  21.1525803
  70.1215973  13.9653330  73.0340271  71.0741882  14.0591269  73.0336533
  69.9621048  13.1390467  72.5779114  67.8258362  23.6415939  21.2322979
  68.3909073  23.7699184  20.4704227  67.5092468  22.7423058  21.1469345
  42.7511940  36.8370209   9.6499491  43.2357216  37.1945381   8.9058752
  42.1113815  36.2437515   9.2563725  76.7643509  11.7605791  75.7484207
  77.4837341  11.5175447  76.3312149  76.8080063  11.1234112  75.0354385
  30.5557308  48.3798332  84.9713745  30.2269592  47.8559723  85.7019348
  29.8793049  48.3035240  84.2984314  36.4041672  42.3519669  68.1706085
  35.9738274  42.2653427  67.3199997  37.2172623  41.8551979  68.0793686
  54.5373116  34.1080093  61.1114883  54.4367447  33.8295403  60.2012253
  54.2057800  35.0058556  61.1253090  71.3300247  54.9086685  62.2835999
  70.6247101  54.4350739  62.7245903  71.7890015  54.2381287  61.7776909
   2.5121572   0.2274151  12.0041628   3.1294391   0.3987840  11.2929468
   2.0387456   1.0520234  12.1143179  58.6857452  69.8108368  16.7276840
  59.5711365  69.4708176  16.8569164  58.5169640  70.3415070  17.5062275
  12.9488468  12.5030890  51.8798523  12.8457537  12.8961859  51.0132065
  13.5824585  13.0662136  52.3244438  32.3361740   3.0572462  77.8525620
  31.9459667   3.0757513  76.9787064  32.0180511   3.8556979  78.2738800
  51.7976685  33.5952034  29.5663338  52.1385956  34.2842407  30.1366215
  52.4879646  32.9322319  29.5526733  69.0465469   2.8951306  37.0881424
  68.5534821   3.6385636  36.7411194  68.7057800   2.7744575  37.9744530
  47.7591362  26.7820625   9.8580885  47.5703583  27.5987244   9.3958578
  47.0353813  26.6842403  10.4768305  75.2792206  35.2828560  34.7114830
  74.7908401  34.9079628  35.4444046  75.6795044  34.5283051  34.2794495
  82.0380783  51.9751320  12.8548584  81.8371887  51.0442123  12.9510841
  82.3992157  52.2311935  13.7035284  28.8044815  62.6964645  29.0805721
  28.2974625  63.0335312  28.3419590  29.4031658  62.0601082  28.6896000
   6.3509240  36.7973557  14.1195536   6.4272485  36.7536736  13.1664009
   5.4408073  37.0494537  14.2756500  68.4980392  13.0805922  50.7837067
  69.2953873  12.6955194  50.4201393  68.6814346  13.1730261  51.7186127
   2.7742128   7.1034594  29.7397156   3.7001686   7.2107792  29.5221825
   2.7606061   6.3999200  30.3886204  59.0804634  32.6128120  80.1678314
  59.8302269  32.5409431  79.5771408  58.3798027  32.9712257  79.6230011
  57.0929260  46.1098442  42.2626381  57.8330841  46.6858749  42.0713692
  56.6534691  45.9966660  41.4198456   9.3956022   6.0460639  15.2315378
   9.5506372   6.8020325  14.6652279   8.6475668   6.3008423  15.7716885
  15.6882963  66.7256393  72.3865051  16.1213150  66.0237350  72.8723602
  15.7595615  67.4910355  72.9568710  64.3176804   3.2802203  21.7503738
  64.6537704   3.6377323  22.5722389  63.4247437   3.6195195  21.6889744
   8.5005255  24.3640137  11.1262636   8.2307234  23.7323513  11.7929287
   8.4169483  23.8896446  10.2990866   5.7134709  15.9013100  62.6886253
   6.1717682  15.5487318  61.9258118   5.7843060  15.2129002  63.3499184
  85.5121155  46.1991653  14.6536818  85.7710953  45.4061699  14.1842995
  84.5794296  46.2971230  14.4620123  57.5336151  64.1845093   5.6891589
  56.9959183  63.7547112   5.0240388  58.3385620  64.4226913   5.2292004
  70.7501907   0.1710227  76.9054260  70.8752441   0.4653232  76.0032196
  69.8006668   0.1037808  77.0059891  31.0979366  21.6155739  10.4553461
  31.8214874  22.1565647  10.7716331  30.4058495  21.7374611  11.1052628
  12.9427290  58.1813164  34.5411682  12.2981758  58.8523788  34.3165359
  13.1555643  57.7645912  33.7061386  39.5460091  23.7193947  74.3597794
  39.1455193  24.4960804  74.7504196  39.9476814  24.0379047  73.5514221
  12.7545853  59.7880135   1.0860406  12.3020163  60.1736526   0.3359088
  13.6658497  60.0622025   0.9828416  80.7399445   1.6190382  42.1155052
  81.0332718   0.8013307  41.7135773  79.8061600   1.6653467  41.9102249
   4.2820063  52.9025650  76.0395660   4.2864265  52.2862816  76.7719650
   3.8871293  52.4136848  75.3175583  74.1234512  58.2730179   5.9914117
  73.6849670  58.4832726   6.8158865  73.6019897  57.5629539   5.6170897
  35.8071709  65.9718323  26.5578918  35.3678780  65.9448166  25.7078781
  35.0951729  66.0474243  27.1931686  77.2365265  26.4709663  72.5836487
  76.3822403  26.7768078  72.2788773  77.2174606  26.6114159  73.5302963
  49.9323502  36.1346741  81.6919937  49.1512985  35.5816078  81.6745148
  49.9028511  36.6169815  80.8657150  59.6453667  50.0543404   0.8486564
  59.5771561  49.5178986   1.6384705  60.5713730  50.0124893   0.6099270
  48.7517357  50.8088264  33.1564217  49.5433998  51.2497597  33.4647636
  48.3934059  51.3970528  32.4917259  79.9144669  18.0359001  59.4178085
  79.7802200  17.1628475  59.7865791  80.5328217  18.4559422  60.0156631
  47.6921310  42.3617973  26.5632744  46.8482094  42.4752884  26.1260624
  47.4845467  42.3955460  27.4970837  13.1472483  63.7016296  23.6105633
  13.6360216  64.3423386  23.0940113  12.4570856  64.2119064  24.0342674
  45.9203033   1.7037044  12.3787107  46.6849670   1.9710320  12.8886652
  45.6329918   2.5045428  11.9401426   7.1307821  42.2372551  50.8560257
   6.5576267  41.8977470  51.5433807   7.2537546  43.1595764  51.0805931
  60.1122551  13.9167643  43.0490837  59.7735214  13.1605549  43.5282936
  60.7002411  13.5412550  42.3937263  74.6161270  41.5866966  33.7291946
  75.0211105  40.7287560  33.8563004  75.0637894  42.1577263  34.3535004
  79.8741150   8.1999016  39.8113251  79.9565582   7.9206553  40.7231674
  79.4290695   9.0459909  39.8592491  83.6184464  10.1345520   5.6076674
  83.8792801   9.5392122   6.3103542  84.1227570   9.8437567   4.8478365
  62.6558533  52.7474976   7.8705826  63.4305611  52.1857338   7.8926244
  61.9256325  52.1556854   8.0515957  31.9646053  40.7770844   2.3710089
  31.2988033  40.1669655   2.6883285  31.5851669  41.1540565   1.5771875
  39.4745560  35.8234406  79.9165802  39.7589378  36.5568237  79.3711395
  39.0895348  35.2011871  79.2994919  52.6067276  20.1935253  85.1008606
  51.8136024  20.6457062  84.8132553  52.3719559  19.8130646  85.9472427
  62.6484795  64.7476501  67.2053833  61.7864647  65.0953064  66.9766922
  62.9415245  64.2946777  66.4147110  86.3229370  33.0936165  37.8653603
  85.7436066  33.8555908  37.8678474  85.7370453  32.3477097  37.7365456
  50.2222633  39.4366951  82.4540024  50.6767998  40.2756920  82.5295715
  50.5493011  39.0598412  81.6371384  23.3482399  48.9443283   9.4441757
  22.7785416  49.2979126  10.1272955  23.5028419  49.6828842   8.8552227
   1.4410850  15.0046225   1.4892951   2.0452507  14.3084793   1.7473667
   1.4990567  15.6465950   2.1969264  60.7648506  19.8893929  88.7773361
  61.6497917  20.0153446  88.4349213  60.4672012  20.7709866  89.0018997
  44.1107712  59.3691063  56.8594131  43.4444923  59.7129288  57.4544716
  43.6378479  58.7517815  56.3013039  58.7471886  32.7769814  54.4214859
  57.8324852  32.7142639  54.6964722  59.2186394  32.2027817  55.0250244
  76.8766174  65.0331345  71.1465683  77.0089951  65.9239349  70.8222656
  75.9420700  64.9882202  71.3486557  80.7581558  24.3179684  69.6106644
  81.0606308  23.8353004  70.3799362  80.4947281  23.6385918  68.9899597
  79.5963593  40.8580399  77.3383026  78.9899979  40.5609932  78.0167694
  79.3035583  40.4121704  76.5435028  54.0036697   8.7262936  75.4013138
  54.5095139   9.4459410  75.0238800  53.9638939   8.9261942  76.3365631
  57.6891251  53.7073135  33.8805313  57.0300751  54.0719719  33.2898483
  58.3723984  54.3765297  33.9194412  60.7304611  48.9871521  38.0387955
  61.6518517  49.1635208  38.2289658  60.6725121  49.0196152  37.0839043
  67.6719360  12.6788216  20.5547237  67.3814087  12.5829411  19.6477318
  68.1364899  13.5155897  20.5702305  32.2226562  46.4902382   2.4528563
  33.0106544  46.6209030   1.9253916  32.5285339  46.5455971   3.3581774
  14.9192286  38.8565025  19.4368553  14.8400764  37.9062462  19.5203686
  15.4105024  39.1250763  20.2132263  84.4809341  50.6820107  21.8172207
  83.8949051  51.4383125  21.8458462  85.3094177  51.0331841  21.4908409
   2.5574410   4.2471299  25.9990788   1.6641446   4.2187133  25.6563759
   3.0969741   4.4771647  25.2426262  66.5770416  22.8357582  88.2236404
  67.1138458  23.6282349  88.2314911  66.1108627  22.8539600  89.0594482
  71.8573380  62.7233391   0.1581124  71.9460068  63.3770828   0.8516440
  71.5067368  63.2109299  -0.5872506  14.5852499  36.1542702   9.8341446
  15.2359848  35.7611847   9.2525434  14.7922421  37.0888023   9.8283072
   1.4857693  52.1540146  80.0268097   0.7054564  51.6221886  79.8702698
   1.1997752  53.0527802  79.8635330   4.3663445  36.1429939  48.3904877
   4.2685347  35.7722549  49.2675362   5.3010898  36.0642052  48.2000237
  14.0951557  13.8540239   5.8805194  14.5196762  13.0198183   5.6802325
  14.4094353  14.4516706   5.2020812  34.5914421  39.1436768  85.5243454
  35.0389137  38.4392357  85.0555573  34.0684433  39.5831184  84.8538284
  12.6889582   4.6609735  34.0531921  12.1490984   4.0005622  33.6188660
  13.4505758   4.1762753  34.3713722  69.0691681  53.0814972  10.7908487
  69.1333694  52.7706604  11.6938934  69.7921524  52.6488075  10.3366385
  67.6403580  54.3418465  30.3107471  66.7507782  54.6918869  30.3592358
  68.1048279  54.7674599  31.0314083  73.3355865  24.9827251  71.0488739
  74.0869904  24.9263039  70.4585876  73.3457031  24.1548691  71.5292740
   7.3894811  25.8356056  57.2011070   7.1135507  24.9485168  57.4316826
   8.2382011  25.7190666  56.7741127  72.0562668  49.8286896  11.4507732
  71.3719330  50.3288383  11.0060606  71.6038132  49.3939781  12.1736441
  18.6690178  11.9332476  31.1075172  18.9162617  12.3560400  30.2851124
  19.4136429  11.3709698  31.3210812  18.1640415  18.8287582  71.0598679
  18.4485474  19.5265770  70.4696655  18.9750366  18.4910240  71.4399338
  82.5816345  69.7773743  44.9586525  81.7335892  69.5256729  45.3243065
  82.5445709  70.7322311  44.9029999  77.7092285   4.6209402   9.3230476
  77.0997849   3.8996842   9.4798937  78.5758667   4.2179246   9.3755026
  23.5549793  19.1871605  85.3034439  24.3674831  18.6823502  85.2682953
  23.1735535  19.0881348  84.4311295  86.6281967  50.0341148  62.5957260
  87.2366943  49.7103615  63.2599106  85.7929382  50.1164703  63.0559273
  17.2860336  -0.0652914  83.1566696  17.9144611   0.4589715  82.6602173
  17.6197033  -0.0530772  84.0537415  65.5880966  65.1010666  16.8843479
  66.3784409  65.0993576  17.4243259  65.0815887  65.8479538  17.2034931
  50.6521149  62.7187538  51.3096771  50.0673523  61.9610100  51.3200340
  51.3965645  62.4395218  50.7767067  50.6009102  55.3631744  24.7843342
  50.1847534  54.6662636  25.2916451  51.3985939  55.5702324  25.2712193
  73.3362579  34.5423965  44.6788712  73.8474655  34.1265144  45.3730927
  72.5024567  34.0722847  44.6809998  17.3921566  26.4120636  85.6443863
  17.7219219  27.0196896  84.9823608  17.9659863  25.6489811  85.5761490
  56.8938293  62.6455421  21.1975536  57.6086121  62.8704300  21.7931576
  56.1494255  63.1583786  21.5123463  83.1171722  69.5225220  52.9130821
  83.7846146  68.8365860  52.8974037  83.4945755  70.2114792  53.4600182
  82.2956772   6.5053487  35.6579552  82.0784607   7.2926021  35.1586761
  81.7164078   6.5371618  36.4193153  69.9855270  28.8633842  18.2164021
  69.5279160  29.5938988  18.6325455  69.9401169  28.1551838  18.8587589
  26.7529583   8.7276678  15.3821430  26.9067364   9.1940031  14.5604887
  26.0074444   8.1564236  15.1974258  39.0765915  61.3464394   7.8631411
  38.6616287  61.9221764   8.5054541  38.3452988  60.9377365   7.4001026
  19.2700729  17.9849129  15.3476171  19.3491726  17.6866837  16.2537270
  19.1573849  17.1812973  14.8399420   9.0737972  69.7843018  21.8662529
   9.1169033  69.9580154  20.9259357   8.2303562  70.1460571  22.1382294
  24.9625435  66.8044510  88.0481262  24.1218758  67.2429810  87.9169769
  24.7309608  65.8973465  88.2475128  63.4289703  55.8154335  17.6087837
  62.5361404  55.7041893  17.9354458  63.7138023  54.9297180  17.3838253
  41.4884834  55.2630959  79.8282394  41.0815468  54.4061775  79.7004776
  41.9545021  55.4314423  79.0092697  85.3958130  45.9305840  30.3077888
  86.0205765  46.6316833  30.4931469  84.9324417  45.7978630  31.1347733
   1.1861938  46.7468758  56.5621147   1.4776819  46.2138519  55.8224182
   0.8870223  46.1111984  57.2122269  21.1541348  63.5314560  53.4712334
  21.6180763  63.5923119  54.3062668  20.2620468  63.8147125  53.6716805
  44.3961983  64.0610962  74.8821640  44.2517586  63.9443474  75.8211746
  45.0561905  63.4050598  74.6579742   1.5850641  62.7372398  27.6876564
   0.6633106  62.9673538  27.8044891   1.7644099  62.9269066  26.7667370
  44.3249741  18.2345772   9.4503851  44.2374649  18.9534073  10.0763721
  43.6195946  17.6296921   9.6801395  35.1268997  60.7188950  74.9877472
  35.9796715  60.7271805  75.4224319  34.7331810  61.5607986  75.2166977
  77.9418564  36.4225502  59.8387604  78.8765030  36.4115448  60.0450363
  77.7316742  35.5120850  59.6311340  23.1165218  63.4800873  70.1045685
  24.0462170  63.2545128  70.1364594  23.0612431  64.1760178  69.4496994
  72.1887436  71.1917114  39.2923965  72.3195419  71.2001190  38.3442154
  72.7265167  70.4628601  39.6019096  22.3319130  34.3277702  80.0368195
  22.6178799  33.7567139  79.3238297  22.9110222  34.1080666  80.7666092
   7.8830042  51.7810974  86.1553650   8.5217857  52.4617920  86.3671265
   7.0352097  52.2215576  86.2142715   5.9180465  13.7241840  64.1057281
   5.2877693  13.0055904  64.1567688   6.5999303  13.4898605  64.7352982
  20.7423115   8.9529848  49.5846939  20.6192684   9.2338028  50.4914665
  20.9515648   9.7579813  49.1109581  32.5736732  63.8738594   7.6026926
  32.6310730  63.9394073   6.6494660  31.7128830  64.2340164   7.8161373
  54.4402657   6.8073206  54.1828766  53.5781250   7.1684737  54.3890648
  54.5587883   6.0960536  54.8123894  44.3582726  25.7023869   7.0346766
  44.3727684  24.8266010   6.6486440  44.1706657  25.5526237   7.9612875
   9.1596231  32.0224304  79.0033798   9.7505627  31.3342094  79.3089447
   8.5139456  32.1123352  79.7042694  40.4233055  70.1884689   5.5353165
  40.9104233  69.4253464   5.8461089  40.4525871  70.1189651   4.5810924
  43.7432480  27.4218788   2.1832016  44.4332924  27.3281155   1.5264803
  43.2783585  28.2193623   1.9299622  45.4803963  15.1969709   1.3419101
  46.2549782  15.0049715   1.8704863  45.5213814  16.1413345   1.1911485
  36.8876877  32.3525467  13.2769566  36.5332260  31.4896965  13.4916105
  36.1161652  32.9099083  13.1753120  73.9672928  52.2666245  53.8188019
  74.5700684  52.1480560  54.5528526  73.2646027  51.6374474  53.9818802
  54.6067734  60.5214767  71.4756241  55.5460205  60.6120300  71.6363831
  54.4943237  60.7800293  70.5608902  62.7502632  48.7049141   6.6841373
  63.2180519  47.9301376   6.3724909  61.8729782  48.3859444   6.8959379
  31.5399551  68.0653763  83.7342911  32.4618454  67.8510971  83.5913239
  31.2513123  68.4466782  82.9051208  20.3484421  52.9840317  85.8919830
  21.1108074  52.4452171  85.6805420  20.4669914  53.7804031  85.3743286
  13.8712387   6.4122710  10.0117178  14.5989714   6.4916973  10.6284256
  14.2725201   6.5321717   9.1510029  58.0346718  34.0083046  46.6606026
  57.5991135  33.2592812  46.2538033  57.8883362  33.8897781  47.5990982
  48.7366257  21.7271347  14.9365492  47.9246826  21.2350311  15.0582647
  49.3884430  21.0624752  14.7138596  14.4117622  16.9759979  17.7181988
  15.1403065  16.3693180  17.8500805  14.1533384  17.2357864  18.6024837
  53.1349602  48.3321915   5.1125145  53.4874496  47.4568520   4.9520097
  52.7956619  48.2935066   6.0067248   5.6999488   9.6432600  46.1185226
   6.4651346   9.7342043  46.6863708   4.9684572   9.5112724  46.7216225
  37.9537430  71.3624191  37.8358994  38.5696449  70.9893646  37.2052460
  37.2173805  70.7508926  37.8420372  61.9682961  19.5937042  16.7843990
  62.8391075  19.9651356  16.6431160  62.1274796  18.6629791  16.9413815
  12.0770378  54.3741150  11.4926376  12.8704510  53.8740540  11.3011532
  12.3953609  55.2403069  11.7468367  45.4532776  51.9968452  34.3106804
  45.6649551  52.9052467  34.0956573  44.7073746  52.0594978  34.9072838
  82.8211288  59.3705635  76.8551254  82.3713074  58.6272163  77.2567902
  83.1831055  59.8593254  77.5942535  18.1388359  35.0138168  13.7976341
  18.4513264  35.5654182  13.0804768  18.7593765  35.1716957  14.5091372
  24.8908749  45.8635025  29.2999840  25.0602779  45.6398087  30.2151318
  25.5666885  45.3951836  28.8098946  45.4417953  51.7548714  84.0646439
  44.6708031  52.2004013  83.7135010  45.4822273  52.0317345  84.9800415
  57.0902061  67.1133804  69.3879471  56.9231033  66.5619431  68.6236038
  56.3203201  67.6789627  69.4481659  43.1221848  57.4540329  68.7359543
  42.6646805  58.0666618  69.3118057  42.9145317  57.7559357  67.8516693
  50.1650200  58.1208191  78.7356796  51.0475769  58.4898949  78.7689209
  49.8319206  58.3736992  77.8746796   6.6977105  54.4231644  52.3799858
   6.2343197  53.6083183  52.5737190   6.8266706  54.8343887  53.2346764
  28.0632324  44.6762810  34.7715874  28.2263908  44.7970200  33.8361549
  28.2205219  45.5389175  35.1554489  44.7237816  69.5916214  78.4576187
  45.0993462  70.4682083  78.3753128  45.0213203  69.2829590  79.3134460
  69.4133224   1.5395683  58.4532814  69.3565063   0.6495303  58.8008957
  68.5304794   1.7295630  58.1359100   7.9007087  44.1441231   7.2226081
   8.3989334  43.3376083   7.0901818   8.3455820  44.7927742   6.6771069
   8.2266026  53.6508942  82.2997513   7.4975715  53.6537514  81.6794739
   7.8364377  53.9265747  83.1292114  38.3157806  35.4898720   5.9096608
  38.4227295  36.4249649   5.7353120  37.8626480  35.4535866   6.7520308
  44.9429703  12.4255476   1.2839453  45.1802101  13.3500509   1.2115376
  44.8524170  12.1298552   0.3780770  39.2622833   8.6562138  30.4268436
  39.8608704   8.3794565  31.1206245  39.6442108   8.2998800  29.6247272
  29.5966244  52.4738235  72.8240891  29.1606483  51.9839668  73.5213623
  30.2292366  51.8563309  72.4570312  11.1843634  57.5776711  13.3514061
  10.5361338  57.9655266  13.9392843  10.7184248  57.4632797  12.5231256
  35.6604156   9.6440716  17.9635067  34.7666550   9.7905054  18.2733116
  36.0721245  10.5072918  18.0032215  65.4308472  45.8242149  10.0297871
  64.7911224  45.1147919   9.9688740  66.0717468  45.5144958  10.6697521
  85.3935318  55.1360588  49.5878105  84.6909332  54.7306175  49.0796776
  85.7537231  54.4205856  50.1118279  54.9271393  31.9722557  62.8697281
  54.7082558  32.5197258  63.6237831  55.0212479  32.5899200  62.1445618
  82.2508316  26.6208382  57.4795494  81.3043213  26.7403107  57.5575523
  82.5003357  27.1658478  56.7332649  17.6588001  17.8641052   1.6619072
  17.2688217  17.5009480   2.4570577  17.4819164  17.2084103   0.9873651
  71.5930557  16.2476540  54.1515846  71.9973221  15.8134356  53.4004135
  70.9295120  15.6291609  54.4572029  36.1699944  67.0028458  52.4854393
  35.9188538  66.1624222  52.8686409  35.3863144  67.5465317  52.5659599
  70.1574707  23.4080086  43.8393593  69.4801483  22.8643742  43.4369507
  69.6818314  24.1579838  44.1964798  40.3210793  56.0551033  45.3512611
  39.9296379  56.5422096  46.0763397  40.7046661  56.7286720  44.7896576
  65.4088821  36.3686638  11.5644093  65.0371704  35.5345078  11.2776194
  64.8655243  36.6300430  12.3078260  15.4222794  50.2983360  75.2233963
  15.8644056  50.0869446  76.0456314  15.6022320  49.5493050  74.6552429
   9.6313686  13.9121494   6.6104784   9.3949814  13.1634502   7.1580205
  10.0857201  13.5269451   5.8612027  53.9089394  67.7482605   6.3504806
  53.0685043  67.3548889   6.1156158  53.9014702  67.7757797   7.3072557
   2.1616297  60.2683220  51.6096153   1.2209640  60.0930748  51.6354561
   2.2266967  61.1908989  51.3629379  66.5393906   7.5293636   2.6001971
  66.3571167   7.0711002   3.4205656  66.9244537   8.3625679   2.8717239
  77.8680496  23.5234127  27.4873123  78.6523743  23.9337940  27.8515263
  77.3479385  23.2793331  28.2529106  41.1308098  29.0543823  23.0988750
  40.9968834  28.4031391  22.4102707  40.2505455  29.3677368  23.3066597
  65.3791656  52.8351250   9.0029173  65.8276825  51.9898148   8.9803019
  66.0757904  53.4793434   8.8767118  22.7937393  63.3497086  55.6161804
  23.2832050  63.4857254  56.4274483  22.7628345  62.3987312  55.5116730
  53.6872787  39.6895714   9.2160215  53.3867340  39.7001076   8.3072891
  53.6126747  40.5995178   9.5035334  34.9716606  35.3198509   7.7391272
  35.9049644  35.1174355   7.8039589  34.6161575  34.6327629   7.1754260
  50.1732292  50.9051666  26.5067844  49.6955910  51.5805435  26.0251637
  50.1733284  51.2122841  27.4133778   9.2033806  50.0415421  23.5129261
   9.0104723  49.1316986  23.7392101   8.9450445  50.1198959  22.5945835
  19.2929192  13.7569494  49.9703636  19.8289356  14.0098591  50.7219963
  18.8836498  14.5730000  49.6826286  75.3753662  11.5876989  42.4465942
  74.6464462  12.0845366  42.0750313  75.4400787  10.8083811  41.8945923
  55.1098022  69.2283173  47.8795319  54.9753075  68.8289719  48.7389908
  55.0633926  68.4957733  47.2651520  61.3845825  38.7009277  64.1614456
  62.0325546  38.9442863  63.5002785  61.1097565  39.5335922  64.5453339
  73.2742462  28.0564213  62.0332947  72.4393158  28.4258595  62.3207474
  73.9247131  28.4573212  62.6098404  17.7078285  49.9119797   2.2994556
  18.1306343  50.4231758   2.9894893  17.6135387  49.0361023   2.6738577
  27.9687767  15.4984865  18.6882057  27.6173229  15.3367844  17.8126698
  28.9089184  15.3406830  18.6018143  48.4987297   5.2745667  54.6675529
  47.6317444   5.4462543  54.3000031  48.9711151   6.1004677  54.5628166
  46.7681541  12.8120937  19.0421715  47.3482971  12.8179140  19.8035107
  46.0997620  12.1609087  19.2553387  53.2999802  37.6775703  11.0220070
  53.2477188  38.3404846  10.3334961  52.8538513  36.9146767  10.6543198
  57.2349739  48.4314690   7.1519375  56.3580399  48.7671318   7.3378124
  57.3036613  48.4564133   6.1975307  56.3676109  47.4111443  53.6832085
  55.5996513  47.0594749  54.1335411  56.9027100  47.7885742  54.3813820
  79.7493668  63.1767693  53.9315872  80.3873215  63.2559738  54.6407928
  80.0607376  62.4363708  53.4109230   3.8902562  46.8572884  88.9467239
   3.5689893  46.7648735  89.8436508   3.1054811  47.0351982  88.4283524
  15.1800213  60.9274025   7.4674463  14.9496078  61.6735001   8.0210505
  15.1629858  61.2761574   6.5762062  75.0698853  30.2874241  77.5740280
  74.6798172  30.0939121  76.7216034  75.2390442  31.2292957  77.5517578
  39.1888275  14.1313648   9.2255621  39.8798904  14.7661533   9.0365915
  39.4566078  13.3397398   8.7588120  48.3829346  59.2399979  12.5287428
  49.1958122  59.2118034  12.0241003  47.9880676  58.3783379  12.3951378
  14.8642654  39.6657066  35.9686165  15.2357006  38.7915306  35.8499565
  15.6231365  40.2490082  35.9789391  21.1778927  43.9573402  48.5247459
  20.7920895  44.8257484  48.6398735  20.7774982  43.4243851  49.2116776
  25.3645859  60.1080399  60.4821434  24.9450359  59.2523041  60.3931198
  25.2073154  60.3583450  61.3925514  14.3594456  69.9088287  46.1107788
  14.7230940  70.1408920  46.9652596  13.4147024  69.8617477  46.2573204
  79.0894089  27.9464931  37.6757927  78.3701630  28.3615246  37.1996956
  79.4611511  28.6494865  38.2085571  64.1935806  60.2553635  44.2739716
  64.7589035  60.8917580  43.8361931  64.6886063  59.9881096  45.0484085
  57.6058769  67.9846954   8.0524340  57.5864906  68.0693054   7.0991778
  57.3780251  68.8566360   8.3749628  23.8681221  42.4510002  79.6561050
  23.2400703  42.6571465  78.9637985  23.4303970  41.7847710  80.1859818
  73.3428421  45.2198334  63.9984131  74.1973114  45.6080055  64.1866455
  72.9983521  44.9715462  64.8562698  39.1163597  57.7739487  36.5972176
  39.8039246  57.4246750  37.1642189  38.3311348  57.7732430  37.1446266
   2.3928616  62.1294250   5.6011195   2.3026066  63.0009117   5.2156367
   2.6264205  62.2945938   6.5145755  72.7542648  32.7257347  81.9353409
  72.6213913  33.5345459  81.4409714  73.6804428  32.5184555  81.8110352
  80.9320755  54.6274910  62.1148720  80.3654327  54.0854416  61.5659332
  80.3667984  54.9154892  62.8316383  41.7378159   1.6260374  73.2080460
  41.1679039   1.9149258  73.9207687  42.6185074   1.8723998  73.4907455
  54.6267738   1.1913035  48.8745232  55.2251930   1.8865745  48.6011620
  53.8006439   1.4014196  48.4391060  64.9520798  70.4560013  41.9626236
  64.7233505  70.6322021  41.0500069  64.1094360  70.3637009  42.4072151
  61.1428871  27.4373856  47.9711914  61.9058609  27.9737148  47.7556534
  61.1049004  26.7834606  47.2732162   4.5713134  19.2341862  44.4717865
   4.2409821  18.9690323  43.6134109   4.3520751  20.1637173  44.5361061
   1.6878369  29.9789143  19.0474796   1.0644253  29.2529202  19.0703068
   2.5227692  29.5857334  19.3015041  43.1831169  50.5808258  77.0648193
  43.6150894  50.8635750  77.8708420  43.8424187  50.7076454  76.3825607
  67.5291443  54.4858055   5.8329177  67.0818253  53.6396637   5.8194766
  67.6037598  54.7025452   6.7622662  63.1914253  59.7288284  15.1507959
  62.9257469  59.6661339  16.0682449  63.8272324  59.0224457  15.0367556
  24.2723331   4.8779349  45.1861954  23.8250103   4.0339894  45.2485619
  23.9186096   5.3907785  45.9129028  71.8571167  69.1228638  29.6613884
  71.4163895  69.0618362  30.5088978  71.4033051  68.4863052  29.1090488
  24.5245533  45.5772095  82.7930222  24.2797508  44.7673111  83.2406464
  24.2814388  45.4287071  81.8792038  67.5883713  51.1931725  39.3530922
  67.5224380  51.7057114  38.5473671  68.4007568  51.4923477  39.7614555
  38.7604828  27.1951313   4.8874292  38.4114456  28.0819130   4.9769845
  39.0599785  27.1461620   3.9796090  63.8165627  54.8519440  58.3467522
  63.0550461  55.1799316  57.8684731  64.5501709  55.3673706  58.0115128
  74.1953659  66.4050217   1.4479907  73.8270874  67.0087738   0.8029439
  74.4064789  65.6178055   0.9460503  34.8866730  16.1552181  29.9843750
  34.7748260  17.0151386  30.3896637  35.5133553  16.3038559  29.2762737
  83.7140274  28.8789558  19.5894299  84.3591843  29.3951111  20.0727425
  83.8927917  27.9735394  19.8433914  49.5239220  32.1048393  26.6457939
  50.2817078  31.5409794  26.4906979  49.4670868  32.6507530  25.8615875
  56.0738029  39.8825874  20.9682274  55.7504539  39.5960579  20.1140747
  56.2824211  40.8088722  20.8469315  63.7685089  65.0715103  58.7146835
  64.2483215  65.3759995  59.4849396  63.3571434  65.8603363  58.3614616
  35.6245689  64.3302689  52.7145805  35.3152199  63.4314804  52.6018105
  36.5716782  64.2455902  52.8243599  69.2896576  24.3942242  40.9962273
  69.6307220  25.2694740  40.8122673  68.7217941  24.5135746  41.7574883
  11.0382099  57.4489441  69.2147522  10.4600067  57.3043022  68.4657516
  11.8004456  56.8972893  69.0389481  14.0627556   7.5893574  78.4815216
  13.1859226   7.8420506  78.1924820  14.5320559   8.4182825  78.5757141
  80.0499268   7.3827796  56.0743752  80.0028229   7.2733135  57.0241241
  79.6578598   8.2408562  55.9124374  70.2640228  45.3009644  28.8249359
  70.3564453  44.9225388  29.6992836  70.9655380  45.9498291  28.7694130
  73.5836945  44.3456116  79.8833771  73.9545898  45.2232246  79.9753723
  72.8137054  44.3501854  80.4520035  71.5094376   6.2947717  86.6439438
  71.7661057   5.8442907  87.4485703  72.0715256   5.9163599  85.9678574
  16.3915501   9.9813709  21.8679905  15.8150196   9.3788710  22.3379230
  17.1664104  10.0549774  22.4251308  53.0794296   7.8271422   7.4187856
  52.7872391   7.8944707   8.3278084  52.4383392   7.2504768   7.0032225
  61.9780426  51.8958054  34.6347198  62.9213524  52.0564461  34.6590347
  61.6981163  51.9743690  35.5466957  59.8882103   1.0349391  59.9836349
  59.8555412   0.0850413  59.8702393  59.1033783   1.2427555  60.4906731
  53.3154984  39.7980232  57.0987625  53.4641037  38.9988403  57.6041832
  53.9343338  39.7396126  56.3708458  71.3125687  24.5802193  59.2699547
  70.4094162  24.8581200  59.1172562  71.2766495  23.6240559  59.2436256
  29.5861683   0.9732454  72.0707474  29.6205082   1.4806926  71.2598495
  30.4791603   1.0088519  72.4135742  57.2400818   7.7496071  43.7253227
  57.8450775   8.4172354  43.4020805  56.7850380   7.4394960  42.9423828
  65.5745163  50.1754150  27.2989540  64.6470566  50.1413307  27.5332241
  65.5810165  50.4738388  26.3894844   3.1069896  50.1720085  47.4829292
   2.7688754  50.1424217  46.5879250   2.6126492  50.8761177  47.9025612
  46.6728172   2.4415829  72.4171753  47.3976631   2.0888329  71.9010391
  46.5438919   3.3264101  72.0755768  18.5647049   1.1753507  23.0566254
  19.0010796   0.8600142  23.8480625  19.2524815   1.6272798  22.5677948
  58.2207527  19.2703495  61.8236313  58.2559280  18.6124039  62.5179672
  58.0429573  18.7692966  61.0276642  73.6969376   6.6591563  77.2404099
  73.6906433   6.3778715  76.3254929  74.2556610   7.4363313  77.2482071
  67.5034027  65.6127853  21.1200600  66.6095047  65.4277344  21.4080505
  68.0450516  65.4301071  21.8878345  72.4268951  15.4131041  83.3269196
  73.1812057  14.9054241  83.6260986  72.6610565  15.6907005  82.4412918
  10.2969275  63.5301781  20.6711941  11.1143246  63.0868416  20.8982315
  10.4225054  63.8153381  19.7661266  15.4867182  61.8675690  16.4987774
  15.3192396  61.4660492  15.6461544  15.1152496  61.2518768  17.1305752
  66.0066757  55.3840141  82.3454819  65.9848328  55.9166756  81.5504761
  65.1013794  55.0977936  82.4669571  44.8097610  52.6856766  65.0891800
  44.2413559  52.5345535  65.8443680  45.6017570  53.0751877  65.4596558
  60.1606407  23.1755714  71.2261887  59.6495018  23.8836803  71.6180496
  61.0587807  23.3416710  71.5125122  86.9138565  20.8880997  64.7395020
  87.4142303  21.3318806  65.4242783  86.0106888  21.1719913  64.8806686
   3.0688682  14.6992865   4.2308760   3.9084196  14.3560314   4.5367537
   2.4176793  14.2665367   4.7830653  83.0432129  70.2258377  19.2046337
  82.9530106  70.2958374  18.2542686  82.2266617  70.5867081  19.5499535
  48.1910019  63.2403641  44.8092842  48.6228104  63.5839272  44.0271454
  47.8355217  62.3950577  44.5348358  29.0778255  43.1919327  77.5548706
  28.4496403  43.3101082  78.2673645  28.5597496  42.8288231  76.8365555
  81.2362823  33.1089630  45.6841927  81.7619247  33.7841911  45.2552452
  80.3302460  33.3703728  45.5198746  32.1138725  16.7484741   6.4892540
  32.1865349  17.5229511   5.9314575  32.3715820  17.0545521   7.3588128
  32.4362144   8.9035902  70.5200043  31.9908638   9.4701071  71.1500473
  32.1972961   8.0155869  70.7857132   0.5071828  45.3796921  39.3832512
   0.1712018  44.8545189  40.1095734   1.4274731  45.1267281  39.3104057
  13.5288029   4.7846131  65.4387054  12.9728394   4.9114828  66.2074966
  13.7083244   5.6706324  65.1241074  77.5244370  57.2894325  78.0958786
  77.1582565  58.1225777  77.7992096  77.5393677  56.7414169  77.3112183
  15.3114147  70.6327972  29.8242683  16.0560436  70.0686569  30.0328598
  14.9442167  70.2584152  29.0234947  55.9582481  58.0131645  80.6098557
  55.8207474  57.1557999  81.0126495  56.3125305  58.5550003  81.3149261
  10.8688250  55.1205521  63.3989906  11.0982046  55.3162003  62.4905090
  11.7083664  55.0965385  63.8581505  11.5519142  11.6818562  37.5135193
  10.9599915  12.3214731  37.9094353  12.4092617  11.8854542  37.8873329
  13.2889433  60.2596245  54.1034050  13.4791260  59.5154343  53.5322266
  13.9300957  60.9244461  53.8520737  43.4464226  23.3429832  87.9740829
  43.4662819  23.2474174  87.0218735  42.5243340  23.4962387  88.1802368
   5.0568309  28.6567078   0.4369671   4.3936257  28.3829327  -0.1966239
   4.5552421  29.0190525   1.1672736  74.2073364  48.2100258  21.1220322
  73.7763672  49.0647125  21.1216602  74.9366226  48.3092613  20.5100479
  62.1491737  55.2813454   8.6783085  62.5191612  55.2542305   9.5606937
  62.2158318  54.3800888   8.3628407  77.2661057  15.6982422  16.4411697
  77.5468292  16.0734997  15.6065388  76.3714294  16.0176296  16.5585384
   6.4119139  46.7548065  20.8263130   6.4905577  45.8129158  20.6750145
   5.4691019  46.9105949  20.8817005  48.0274582  42.2326546  86.4623489
  48.3309937  41.5599403  87.0718994  47.8816681  41.7633705  85.6409225
  83.8135376  27.8601589   8.4266958  84.6118164  28.1958447   8.0188923
  83.1370850  27.9750271   7.7592778  75.6700287  58.0510559  29.7750549
  74.8607101  58.4178429  29.4191036  75.6968460  58.3630104  30.6795998
  51.7064934  48.2135201  86.9917679  50.7647591  48.3557281  87.0873795
  51.8295631  48.0443993  86.0576935  46.0431480  58.5754395  75.9564056
  45.1764984  58.2784195  75.6790543  46.5938606  58.4640503  75.1814575
   1.1839674  55.8121605  45.3327293   0.4339421  55.3907356  45.7523651
   0.8052294  56.5414124  44.8418312  84.1147690   6.2718410  48.1711998
  83.2694168   6.0597415  47.7754402  84.4591446   6.9845185  47.6329384
  72.1120453  49.8283463  30.6923161  71.7319794  50.6616859  30.9703865
  73.0307388  49.8845215  30.9551449   2.8230100  70.2914810  45.4979248
   3.2461083  70.3697815  44.6428871   2.2771902  69.5086136  45.4242744
  13.2453241  25.4812164   2.1621151  13.6826696  26.1079922   1.5858229
  13.2478361  25.9035072   3.0211244   9.0322313  26.7735958   2.0138485
   8.9474211  26.9436188   1.0756955   9.5991459  27.4752102   2.3341279
  18.0439796   7.2568898  13.3004961  18.5572662   6.6699986  13.8557692
  18.6811333   7.8877630  12.9654369  23.9134941  34.3312340  15.5422935
  23.4870129  35.1878853  15.5201139  23.2158966  33.7108383  15.3308706
  61.8437843  63.4710350  16.5000820  61.3597603  62.7931480  16.9716969
  62.3796921  62.9886131  15.8705530  68.5145187  21.0859394  16.1263599
  68.3794708  20.8252563  15.2152958  68.2777328  20.3104095  16.6350021
  31.3655624  65.7547073  75.5403519  31.9057350  65.9466171  74.7737885
  31.9497318  65.8934937  76.2858124  43.2816429  54.3437309  77.7930145
  43.4900169  53.4147911  77.6935654  43.9448586  54.6744423  78.3988190
  47.2079163   6.3044729  68.5184860  47.1062889   5.7543960  67.7417526
  47.6207085   7.1044478  68.1931000  76.5730591   8.9770126   3.8485062
  75.8321838   8.3748560   3.9174240  76.2294922   9.8156967   4.1564078
   8.4825897   4.8883476  37.1599541   8.1653843   5.7910757  37.1335907
   9.1015711   4.8306284  36.4321060  47.5963249  15.0764666  83.3464127
  48.1479073  15.6239452  82.7876205  47.8643532  15.2979288  84.2382355
   4.9780970  42.7592125  42.6432571   4.8207779  42.1683769  43.3797302
   5.8477116  42.5179710  42.3241844  28.9741917  61.7644653  68.1309052
  28.6029739  62.1760750  68.9112930  29.9032955  61.9930077  68.1585388
  62.1409340   6.4080133  65.0821991  61.9452667   6.5058866  66.0140610
  62.2701416   5.4672065  64.9621124  24.8732300  31.7164192   6.7469683
  24.3562641  31.2982750   6.0583949  25.5331039  32.2250061   6.2756534
  80.4983902   4.2431736  18.3376560  81.1599960   3.5935004  18.1001034
  80.3268967   4.0821562  19.2655010  58.6771049  15.0886230  18.2709827
  59.0966644  14.2632475  18.0281754  58.0328178  15.2421703  17.5799351
  76.6693497  13.7614422  25.1666813  76.7486038  14.4100266  24.4671898
  75.7934647  13.3924589  25.0530682  55.5282631  18.5987492  19.8726997
  55.3782959  18.0077267  20.6105576  55.4298248  18.0448246  19.0982895
  85.7955475  69.1533127  36.7811584  84.8741074  68.9339523  36.6431122
  85.8728256  69.2786179  37.7269707  34.6564598  46.6243935   1.3601290
  34.5490074  47.1420441   0.5621783  35.5944939  46.6636925   1.5466188
  65.0368271  20.0097313  80.0343552  64.2143402  19.5685787  79.8218918
  65.2450027  19.7143917  80.9207382  69.8070602  20.9219666  36.7378197
  69.6521835  21.6805916  37.3006096  70.7602158  20.8429279  36.6992989
  79.8434753  56.1944466  23.5789680  80.3452759  56.9412727  23.2523537
  79.4625626  55.8002357  22.7942810   4.8292446  70.1088181   2.1107697
   4.5222912  70.7116699   1.4335846   5.1231394  69.3361435   1.6282427
  79.8757553  24.7633553  41.9124908  80.0932922  25.5140190  42.4651299
  78.9347839  24.8450279  41.7571030  80.4262390  34.4940033  79.0878754
  81.3269806  34.6997871  78.8377762  80.5046082  34.0834389  79.9489975
  60.1308632  42.9257088   5.4003844  61.0419769  43.1949081   5.2836041
  59.6809387  43.7208023   5.6860871  73.0870590  43.6508713  50.3192368
  72.5676498  42.9122505  50.6368523  72.7529526  44.4050369  50.8048706
  12.4632483  24.9392014  21.3350124  13.3759022  25.1621304  21.5183048
  12.0428534  25.7800465  21.1547890   8.7857351  42.3558846  25.4083977
   9.6798105  42.3167877  25.7480030   8.8916016  42.5486145  24.4767971
   5.5339437  12.8098078   1.4993186   6.1915388  12.8336191   2.1944683
   5.9008703  12.2178297   0.8426915  56.4413147  37.5964928  45.8914223
  57.1627655  38.0384979  45.4437943  55.6598701  37.8626137  45.4069023
  25.9407120  70.8301468  42.7240868  26.6404533  71.4693375  42.5898056
  25.9884262  70.6149216  43.6555519  37.8918304   0.9710549  81.5674362
  37.1110420   1.0188158  81.0157852  37.7624016   0.1850498  82.0981674
  72.7816162  26.0071163  29.9791927  72.7661972  26.5664577  30.7558079
  71.8627014  25.7899284  29.8221722  86.0049973  28.8402615  10.9754076
  85.2568817  28.4866390  10.4942598  86.6034241  28.0987530  11.0664034
  78.3535309  58.1445351  34.1366005  78.5026474  59.0694733  34.3327827
  77.6716385  57.8760033  34.7523537  40.8314285  26.7240276  81.1752548
  40.1196556  26.2396679  80.7569199  40.4052582  27.4879475  81.5638962
  60.4812241  25.0727749  75.3876724  59.6470757  25.0632172  74.9182739
  61.0794640  25.5387001  74.8035049  22.5041962  52.3157158  18.1119633
  22.2584438  51.4835854  17.7077408  23.2685833  52.6069603  17.6148529
  17.9611988   0.1098299  18.4747124  18.8282375  -0.0612307  18.1069965
  17.3908348   0.2001191  17.7113228   9.0824471  12.3930969  46.5365486
   8.7137289  11.5317364  46.7323456   8.3643599  13.0041409  46.7014961
  23.9727726   6.1961756  30.9153938  23.5805435   6.5240550  31.7246418
  24.9145260   6.2009811  31.0865974   8.7503214  29.9058743  37.1073608
   8.3184710  29.6663036  37.9273262   8.3074627  29.3804436  36.4410057
  35.1971855  26.7547741   5.9628234  34.5017853  26.3132458   6.4503698
  35.3465538  26.1963272   5.1998963  83.9855804  17.0575142   8.9574966
  83.4761658  17.5094624   8.2848406  84.6977692  16.6364861   8.4760847
  22.4823494  69.5282745  36.7481232  22.9881725  69.4084167  37.5518684
  21.6100750  69.1975098  36.9625053  78.6801376  70.1967087  27.2230625
  78.2768097  69.3441086  27.3862724  77.9449463  70.7738876  27.0167046
  72.2646179  37.2475433  45.2274666  72.6051941  36.4858475  44.7583580
  72.9697418  37.4955482  45.8254089  85.5600662  60.0770493  70.3308640
  84.9645691  60.6144867  70.8531494  85.3016968  60.2448921  69.4246063
  81.5773773  55.3501129  80.9372253  81.1189804  56.1395760  80.6493912
  81.8814545  55.5583611  81.8206329  21.9430695  18.4299812   5.1754742
  21.6979141  18.2755184   6.0877638  21.7596779  17.6004696   4.7344432
  18.9942551  30.0490570  20.9299126  18.9443817  29.8685551  21.8686161
  19.4933910  29.3153267  20.5711136  62.7880287   9.4388371  58.2593536
  61.8742676   9.2974281  58.0118217  63.1693420   8.5610943  58.2793655
  22.2410946  41.2082825  39.7418709  21.4751186  40.8629608  39.2833252
  22.3246593  40.6553001  40.5186958  50.2396889  11.7110481   1.6790469
  50.4290924  11.5407276   2.6017327  49.8289795  10.9050608   1.3661059
   6.3271198   5.8592477  27.3461342   6.2994494   5.5363002  26.4454842
   6.4066896   6.8090243  27.2576771  69.8582764  24.4692936   9.1128807
  70.6339874  24.5969658   9.6589565  70.1453705  24.7038307   8.2303848
  39.0674400  47.4612999  43.5350761  39.1787529  47.5283852  42.5867386
  38.1290474  47.3166504  43.6564484  74.8484192  56.6514359  44.3646698
  74.4562149  57.5229263  44.4186668  75.6917114  56.7403717  44.8087082
  52.5208473   0.1811053  39.5271225  52.0710030   0.9003376  39.0837517
  53.3964615   0.1716930  39.1405411  82.5055161  18.4161510  71.7097855
  82.7690048  18.1129551  72.5786285  81.8847122  17.7550774  71.4034958
  55.9525337  65.7819519  31.8289375  55.9938354  64.8693619  32.1147919
  55.2822952  65.7887878  31.1455917  81.0664978  27.3855209   8.8733006
  80.6527786  27.8205433   9.6188354  82.0032425  27.5397511   8.9956217
  29.8942242  69.4398346  39.7831078  29.3783150  69.8854294  40.4550552
  29.9823933  68.5425644  40.1046295  74.4563599  52.1479378  22.1735287
  74.0648499  51.8544617  21.3508358  74.4814301  53.1019783  22.0999374
  51.5107231   3.0867035  33.7830429  51.7702866   4.0023541  33.6808472
  52.3238831   2.5936437  33.6739769  11.0793114  17.8248158  58.6580772
  10.3214302  17.9763222  59.2227859  11.4981623  18.6823311  58.5841637
  23.0160522  71.3056183   3.7327962  22.8725986  72.2160034   3.9913535
  23.7340374  71.3463364   3.1010761  86.6875687  34.1942177  18.5318604
  86.2242661  34.9313965  18.1341705  85.9929504  33.6011314  18.8181877
  83.3309174  12.2602501   7.6289487  83.4674301  11.5042467   8.1999607
  82.8893280  11.9021378   6.8588924  66.1785355  48.2625809  75.6071777
  66.8683319  47.6162033  75.4567947  65.8311157  48.0452576  76.4722214
  85.4772339  47.9965096  74.3149872  86.3306351  47.8252487  74.7132492
  85.4522858  47.4254379  73.5472107  51.9148521  43.8831596  82.1241684
  52.1631660  44.6790886  82.5943527  51.0667152  44.0912361  81.7322540
  81.5601044   8.7518587  68.7102356  80.8502121   8.1125011  68.6509857
  82.3333282   8.2316608  68.9287415   3.4942491  50.9555435  53.8452988
   3.3067133  50.0247536  53.7240753   3.8684034  51.0119591  54.7245331
  67.0205612  55.7286644  88.2438126  67.0983047  55.6004639  89.1892014
  66.0866241  55.8800621  88.0986404  68.5188293   4.7953758  39.5101051
  67.9525528   4.0238276  39.5266342  68.0921021   5.4183159  40.0983963
  60.2380219  68.1323929  35.5420609  59.8254967  68.2234879  34.6831360
  60.7697525  68.9225922  35.6374016  57.5445518  67.4774857  51.4855118
  56.7173386  67.0328598  51.6705933  57.9015083  67.6881561  52.3483162
  33.0371017  66.8046417  68.2122574  33.5390663  66.3121719  67.5628510
  33.2592850  67.7201462  68.0427628  80.3839111  46.9622116  40.0458069
  80.9840240  47.0796928  39.3093987  80.8893661  47.2330093  40.8122368
  18.9962254  70.5521698  53.3760872  18.8940907  69.6419067  53.0981903
  18.5594463  71.0614624  52.6933899  80.0307693  70.5548782  17.5358601
  79.9512711  71.3297958  18.0921078  79.5449600  69.8745346  18.0020733
  18.5321636  62.0044174   3.1515005  18.0725708  62.6110191   2.5709474
  19.3929844  62.4025116   3.2808914  58.5778694   6.1953468  63.5284462
  58.8446884   6.8023806  62.8381195  59.1933746   5.4657793  63.4569054
  48.7363434  12.5538778  13.2571783  48.6592827  13.2585220  12.6139288
  48.5069695  12.9644794  14.0908604  15.4607878  49.6460037  36.1706200
  15.2263536  50.2038383  35.4289398  16.2318726  50.0659294  36.5518341
  74.9156036  55.1298027  82.0489120  74.6454239  55.0581093  82.9643860
  75.7756653  54.7106743  82.0194855   6.7280545  19.5618305  82.7443542
   6.4585733  19.9280205  83.5866852   6.4327040  20.2037354  82.0986328
  65.0961380   6.1508136  17.1005840  65.5401306   6.7099347  16.4630260
  65.5756149   6.2910571  17.9170780  13.3999710  47.6119843  27.0016117
  13.0688925  47.9593430  26.1733856  12.6935511  47.7712173  27.6275902
  19.0359592  65.4338837   1.9681929  19.2629528  65.1235504   2.8447771
  18.2400494  64.9524841   1.7423300  64.8593826  61.8631325  33.3748436
  65.6321030  62.1784973  33.8435440  64.8450012  62.3741264  32.5655823
  42.6089401  13.6054268  22.7154179  42.4374199  14.5244303  22.5098801
  42.5557365  13.5595350  23.6700363  67.6105423  19.1739349  13.9836740
  67.0725784  18.6537685  14.5805483  67.6503983  18.6530819  13.1815796
  69.7461624  19.0685062  48.1770744  69.7980881  18.5717754  47.3605003
  69.3364258  19.8969002  47.9278603  25.1661434  65.8153763  19.3754520
  24.7888374  66.5892105  18.9570637  24.6807747  65.0801163  19.0012188
  28.9683113  63.7988777  21.6717262  29.9071407  63.9784889  21.6210461
  28.5946960  64.2641602  20.9232903  37.8564453  63.1092186  55.8404732
  38.0620842  64.0340271  55.7038307  36.9788361  63.0022545  55.4736099
  18.6788712  59.8504677  77.7643890  18.4981575  59.8447647  76.8244247
  19.1418266  59.0280647  77.9242783  11.5126390  25.2883587   5.2572131
  11.3613434  24.5708179   5.8724184  10.6515789  25.6900826   5.1413465
   2.9411290  27.5545483  15.3077698   3.4697433  27.0973129  14.6537552
   3.4499974  28.3361359  15.5231876  55.4558716  34.0962524  29.7301636
  55.2541771  34.2406921  30.6546574  55.0355682  34.8267517  29.2763500
   4.5360632  26.3131199  51.2351189   3.7089140  26.6236744  50.8668633
   4.6662121  25.4515915  50.8388100  64.5330734   7.7025719  56.0991287
  63.9508514   7.4369202  55.3873138  65.3889618   7.3525686  55.8517685
  72.0704422  43.2874184  41.1146088  71.9720154  44.2236061  41.2881088
  71.3644409  43.0818748  40.5017853   0.7892076  67.8591156  15.1286602
   0.7410265  68.6160507  14.5447407   0.8702489  68.2369537  16.0043888
  77.1876678  52.5494881   0.8382313  78.0584335  52.5499344   1.2357348
  76.6783600  53.1553841   1.3764869   8.8947325  31.1760788  48.0162354
   8.2882566  31.8879948  48.2201843   8.4603586  30.3894958  48.3461418
  76.1216812  43.7618103  79.3189087  76.5910873  44.4081764  79.8462601
  75.2014847  44.0146484  79.3933487  16.0749302  51.7089806  55.5801773
  15.2507362  51.4537468  55.9946556  16.1153450  51.1813927  54.7825279
  53.7990799  67.1515427  46.0475693  52.8578987  67.0666809  45.8952103
  54.0787468  67.8382416  45.4422112  62.2941856  44.4087410  27.4680214
  62.0701637  44.5880585  28.3811970  61.5365524  44.7166824  26.9706287
  65.4843597   5.5187063  87.0160141  66.2470932   4.9407105  86.9960785
  65.6773224   6.1459484  87.7128448  57.5891304  70.4984131  51.5624733
  56.6520653  70.6592255  51.6732903  57.8092117  69.8769836  52.2564621
  86.2821732  71.6419220  66.0485382  85.7102509  70.9899902  65.6434097
  87.1612549  71.4070129  65.7514420   8.0691290   6.5880423  41.9495621
   8.8616810   6.0811806  42.1261520   8.0906143   6.7450705  41.0055733
  22.4878883  60.5255775  39.6422958  21.7334099  60.0506058  39.9907150
  22.1514797  60.9731064  38.8659096  29.3761044  41.8813667   1.8108537
  30.0421238  41.9557381   1.1273935  28.5553894  42.1022873   1.3705631
  70.5897446  19.5292187  27.1259937  69.8295593  20.0632915  26.8955231
  71.2044220  19.6635666  26.4046326   5.3753905   7.9325061  20.3641090
   5.1744537   7.5330787  19.5177555   4.6061592   8.4650908  20.5662670
  26.7953606  68.0532379  11.0935783  26.8411427  69.0067062  11.0226498
  26.4792423  67.8941269  11.9829521  56.5288811   9.0042009  33.4251022
  55.7966385   9.6006107  33.2690582  56.2879753   8.5326633  34.2225037
  32.5537605   1.2123970  42.9117317  32.7569389   0.7924242  43.7475357
  33.2946587   1.7967305  42.7509384  13.0753937  21.3341484  28.9102116
  12.2127457  21.0982094  28.5690365  13.6494141  21.3143635  28.1444836
  83.4343185  14.7686014  39.7525139  82.9538803  15.5923920  39.6701813
  82.8491745  14.1989460  40.2518387  67.6512451  36.8994865  16.7085724
  68.0746536  37.5173721  16.1126118  67.6175613  36.0782890  16.2179260
  16.2172832  18.4749184  54.3122025  15.2794361  18.3840923  54.1436119
  16.2732029  18.6961880  55.2417946  80.8131332  40.2906151  14.9541798
  80.7414322  40.4472046  14.0126009  80.9814911  39.3512840  15.0286274
  12.9578295  43.6962891  36.0154037  13.2919645  43.5004120  35.1400681
  13.7104311  44.0574646  36.4837799  16.1201096  55.4838715  15.0358343
  17.0038223  55.1868134  15.2527246  15.9855537  55.1960869  14.1328897
  67.8282700  34.3662643  15.8086281  67.1615601  33.6821823  15.7472973
  68.5346298  34.0641670  15.2376385  17.3960896  51.8227081  35.0588722
  17.9969025  52.4233665  34.6178970  17.2928238  51.0945396  34.4462242
  78.9569855  18.3557148   5.6984754  78.9281845  19.2526131   6.0316038
  78.2341156  17.9120846   6.1421919  33.4884491  40.3830299  19.7371521
  33.9217453  41.0212364  20.3038788  34.1998978  39.8351402  19.4056625
  84.1899643  12.1456766  32.0580521  83.2930298  11.9261265  32.3100929
  84.0958405  12.6389351  31.2431469  71.3829651  13.3856010   1.0668393
  70.7525711  13.5260735   0.3603669  71.9392166  12.6725349   0.7532227
  83.6579056  12.5585966  82.3052902  83.8694763  13.2622414  81.6918106
  82.9169693  12.1050978  81.9033279  67.5224991  22.1122932  39.8423996
  66.7042084  21.9836769  40.3220711  68.0737000  22.6173306  40.4401855
  79.3903656  44.2795639  52.4133110  78.6707916  44.8928146  52.2637329
  79.3845749  44.1295052  53.3586578  59.2709122  63.4029274  33.9713020
  59.5509720  64.1464081  33.4374123  59.5887566  62.6344643  33.4973030
  61.1889267  61.7509422  44.7855873  60.4548569  61.6095009  45.3833885
  61.8874016  61.1930237  45.1277695  20.2633686   6.8045878  29.5530052
  19.5210972   6.3283768  29.9251461  20.9243774   6.1309342  29.3933506
  22.4009895  66.5127335  71.0523911  22.2592354  66.8411255  71.9402542
  23.0737877  67.0883179  70.6887054  40.2290230  53.1643105  18.5497112
  39.8251495  52.7168999  17.8061104  41.0978775  52.7695236  18.6236515
  84.8414764  50.8992500  38.0947189  85.5255966  50.6283989  38.7069702
  84.0328522  50.8571930  38.6051979  39.9004860  40.1831017  76.0338745
  40.0424957  39.2481117  75.8860245  40.3653107  40.6124687  75.3156662
  28.0590229   2.9445627  47.8375511  28.2168446   3.8080106  47.4557381
  28.3895187   2.3292220  47.1830597  15.3273449  68.7789230  58.9235573
  15.6461773  69.6608582  59.1153221  14.5965834  68.6516037  59.5285454
  31.6723270  65.5831680  23.5789318  31.4739437  65.3225327  22.6795177
  30.8950882  65.3320923  24.0780239  73.1363602   0.0427510  66.6121216
  73.8342819  -0.5932562  66.7690659  73.5421143   0.7126918  66.0618744
  62.7985077   3.5265632  76.7538452  62.3949432   4.2027473  77.2980347
  63.7123833   3.7991433  76.6715775  41.6750221  58.2419510  43.1337357
  42.2509842  58.4878311  42.4098244  41.7274055  58.9788475  43.7424011
   1.2312707  68.9684677  56.3442192   0.7053574  68.3504257  55.8366051
   0.6163083  69.3463364  56.9729233  23.5483685  41.3795624  70.9953842
  22.7966690  40.7872467  71.0138931  23.7062531  41.5371704  70.0645447
  29.3243771  20.1875858  77.4900894  29.6912689  19.8306351  78.2989197
  29.6477852  21.0878983  77.4572601  34.2013130  67.7731705  20.0191097
  34.7886276  67.2754211  20.5879116  33.5757942  68.1804581  20.6183414
  13.0241814   9.2987280  62.2351875  12.3776035   8.9870691  62.8684654
  13.8635912   9.2101221  62.6865997   9.5252457  67.5012054  12.9997530
   9.5127449  68.4054337  12.6859980   8.9035711  67.0428772  12.4343414
  61.2804489  18.3130512  63.1025848  61.4127617  18.4871082  62.1706886
  60.3442307  18.4552593  63.2422371  38.6891479  35.2606354  76.2266922
  38.6799393  34.6551094  75.4854202  39.0288506  34.7416306  76.9557114
  66.9015656  47.7405891  68.1416855  66.5312042  47.6793709  69.0222092
  66.3954239  47.1137505  67.6248474  55.3770027  18.4781761  79.2071228
  54.4341927  18.5171185  79.3678131  55.5502281  17.5554905  79.0203705
  12.5631027  37.4431801   7.3111815  12.1835403  38.0055428   6.6359682
  12.1216898  37.7069435   8.1185331  38.8039513   5.1465206  31.7565613
  37.8892822   5.3779378  31.9179726  38.7820206   4.6318617  30.9497929
  45.5142403  35.9665642  76.7991180  46.2727547  36.5337677  76.6606750
  45.4118347  35.4972382  75.9711838   4.2640052  19.9605103  52.6130943
   4.4332242  19.9705391  51.6710243   3.3760734  20.3071270  52.7006493
  84.6026154  19.4325428  51.9807281  84.4185028  18.7239914  52.5974045
  84.0058670  19.2744827  51.2491913   1.5159405  46.2079735  72.4059372
   2.4189017  46.4659653  72.2206497   1.0343540  46.4331970  71.6099625
  70.6221466  22.1264954  57.9702339  69.8732834  22.7154160  57.8774757
  71.2961273  22.5053387  57.4059067  69.5008316  68.0300064   7.0063720
  70.1743317  68.0257111   6.3262172  69.9838562  68.1697998   7.8208547
  84.0761871  50.0302773  27.2218781  84.8907089  50.1236992  26.7278576
  84.3588028  49.8257980  28.1132526   0.8763464  47.9064903  23.7226429
  -0.0031807  48.2520485  23.8751316   0.7426121  47.1608696  23.1374950
  69.9243317  52.7491798  81.6712494  70.2156677  53.5920105  81.3234100
  69.0089111  52.8926773  81.9113312  17.2349186  64.6303024   6.4850712
  16.6353035  65.2215729   6.0299916  18.0951080  64.8310471   6.1162815
  27.9856186  61.8498383  19.5158463  28.0878925  61.8620567  18.5642033
  27.7694817  62.7536888  19.7451305  73.6322174  71.7166138  87.6527405
  73.0142822  71.0820160  87.2898712  73.4771500  71.6890030  88.5968933
   0.7741305  23.0848217  26.5907402   0.4996313  23.9628429  26.8552437
   1.4049808  22.8193493  27.2599068   3.1102915  66.1301727   0.4144946
   3.2967541  65.1922531   0.3724891   2.1997316  66.1805573   0.7053096
  84.7391891  53.5494461  78.1944504  85.6173706  53.4705162  77.8218994
  84.8773193  53.5220566  79.1412354   3.3872876  53.6557617  84.7211914
   3.8803637  53.5410233  85.5335541   3.3595908  54.6034737  84.5896378
  51.7983894  53.9160538  49.0682907  51.6261368  53.9013481  48.1268311
  50.9611168  53.6817169  49.4686546  39.2605476   2.7763729  78.7054062
  38.5770950   3.1253235  79.2775574  39.9474373   2.4831028  79.3040771
  54.1345139  34.0712814  13.8236122  54.4274368  34.1781769  12.9186249
  54.8291435  33.5624161  14.2416725  42.5217438  21.8945198  70.8739243
  42.0847435  22.0874348  70.0444412  41.9160271  22.2125626  71.5433960
  23.3440514  53.8317070  12.7876291  23.6123886  53.0337143  13.2430754
  24.0794849  54.4331017  12.9046640  57.9373703  49.5097923  80.9489746
  57.6662216  49.2918243  81.8407211  57.2512817  49.1404686  80.3929977
  15.9258804  11.4806890   9.4655514  16.3673229  12.3164768   9.6166096
  16.4335766  11.0640888   8.7691898  15.9200182  37.0492020  84.3365555
  15.7383327  36.7390060  83.4494247  15.1188822  37.5014420  84.6009216
  16.9882622  41.3391876  65.6197510  16.5402298  41.0139732  66.4006042
  17.8622799  40.9516792  65.6662445   4.4293432   6.6539125  78.4720535
   4.9930000   5.9391527  78.7680969   3.7396104   6.7048302  79.1337967
  84.8574219  53.6034470  60.1107674  84.4962540  54.3979416  59.7176208
  85.8060379  53.7182770  60.0545044   6.3702774   6.1440086  22.0920944
   5.9580088   6.7283664  21.4558620   7.3026638   6.1763759  21.8779945
  15.4070444  53.0244026  41.2908745  16.2515049  53.4526978  41.4311714
  15.1333418  52.7428207  42.1638145  45.0552368  52.1918907  86.7731476
  44.4150314  51.5179214  87.0014801  45.0993690  52.7525444  87.5477142
  85.7521820  31.4239254  53.2737389  85.4398041  31.4091511  54.1784134
  86.2017670  30.5863152  53.1618805  27.5981998  59.3054733  28.8025036
  28.1719112  60.0676460  28.7238636  27.4111233  59.2421341  29.7391052
  69.5315094  38.9438019  48.0145645  70.1207123  39.4934082  48.5312920
  68.7076187  38.9518623  48.5017662  25.5304966  26.1762505  78.9011993
  25.5210342  26.3286781  79.8461380  26.1113796  25.4242744  78.7856979
  21.2665863   7.1945367   2.4595456  21.4871559   6.2813773   2.2759156
  21.3375912   7.6332340   1.6117632  25.1282368  65.1091919   2.5304515
  25.7862015  64.5826187   2.0765412  25.3302937  64.9964066   3.4592600
  17.5512962  44.6299553  59.8560257  16.7486725  45.0612679  59.5627785
  17.2599068  43.7792854  60.1841774  16.2068977  58.5609589  86.2417374
  17.0889111  58.8521156  86.4730682  16.0602684  58.9147224  85.3644791
   7.3037148  46.4708595  81.2416992   7.1586699  47.3989677  81.4255676
   6.5528364  46.0281410  81.6371918  75.4424820  14.7470188  61.3214722
  74.8623886  14.3414469  60.6770897  75.3381271  15.6877985  61.1790771
  54.7337418  64.5256424  46.8637619  54.4217033  65.3138580  46.4192619
  55.0440559  64.8371124  47.7140121  43.9854546  45.7067642  59.1417770
  44.9036369  45.9593315  59.2386703  43.5081406  46.5364456  59.1361313
  59.7404900  20.9106026  26.7133904  59.6125069  20.0020447  26.4406719
  58.8786736  21.1922092  27.0203114   0.7952784  17.8703442  17.2307949
  -0.1591029  17.8676834  17.1574402   1.0487314  16.9578476  17.0917225
   6.7991018   9.6577559  77.1276016   6.4325042  10.3075523  76.5279312
   7.5077190  10.1189079  77.5764160  46.4003487   9.5174313  15.4320679
  46.1487999   9.1286316  14.5943394  47.3571320   9.5353270  15.4101315
  40.2017174  24.3865738  87.5641632  39.9696350  23.7203140  88.2110519
  40.1966667  23.9206238  86.7280426  84.0568390  49.8242798  63.8392715
  84.6942139  49.4737358  64.4614487  83.6752472  50.5793114  64.2870941
  30.9615059  52.2040138  44.3035393  31.5467606  51.8788605  44.9876328
  30.1068420  51.8332672  44.5233727  54.7628288  31.5082779   8.5810614
  54.6125183  31.7737904   7.6737900  54.6109543  30.5632057   8.5823421
  31.3703270  63.2988205   2.2487059  30.6685009  62.7617531   2.6164463
  32.1188774  62.7054214   2.1872418  77.8178864  64.3408127  47.1847954
  77.5746613  63.7219658  47.8733482  76.9824524  64.6468277  46.8317604
  22.1028748  38.7810364  65.9535675  22.2591152  37.8405075  66.0385666
  22.7424412  39.0723076  65.3036804  76.4888992  31.8067417  38.6856689
  76.3899307  32.7218285  38.4228935  75.5924606  31.4766159  38.7461281
  84.2993088  28.1758289  78.4066391  84.8177109  28.6898155  79.0257568
  83.8257294  28.8285580  77.8909836  77.5395050  65.7700043  85.2837524
  78.1652985  66.3601151  84.8637772  77.6163635  65.9647293  86.2177811
  72.9119110  51.1006165  67.6399689  72.3759613  50.6164627  67.0118103
  72.5725708  50.8391876  68.4959717  37.6876793   4.8100514   6.3229985
  38.1139755   5.1133389   7.1245713  38.1330566   5.2841053   5.6207561
  72.0284195  44.6003151   1.5257624  72.7864685  44.3518677   2.0547974
  71.7162552  43.7759857   1.1525826   7.3745875  23.7523041  24.7034760
   8.1660242  23.3592415  24.3355618   6.6652498  23.4251003  24.1502953
  45.4541473  42.0648575  58.0632172  46.1898651  42.1099777  57.4525490
  44.6772041  42.1099281  57.5059319  57.7876396  15.2997322   5.4777179
  57.5518723  14.8319559   4.6765738  58.3510170  14.6899309   5.9541426
  43.7772064  58.4524574  31.4355450  42.8290710  58.5479698  31.3452911
  43.9002838  57.5488968  31.7265205   6.3420744  43.9346733  13.0214920
   6.9170980  44.1780663  12.2959986   6.5018883  44.6026039  13.6882467
   8.5688477  24.4900284  17.8688240   8.2632132  25.3131084  17.4875622
   9.4745026  24.4092159  17.5696735  32.0768242  20.3996563  83.6194000
  31.7103634  21.2445221  83.3583679  31.4281120  19.7577286  83.3307266
  60.9460487  39.9100761  54.3561287  61.2049026  39.9542007  55.2766075
  60.5802803  39.0316620  54.2520294  72.2363129  22.5874615  46.2796898
  72.0404205  22.9952526  45.4361458  72.9434662  23.1195374  46.6444664
  44.9492836  44.8999443  23.5986423  44.1560326  44.6379318  23.1313839
  45.5723572  45.1222725  22.9068489  61.2382278  13.9388523  70.3636551
  60.5211906  13.6744061  69.7873230  61.8510437  14.3972225  69.7886963
   2.9026401  13.1694679  43.6393242   2.1592062  13.1817560  44.2421379
   2.5078969  13.0580740  42.7744522  84.0754852  18.9720974  23.0418987
  84.0081253  19.3256721  22.1549492  84.9636993  19.1939449  23.3213596
   6.2441435  28.1128063  24.3899956   5.3598795  28.3110752  24.6982117
   6.1208000  27.4276562  23.7330418   6.8899345   5.9856796  84.7475433
   7.3380251   5.2496095  85.1642532   6.7698078   5.7096200  83.8389206
  74.1991043  45.8515663  59.3531494  74.5158844  45.1837502  58.7449532
  73.4552002  46.2518921  58.9030685  59.6761818  25.6966381  72.1127930
  59.9529228  26.5312958  71.7346420  58.7446785  25.8149967  72.2986069
  11.1862164  37.9158249  74.8896637  10.6692038  37.6435661  74.1315002
  11.9422312  38.3673019  74.5143738  37.1310043   4.0216022  79.9243393
  36.5596886   3.2830269  79.7137680  36.5984497   4.7958617  79.7422943
  16.3892002  28.7329044  16.2780361  15.5658798  28.2446804  16.2816696
  16.3071842  29.3352909  15.5386877  44.3491707  28.3090992  15.6671000
  44.3572006  28.8706760  16.4422131  44.8803101  28.7798061  15.0247927
   2.0343063  63.0881310  64.6024246   1.8074722  62.8815956  63.6957130
   1.2901989  63.5960808  64.9257202  54.2122002  13.5685616  15.3110762
  54.2353935  12.6127110  15.3562813  53.3338509  13.8013315  15.6119909
  58.5545616  19.4953804   2.1164045  58.9998779  20.3375912   2.2091734
  57.6235580  19.7083778   2.1804304  64.0356216  41.7141914  56.9854889
  63.7740173  42.1352272  57.8043480  64.5939178  42.3596535  56.5519981
  45.8262100  54.8466988  17.8700542  45.5206184  55.5324860  17.2763062
  46.2334061  54.1973839  17.2966309  57.9891586  17.2823086  63.8398285
  57.6831055  16.5486984  63.3065567  57.7037659  17.0682163  64.7280579
  34.9156647  67.3778534  35.4191017  34.3044701  66.7772446  34.9925575
  35.7675629  66.9485397  35.3404160   9.6801157  13.0098009  11.1424379
  10.6067009  12.8480320  11.3199310   9.2167959  12.5135317  11.8171844
   6.0719581  19.1796799  21.7087631   6.4099631  18.4520721  22.2308445
   5.1588678  18.9483948  21.5384521  56.7249603  13.6118803  76.5426559
  56.2963066  14.3808298  76.1668854  57.5754929  13.5740700  76.1051636
  26.4946022  47.0409927  57.6509056  27.0052776  47.8412895  57.5285645
  26.2041206  46.8051987  56.7698517  14.6387253   1.6805924  40.9644318
  14.9286356   2.5900519  40.8932457  14.6384726   1.3580464  40.0632133
  33.3638916  48.3468285  29.8493309  32.7651749  48.7344246  29.2109451
  33.8348732  47.6737213  29.3580666  31.5468311   9.8226376  45.5452003
  32.1892319  10.5187454  45.4074135  30.8651733  10.2283869  46.0808716
  76.0276947   7.3114362  39.8361359  75.4694214   6.9870076  39.1295166
  75.4819565   7.9462204  40.3003044   3.6037300  16.8194561  36.0433311
   2.7720168  16.8608112  35.5713425   3.3655794  16.9544754  36.9605484
  17.0089455  10.3888111  36.6114731  17.2262897  10.3073492  35.6828423
  16.1148205  10.0537243  36.6784821  64.3403320  30.3815670  44.2071762
  64.7985001  30.8679008  43.5217667  64.9435425  29.6775551  44.4453621
  81.3673325  45.4397087  11.7146397  81.0710678  45.5066910  10.8069105
  82.2181931  45.0049820  11.6574221  10.3390322  68.2452393  59.9780731
  11.0609627  67.8208466  60.4416847   9.9350042  68.8140411  60.6334038
  60.8475533   5.7236834  83.7085800  60.6329727   6.6096559  83.4166183
  61.6377678   5.4950275  83.2191849  65.6140823  35.6923752  40.3156128
  66.2263947  35.9278488  39.6185722  65.4320068  34.7638626  40.1709061
  47.8673325  35.9141769  74.4206619  47.1610107  35.2681656  74.4242935
  48.6640778  35.3986359  74.5457382  46.7080688  42.1878548  74.7372665
  47.3009262  41.6334763  74.2299118  47.1638336  42.3294373  75.5670090
  59.3632317  12.8997498   6.1518693  60.2292252  12.6212864   6.4497709
  58.8472404  12.0938597   6.1289554  34.0485268  55.0005035  18.6503181
  34.6897011  54.3053970  18.7984829  34.5125313  55.6442261  18.1150112
   8.1499281  67.0022202  56.7644691   8.7835016  66.5468750  57.3189735
   8.5162477  67.8794785  56.6528473  39.2737617  48.9968796  32.6098137
  40.2246971  48.9556122  32.7110519  38.9730186  49.4918289  33.3719215
  59.5092278  48.4061012  52.5398064  60.2663307  48.0378799  52.0843506
  59.0699806  47.6482353  52.9257278  80.1921158  61.3418350  58.8007469
  79.8207397  60.4762726  58.9713898  80.7095413  61.5386467  59.5816231
  72.2092361  63.9070053  85.9507446  71.9597549  64.4927139  85.2359467
  71.3974152  63.4583931  86.1872330  19.3783417  71.1888123  45.0756073
  20.2830887  71.2374420  45.3843117  19.4538422  70.9789581  44.1447487
  61.6006660  40.3611145  57.0116653  62.4814491  40.6261330  56.7466812
  61.7191582  39.9657669  57.8753166  60.8064957   8.0113564  21.6304016
  61.6534958   8.3428288  21.3321667  61.0234489   7.2521129  22.1714306
   2.7414634  52.3935852  70.4885330   3.4045811  51.9356232  71.0050354
   3.2088027  52.6900864  69.7075653  50.0594635   8.8791132   2.7479308
  50.9983139   8.6956291   2.7144356  49.7573586   8.7468328   1.8493387
  73.4194641  48.9949989  65.5286331  73.9446106  48.1996689  65.6175156
  74.0575409  49.6837540  65.3423462  69.2015305  30.0638485  15.8147497
  69.3561859  29.5606785  15.0152912  69.3824005  29.4475060  16.5244274
  77.2812424  22.5073490  63.6050682  77.0291214  23.1580982  62.9499397
  78.2382965  22.5090866  63.5884323  26.7493916  69.5148697  16.8943062
  26.7023582  70.3340988  16.4014740  27.6513462  69.2164688  16.7773914
  47.3185539   2.3955467  78.2631912  48.0388985   2.6245482  78.8504715
  46.6792183   3.0977430  78.3831940  55.8202705  26.7993069  33.3691788
  55.0736198  26.9793625  33.9404297  56.5416641  26.6119747  33.9697876
  66.0878601  10.9351187  21.8759537  66.8242798  11.4099417  21.4906502
  66.0259705  10.1305227  21.3611469  58.0972557   6.1358857  45.7465172
  57.6502914   6.6500568  45.0741463  57.4520187   5.4825497  46.0168037
  79.4792328  27.8253632  82.8132935  79.4547729  26.9064445  82.5464172
  78.8987350  27.8696404  83.5730896  51.4749374  63.0301666  40.9808998
  50.9501610  63.5508423  41.5889626  52.2798691  62.8389320  41.4622993
   0.9258969  67.2052002  33.5038300   1.0271636  66.4271469  32.9555435
   1.7169330  67.2232208  34.0425034  40.5615044   3.5105700  46.0895348
  41.3814659   3.4243543  46.5758095  40.7846146   4.0620203  45.3396339
  80.7908554  33.8868027  39.8591309  81.3689194  34.6390762  39.7320213
  80.0108719  34.0944710  39.3446121   7.8960924  68.7208481  41.1077385
   8.5618296  69.0487213  40.5031509   7.0658708  68.8781357  40.6580429
  66.4451447  69.4585800  55.7243347  66.9421082  69.6921234  54.9402924
  66.3305130  70.2865753  56.1907196  42.8236427   9.5447073  21.7105274
  42.0143127   9.8055038  22.1500740  43.3347359  10.3518524  21.6511097
  85.9688034  61.5381241   5.2939849  86.9222641  61.5603981   5.3755388
  85.7831726  60.6934433   4.8837547  30.0732384   5.6160998  34.5932007
  30.8815498   6.0491261  34.8677025  29.3810978   6.0799661  35.0643730
  56.8596077   5.6414366  66.0156174  57.2526512   5.7842126  66.8766403
  56.7847862   6.5178890  65.6381760  63.9438515  26.2469006  52.5490189
  63.0326271  26.0040455  52.7131004  64.1897659  26.7793388  53.3055038
   2.1376762  14.0277548  28.9599476   1.7787207  14.9150095  28.9472141
   3.0388148  14.1295385  28.6536446  30.9420071   7.9215651  13.0556021
  30.6193867   8.5662842  12.4259310  30.5374527   7.0978212  12.7835464
   1.9624835  13.2541819   6.6656775   1.1078444  12.9335346   6.3775649
   2.2056832  12.6732597   7.3865209  27.7524071  59.4929085  31.7861595
  27.0874596  59.0715866  32.3307381  28.5633030  59.4046974  32.2870560
   3.9589911  26.9112453  65.9038544   3.7954962  27.0289173  66.8396225
   4.9097219  26.8232536  65.8360291  47.2819138  38.4395828  86.2232513
  47.6073380  37.8261490  86.8820572  47.8679085  39.1936760  86.2879562
  81.8472595  31.6463985  40.8373871  81.6067963  32.4880333  40.4500046
  82.7249298  31.7880478  41.1921463  48.0245705  54.4136200  39.3190041
  47.8174934  53.6663666  39.8802223  47.6630745  54.1787415  38.4643784
  20.9463596  67.6357498  25.0175800  21.6237984  68.2252579  24.6862335
  21.4262009  66.9793015  25.5226135   0.9329584  52.7844696  84.1464157
   1.8415650  53.0234566  84.3295822   0.4610140  53.6172295  84.1493225
  82.7751999  44.2268105  81.8098068  83.4261322  44.4645462  82.4701080
  82.9577026  44.8097076  81.0728149  18.0499210  60.9413147  63.9800034
  17.7042618  60.7086525  64.8417587  18.9951591  61.0133324  64.1125488
  36.5847664  65.6682892  46.8067055  35.6436882  65.6063843  46.9703484
  36.9841957  65.1539001  47.5081978  25.3938370  50.3366356  81.4406281
  26.3402576  50.2547302  81.5581589  25.1053677  50.8676224  82.1829681
  39.2632675  56.9374695  80.6594925  40.0440369  56.6000710  80.2204056
  38.7338371  56.1601372  80.8375168  25.4333878  52.5963936  48.2614861
  26.0985985  53.2691002  48.4070625  24.9197159  52.9233665  47.5229340
  51.1427116  65.3984222  73.8104172  50.3191147  65.1973648  73.3660049
  51.8158340  65.2487793  73.1465302  65.9647141  12.8529682  86.5626068
  65.4820175  13.1644249  85.7969437  65.8107376  13.5208416  87.2307892
  79.9347534  20.4404163  85.3485336  80.1686478  20.7011490  86.2393494
  79.6788025  19.5214443  85.4273529  38.1093025  29.8440151  23.3719330
  37.6678925  30.0328140  24.2000294  38.3800926  30.7015171  23.0439186
  30.3157120  36.4319305   8.6354990  31.2423267  36.6486588   8.5323257
  29.8536549  37.2347412   8.3941851  24.2855949  44.4422150  75.8429184
  23.8525944  45.0348778  75.2285156  23.5690689  44.0453911  76.3382492
   7.6594095  70.8852081  62.3211746   8.4161386  70.3202362  62.4773674
   6.9059339  70.2976608  62.3785934  23.7040195  13.2432642  81.0430298
  23.6325531  12.3355856  80.7476578  24.3816872  13.2226057  81.7187271
  51.2205505  40.8786545   6.0884566  51.8153648  41.5155487   5.6924825
  51.7965851  40.2025681   6.4452887  54.5724754  28.9126358  68.8021774
  53.7550926  29.3987846  68.9106979  54.3053970  28.0779095  68.4173050
  41.5515404  20.3123779  80.5699158  41.3343544  20.5782242  79.6763840
  42.4320602  20.6584206  80.7154236  46.5847359  42.3256340  77.7435684
  47.5343323  42.3893433  77.6414032  46.3902740  41.3990936  77.6023483
  86.6388245  52.3834610  43.8942604  86.2221832  52.5858116  43.0565872
  86.5488815  53.1868820  44.4067574  71.1050949  47.3358650  31.7331066
  70.1529846  47.3864822  31.8177452  71.3512421  48.1550369  31.3034592
  17.0394459  67.9782944  67.8255005  17.1972866  67.5334778  68.6582413
  17.4973202  67.4429398  67.1774445  68.8917847  24.9171391   1.3243655
  69.7901535  24.5873756   1.3037785  68.6204605  24.9305096   0.4065219
  11.2802248  62.7997551  38.4686165  10.7328272  63.3703194  39.0081024
  12.0233917  62.5797920  39.0303535  82.9492188  66.1517868  24.4805927
  82.6075974  65.4732132  23.8983059  82.7053986  66.9752045  24.0577869
  84.6529999  21.0780525  40.8479309  85.4288254  21.6386852  40.8518639
  84.0301971  21.5349407  40.2826004  44.4678574  33.3334312  12.1272669
  44.6677132  34.0438423  11.5176716  43.5529861  33.4762535  12.3698559
  52.3204575  16.8196125  16.0581760  53.2345695  16.9961548  15.8357754
  51.9438286  17.6833305  16.2266140   9.3141384  49.4368744  68.9351578
   9.5330811  48.5098114  69.0292053  10.0374002  49.8980751  69.3599167
  68.1329727  14.9808741  34.6931458  68.3028870  14.3400030  35.3835373
  68.5390244  15.7876682  35.0100594  71.5913162  19.2478523   4.4428473
  71.0203781  19.7100182   5.0565743  71.1640015  19.3527527   3.5927715
  61.7705231  58.2055664  25.0658073  62.4711189  58.6412659  24.5804558
  62.2253189  57.6900330  25.7318554  75.8546982  30.8017979  48.4122429
  75.3485031  30.3422279  47.7423248  76.7567139  30.5149555  48.2696724
  58.7428284  59.1000786  37.9209480  59.5392113  58.6004677  38.1009369
  58.9862251  59.6898766  37.2074127  24.6169300  25.2335396  24.1882172
  25.2872334  25.8175735  24.5429401  24.0424576  25.0490055  24.9312935
  42.7109528  69.6538162  51.5320053  43.0613060  69.6779404  52.4224548
  43.2679291  70.2563324  51.0390701  11.4881783  34.0499382   0.3263756
  11.4278336  34.8523369   0.8447821  10.5793447  33.8232079   0.1292775
   8.0891733  56.3132019   7.8204470   8.1244087  55.3664970   7.6835551
   7.3172917  56.5974274   7.3309088  83.3108521  38.7949104  16.9233055
  82.7099075  39.4475136  17.2827587  83.6300583  39.1856003  16.1098537
  18.0682774  15.6270733   0.2851023  18.7272682  15.5844860  -0.4078244
  18.4982624  15.2417641   1.0485690  17.6044731   0.7882803  46.8958931
  18.1893444   0.4127395  46.2377701  16.7897301   0.2947484  46.8018112
   6.5545502  58.1593399  16.2547035   6.4322581  58.6862717  17.0443993
   5.6674314  58.0049629  15.9300184  57.4818573  30.3646297  38.2981300
  56.7521477  30.9313793  38.0480232  58.0687180  30.9348774  38.7947617
  58.6205177  49.2754631  12.6655455  58.3396835  49.0408325  13.5500298
  58.1562538  48.6618729  12.0961628  33.6778145  45.9502106  84.4790878
  33.5403290  46.8367157  84.8129196  32.8198624  45.6826019  84.1496353
  59.1369629  45.7808304  54.0202980  58.7290115  45.1842842  54.6479492
  60.0214195  45.9175301  54.3598251  51.9275360  62.8491592  66.4217606
  51.2997932  63.0522385  65.7282715  51.8647270  63.5889893  67.0258636
  21.0396461  14.8864183  15.3044834  20.9855118  15.0561686  16.2449551
  21.9778690  14.8206892  15.1265793  85.7842407  53.1722298  80.6523514
  85.6315155  53.0788612  81.5926666  85.5103836  52.3336716  80.2807922
  43.1873779  47.5950279   5.3693590  43.5639076  48.0363770   4.6079979
  42.2422142  47.6267052   5.2214141  31.1693115  46.2672501  63.1954803
  31.5640583  46.9720078  63.7090263  31.2859726  45.4843750  63.7337456
  81.3699799  12.8298702  28.0149326  81.0162354  13.6490774  27.6685238
  81.6500168  12.3431435  27.2397499  59.9464455  16.0669060  67.0982666
  59.2436562  16.6086731  66.7393646  60.4996872  16.6811123  67.5808640
  57.8364220  22.9727020  36.8712463  57.4427567  22.1060982  36.7699890
  58.7300644  22.7968941  37.1657410  13.9077654  42.6807327  27.1629200
  13.9134035  43.6369133  27.2067699  14.6815367  42.4601822  26.6443977
  71.3778992   5.3823128  53.3466492  71.5281143   6.1311808  52.7697067
  72.2273636   5.2226048  53.7578964  13.5518703  61.1227951  78.5502853
  13.5101805  60.1861534  78.3574295  13.0192137  61.2289810  79.3384705
  12.9547005  69.0424500  84.2626190  12.7535896  69.3716965  83.3866119
  13.4597778  68.2441254  84.1083221  26.9140072  45.7187614  71.9409409
  27.0504818  44.7801208  71.8122482  26.0498657  45.8887749  71.5659943
  71.6100845  25.7313175  10.8583174  70.8065262  26.2507477  10.8316851
  71.5910645  25.3044357  11.7148466  55.7895699  36.2746696  21.4643021
  56.6367226  35.9684334  21.1405983  55.1478958  35.7296715  21.0088196
  63.9229813  11.6633549  42.9889565  63.0203133  11.3653669  42.8765945
  64.3015442  11.0488882  43.6177330  81.5601578  24.9164429  67.1121902
  80.9479065  25.5630569  66.7611008  81.3091583  24.8232098  68.0311813
  45.5545197  36.8407898  11.3225632  45.3389130  36.0874786  10.7727718
  46.5090218  36.9007645  11.2830658  19.6535702  26.2462635   6.2107010
  19.3467159  25.5546227   6.7969646  19.5220604  25.8909740   5.3316636
  35.8030281  48.8012466  54.5907593  36.2433548  49.6087723  54.3257179
  35.4957962  48.4155884  53.7703247  21.2810745  14.4694929  51.6136398
  22.0253124  14.1618204  52.1310158  21.4267139  15.4109926  51.5209084
  34.7654190  59.5993233  38.1261673  34.1470642  59.4986115  38.8498573
  34.2291527  59.5084419  37.3385162  52.5641556  59.4221916  48.2344398
  52.3750496  60.3483620  48.3850327  52.2986450  59.2678528  47.3278427
  38.6188583   1.3996279  39.9505119  38.2547684   1.0745271  39.1271172
  37.8614731   1.4873029  40.5292282  27.3230057  50.7875519   9.9465351
  26.9940014  50.0054283  10.3895597  28.2711563  50.7536964  10.0734043
  76.7262192  11.9876041  49.8406715  75.9860916  11.6009254  50.3085594
  76.4393158  12.8765059  49.6314583  75.0105209  33.9712067  54.0854874
  75.4737320  33.5048561  54.7813187  75.1507797  34.8971939  54.2832451
  29.9804707  58.8398018  33.1357803  30.6456261  59.5152016  33.0029984
  29.6980705  58.9568062  34.0428581  50.7424393  63.0816498  63.7657127
  51.4329567  63.4470673  63.2126465  50.5924416  62.2043953  63.4133568
  63.7664413  56.0697899  12.5878553  64.1123352  55.2257271  12.2977705
  63.7507401  56.6071548  11.7958813  62.4004440  33.8941689  84.1995621
  62.0725288  33.3020782  84.8764114  62.2938805  33.4066353  83.3827438
  15.3429852  44.1707115  55.4236946  15.3205042  43.6761589  54.6044579
  14.6640940  44.8374329  55.3196869  22.8683548   9.3386393  36.3925514
  22.5515614   9.9327869  37.0728912  23.0327950   8.5149031  36.8515167
  46.1942787  28.1062393  27.7061424  46.1952438  28.0617294  26.7499771
  46.6881828  28.9005718  27.9094372  74.0815353  52.6253777  45.9908867
  74.7629013  51.9598198  45.8959885  74.5581970  53.4272308  46.2054749
  61.6984711  43.8793182  65.4909363  61.9282875  44.3018188  66.3185272
  60.7529640  43.7411118  65.5470352   9.5711832  44.7384262  45.0931931
   8.8753386  44.2300682  45.5098495   9.1115665  45.4380875  44.6290169
  50.9606514  56.3408241   7.3691249  50.8119507  56.4339142   6.4281392
  51.8934059  56.5228882   7.4833760  54.5797501  53.8944168  50.1094513
  55.1294174  53.9697113  49.3294296  53.6843987  53.9716148  49.7798805
  17.4694462  13.8135576   5.7811699  16.7979698  13.1401548   5.6721754
  17.1528664  14.5535412   5.2630630   1.0104547  38.0328178  56.2327843
   0.9217803  38.0908966  57.1840973   1.7243754  37.4099731  56.0963631
  23.3815098  38.7884521  32.8562317  24.2277222  39.2032242  33.0239220
  23.5973301  37.8792648  32.6488037  55.5030174  68.4052658  26.8304424
  55.6494789  69.2547836  27.2464981  55.4631805  68.6007614  25.8942661
  14.3462048  57.5457344  61.4542542  14.5331059  57.3530922  60.5354576
  14.1509943  58.4827194  61.4676132  56.5233192  32.0288544   3.1054237
  57.0681648  32.7913322   2.9104912  57.0403786  31.2817192   2.8043089
  27.9592648  58.0345726  60.9768524  27.1273804  57.5613022  60.9621239
  27.9315891  58.5424004  61.7877655   2.4849129  45.2660751  54.4843216
   1.8229624  44.6524315  54.1657372   2.8448365  45.6631737  53.6912308
  41.2023201  63.4691734  45.2499733  40.6577148  64.2344742  45.4342232
  41.7034683  63.7135468  44.4719238   6.6044044  52.0650139   9.7512264
   7.4867249  51.9079437   9.4149656   6.1701851  51.2140884   9.6911469
   2.3843288  25.0649853  16.6540565   3.2130709  24.6025543  16.7788639
   2.6319702  25.9874077  16.5904751  84.9487762  27.5278759  28.2639179
  84.1483841  27.0936966  28.5590363  84.6789246  28.0312462  27.4957829
  14.3999586  26.8847694  84.3044281  14.1141958  26.4275227  85.0953064
  13.9347372  26.4455070  83.5924911  72.2274780  16.8471279  47.4867783
  72.8281631  16.8539257  46.7415504  72.3733673  17.6882858  47.9196777
  69.3918381  40.5344315  77.4463196  69.9237747  40.9011497  78.1525803
  69.0629272  41.2984619  76.9727097  52.0634499  30.4521370  59.2115135
  52.2095985  29.5740566  58.8595963  51.1233826  30.5988007  59.1066284
  20.7406921   9.3884449  87.0268478  20.2695713   9.3844357  86.1936188
  21.1927319   8.5450373  87.0504608  34.1277847  47.4495621  80.1562958
  33.8381081  46.6275711  80.5520859  35.0826683  47.3847198  80.1412659
  66.5830841  56.8591461  22.2327347  66.3342514  56.9216080  21.3105564
  66.2767868  55.9942398  22.5054073  47.5760078   1.7742996  68.2881775
  46.7680626   2.1295784  68.6586227  48.0679817   2.5445101  68.0036240
  39.6655083  26.3495121   8.1556549  40.2232857  25.7430840   7.6684599
  40.2767296  26.8750629   8.6718292  50.4934769  61.5701599  55.1955147
  50.6619530  62.2039223  54.4982376  51.1206589  60.8650970  55.0350113
   3.7599325   1.0200351  66.8326797   4.5718870   1.1334506  67.3267441
   3.1217427   0.7293730  67.4841919  53.4597473  44.1600418   9.6319618
  53.7244568  44.8764420  10.2089653  54.2790871  43.8440323   9.2511015
  61.6923828  67.9059753  60.6797333  62.3798370  67.9546051  61.3440170
  61.1669617  67.1473160  60.9338989  40.0924759  68.7248535  61.3399429
  40.6287537  68.0732651  60.8882027  40.3450508  69.5589828  60.9441376
  41.9954720  29.7574329  11.1681557  42.2518120  29.9358368  10.2633381
  41.1458206  30.1873550  11.2655916   8.7340698  15.0678015  70.8367310
   9.2357674  14.3881550  71.2868576   8.8843088  14.8998909  69.9064255
  33.2753716  49.3089981  10.1679850  33.0253220  50.1833878  10.4665632
  34.1144142  49.1403465  10.5967064   6.4746065  57.9976768  60.7873383
   5.5369492  58.1312256  60.6487923   6.8954549  58.5736542  60.1490860
  70.0330658   2.7749605  73.7246323  70.8596878   2.2958968  73.7832108
  69.8153458   2.9887755  74.6318893   4.2764006   2.8032484  75.3100586
   3.7477171   3.2086866  74.6227875   5.0673299   3.3407233  75.3522873
   2.2647052  70.1840515  85.0504074   3.0863945  70.6473083  85.2130508
   2.5002425  69.4859009  84.4393921  11.6229925  36.9592171  84.6080780
  11.5039206  36.8833618  85.5548096  12.2242575  36.2487450  84.3846130
  60.0743408   2.8370774  32.7090340  59.5803337   2.9780393  31.9013710
  60.4657021   3.6889894  32.9021988  76.5449905  27.0580063  35.3130226
  76.3014603  27.7680225  35.9069901  76.7813492  27.4988842  34.4969368
  37.3762627  27.3829632  17.0106831  38.2224274  27.7418938  17.2778931
  37.5970764  26.6057529  16.4974403  63.3881264  45.6938515  56.7490692
  63.0539513  45.9462051  55.8883247  62.6849823  45.1717224  57.1353340
  26.6160240  14.6477194  11.8408136  26.8364525  13.7725353  11.5219145
  26.5701046  15.1860275  11.0506573  64.2667313  11.7895641  53.3320541
  64.5774002  11.0510092  52.8083611  63.5723305  11.4207802  53.8779831
  46.6757851   5.8982821   0.6836787  45.7966728   6.2768826   0.6911848
  46.5399132   4.9731793   0.8885106  18.4723969  70.4373932   8.8206606
  19.3299026  70.8548050   8.9023867  17.9231739  71.0988235   8.3998346
   7.8447623   1.1018343  11.3516693   7.8280368   1.6388961  10.5595093
   8.5040712   1.5163524  11.9081926  21.0085316  59.3620605  88.2715378
  21.3450146  59.4296913  89.1650848  21.2265511  60.2028008  87.8692245
  43.8511505  65.8397598  16.2639122  44.7241135  65.6623840  15.9136229
  43.9201088  65.6316071  17.1956577  42.5890465  51.3816032  74.3020020
  42.5247879  50.7561607  75.0237503  43.3603554  51.9089165  74.5099792
  26.1928635  50.6428299   0.9663112  26.1426239  50.4762611   1.9075670
  25.5163860  50.0816040   0.5873176  12.6742287  69.8776855  72.7477646
  11.9863825  69.2451859  72.5402985  13.0919399  69.5277557  73.5347214
  41.0589790  55.4801788  60.1328659  40.3318024  56.0096321  60.4601631
  41.5939445  56.0934410  59.6289291  86.5882797  55.0920334  28.4884415
  86.6003418  54.1761093  28.2106476  86.5261765  55.5889359  27.6726837
  80.4791260   1.4211283  30.6985493  80.8511124   0.9257780  29.9688358
  80.0570679   2.1747270  30.2860088   9.9519415  43.0062904  30.2519760
  10.6768456  42.5477448  29.8271427   9.2145987  42.3992004  30.1887398
  70.8037567  51.3788834   9.1375437  71.0573425  52.0677338   8.5232067
  70.2000427  50.8259544   8.6415319  71.5586853  10.8582993  35.5198479
  71.3710022  11.2709408  34.6767960  70.7898788  11.0501413  36.0568428
  16.2719707  32.5342026  12.3583641  16.5599689  32.3077393  11.4740543
  15.9057779  33.4144516  12.2729378  13.6037960  -0.0080920  55.9057121
  14.1645622   0.6258318  56.3528328  13.0304890  -0.3473895  56.5930481
  70.6526718  63.3656387  66.8913422  71.5451050  63.5530586  67.1822968
  70.7448654  63.1406212  65.9655457  63.0244865  56.0992546  49.4887466
  62.9217377  55.4269791  48.8151550  62.6769562  55.6962128  50.2843666
  85.9980469  58.1898689  85.8292923  85.5170746  58.6852646  85.1663589
  86.8720245  58.5802345  85.8327484  13.9538126   0.2277311  50.8858948
  13.1263695   0.5314512  50.5126343  13.6989908  -0.4440090  51.5184021
  49.3127975  29.7752228  82.6452255  48.7096977  30.5150681  82.5736008
  49.3681984  29.6014690  83.5848846  46.9258575   0.7219276  84.4736176
  47.7436409   0.6915589  84.9701462  46.6043625   1.6151736  84.5960236
  84.1557312   2.5167160  71.2535629  84.1154022   1.7477721  71.8221817
  83.6627045   2.2635937  70.4731216   9.0687313  36.8090019  85.1826248
   9.6296816  36.9358177  84.4174576   9.2256241  37.5817184  85.7253265
  53.4312859  10.6560059  14.3548012  52.6197014  11.1061010  14.5892668
  53.8565521  11.2403879  13.7272024  13.0414972  67.4947968   1.3172735
  12.4619036  67.4188461   2.0752540  13.9062338  67.2576599   1.6522745
   9.9050531  59.5404968  41.5784950   9.6238041  58.8354988  42.1616821
   9.8635597  59.1574173  40.7022743   9.9253387  58.6239433  28.7526054
   9.8404217  58.3217812  27.8483276  10.8686543  58.6320496  28.9148445
   2.1368935  19.0921116  19.1208591   1.4877712  18.8041115  18.4790440
   2.4333427  19.9425373  18.7966309  73.2447968  47.7009392  71.2724762
  72.5358276  48.2266312  70.9020081  73.6051331  48.2445374  71.9731064
  81.8024902  33.2104263  25.6162071  81.0076294  33.4631042  26.0858707
  82.2668839  34.0346642  25.4705658  56.5700684  21.2542515  12.0460176
  57.0481567  21.1279163  11.2264433  56.4383812  22.2006340  12.1030483
  83.5843658   4.3159814  66.2164536  83.3706055   4.0649118  65.3178406
  84.3359070   3.7692428  66.4455643  82.2322540  36.3717766  40.4371452
  81.3854980  36.6296577  40.8014755  82.7812881  37.1499672  40.5330887
  58.1444855   1.5474784   1.5063822  58.3289757   2.4795356   1.3903452
  57.4872398   1.3485795   0.8395249  59.8198395  -0.2608137   0.5257604
  59.3317146   0.4669722   0.9108472  59.9632187   0.0014840  -0.3835658
  50.3711586  59.2145500  30.6888924  50.9154053  59.6053352  30.0052891
  50.5539246  58.2765884  30.6335831  11.1547842  37.6550827  21.0768032
  11.9907570  37.1901321  21.1114826  10.8045521  37.5846939  21.9648438
  15.6350794  41.1533203  32.7860680  15.8425865  41.0887566  31.8538666
  16.3606091  40.7085915  33.2243080  44.3596840  66.1071625  30.1521473
  45.1222839  65.7678299  29.6836109  43.6822243  65.4441757  30.0189610
  74.6252747  51.0368156  51.2229729  75.3438034  51.5431747  50.8440933
  74.3899918  51.5135269  52.0189781  77.5012589  65.8292465  42.0928383
  78.2861938  65.2995529  41.9530640  77.7758942  66.5056610  42.7119331
   3.5127625  53.9089432  57.0578537   3.2117050  54.5130653  56.3791542
   3.9887369  54.4623184  57.6770897  14.1426420  60.8297615  14.5096350
  13.3778448  61.3972664  14.6058512  13.8997307  60.0217705  14.9617147
  25.3501720  42.3160019  19.1172943  25.7981110  41.9584084  19.8839188
  25.3169117  41.5871468  18.4977016  84.5466537  26.5954781  37.2838593
  84.3542480  27.3495216  37.8412018  83.8096466  26.0007019  37.4227715
  56.6945457  30.0515614  17.4841614  57.5436821  29.8665638  17.8853741
  56.0706367  29.9969997  18.2080364  28.3706799  21.5931454   7.0647702
  29.1162624  21.3021469   6.5397377  27.6029778  21.3061695   6.5702929
  13.5943518  25.0966568  35.1184158  14.4786081  25.3246975  35.4053307
  13.0573492  25.8446579  35.3798637   3.3688912  11.2408409  57.8353844
   3.1219869  12.1207266  57.5506554   4.2496285  11.1133480  57.4828529
  37.1082039   7.6309352  40.5052872  38.0170212   7.6893835  40.8000221
  36.7970390   6.7950339  40.8526726  23.9007549  69.8217087  64.7173157
  23.3124466  70.5716324  64.6293030  23.4932327  69.1344452  64.1902313
  73.0527649  22.5796108  13.1500235  72.1238861  22.8102417  13.1350365
  73.3597336  22.8775406  14.0063171  37.0561256  32.8365822  80.7862701
  36.1978912  32.6003761  81.1382370  37.5928955  32.0553207  80.9194565
   9.4916811  61.4321709  81.1614609   9.2061186  61.8299065  80.3389664
   8.7666130  60.8614273  81.4159393  62.7012901  62.6630402  29.4225731
  61.7576752  62.5256844  29.3391495  63.0918846  61.8647842  29.0669670
  52.7423935  40.4190979  72.9018707  52.9683342  39.7455025  73.5433197
  52.8893547  40.0008698  72.0535126  72.0880280  25.9694653  74.5870819
  72.7208023  25.9932213  75.3049011  71.2451248  26.1460323  75.0048981
  34.5439720  44.4732132   4.0029125  33.9385643  43.9192696   3.5100999
  34.1139488  45.3277435   4.0358648  26.9375401  53.8287773   5.2033105
  27.3136692  52.9493294   5.2397742  26.0341415  53.6912766   4.9183593
  21.5296535  10.7392797  84.0539551  21.6081161  10.8071413  83.1023941
  21.5600700   9.7989626  84.2303314  53.6579742  13.0892715  67.3275604
  53.4929314  13.6064243  68.1159439  54.6117592  13.0249958  67.2785950
  84.4295273  51.5491295  53.1246872  85.3806763  51.5679474  53.2304726
  84.0982132  51.2858734  53.9832649  47.8296661  22.1081772  57.8604736
  48.4631615  22.7646694  57.5707588  47.2558365  22.5792980  58.4646225
  38.9346695  31.0717106  88.4662170  39.5356102  30.3655148  88.2287598
  38.3213425  30.6679688  89.0802689  60.2283325  56.6701508  87.5531998
  60.8402328  56.3964424  88.2364960  60.6248894  57.4561157  87.1773911
   8.4384146  27.0402889  16.8588753   9.3420439  27.3344383  16.7441483
   7.9071622  27.7602844  16.5188599  53.3140526  17.6623592  23.4805489
  52.4828033  18.1178761  23.6138306  53.5718613  17.3733997  24.3559151
  73.8429642  47.4933662  38.3803368  73.4271622  46.6422920  38.5182152
  74.6811752  47.2862892  37.9671211   7.0497041  21.8499794  11.1133909
   6.6916881  20.9638004  11.0610332   7.9093046  21.7374344  11.5191650
   3.1128159  10.7816868  74.7231293   2.3294032  10.6255655  75.2505035
   2.7993045  11.2849112  73.9716644  77.6593781  62.4074898   6.4395838
  78.5485687  62.4653206   6.7891908  77.6985474  61.6945038   5.8021274
  77.6910248  52.5301552  85.5746613  76.8496170  52.0752678  85.5379868
  77.5495911  53.2457848  86.1944275  37.8916779   0.4162692  49.9330368
  36.9511642   0.5353681  50.0652390  37.9581833  -0.3478218  49.3603439
  27.8917065  71.9446869  62.1823730  27.3687000  71.1833191  62.4334068
  28.7519722  71.7825012  62.5695076  85.4657593  59.5386887  38.9630928
  85.1017838  60.2358627  39.5087128  85.1178360  59.7126732  38.0885010
  26.2190952  12.5703688  15.0502100  25.9554710  11.6716309  15.2477045
  26.1382771  12.6401377  14.0989828   0.5990080  54.6440506   7.7784972
   1.0032983  53.8517799   7.4248242   1.3091694  55.2854271   7.8017626
  24.3084774  67.2370224  81.8021164  25.2191925  66.9456863  81.8463211
  24.2367821  67.9035110  82.4854050  27.0089493  42.9880753  71.3243408
  27.9657650  42.9686737  71.3053360  26.7505932  42.9659233  70.4029312
  71.2827988  28.1065197  51.7137604  70.5932007  27.8064518  52.3059158
  70.8819656  28.8243332  51.2235489   9.8040581  18.6870747  74.7759705
  10.1690979  17.8196163  74.6013412   8.9655027  18.6914043  74.3144073
   1.6748239  32.7730522  50.1632385   0.7800656  33.0529137  49.9700661
   2.0407419  32.5356331  49.3112030  26.6698456  22.0296898  86.5430298
  25.9589806  21.7203693  87.1044846  26.3303585  21.9355888  85.6530151
  29.6252422  64.8776093  36.0084610  28.9973354  64.9811783  36.7234688
  29.3316822  65.4969864  35.3403053  23.6425190  53.4091034  27.9354515
  24.4390850  53.9397964  27.9442616  23.9207382  52.5540466  28.2636337
  35.2173691  33.1648750  78.3039398  35.1676331  32.7215576  79.1508331
  34.6025391  32.6872330  77.7471008  23.8942909   7.2203236  10.5488958
  24.7491703   7.5366540  10.8410358  23.2849350   7.5188470  11.2240276
  66.1656570  70.6036224  36.7952080  65.5093460  70.1250153  36.2888222
  66.6050568  69.9303894  37.3147545  76.0062103  15.0700912  49.5090065
  75.4363861  15.8380003  49.5520935  76.4366074  15.0429630  50.3635559
  10.4620190  47.1618805  50.6496620  10.2745752  46.2683525  50.3620758
   9.6002512  47.5631104  50.7619209  23.0000248  34.7299995   7.5008407
  22.9816399  34.5130310   6.5687356  22.3771973  34.1228294   7.9004169
  61.4374428  26.2971592  21.0554752  61.0734863  25.6134510  21.6178894
  62.3189583  26.4449692  21.3979855  57.9539719   2.1697164  61.5039558
  58.1303558   2.2960029  62.4362526  57.4877853   2.9625695  61.2388458
  69.3762360   7.3596692  53.1748009  70.0715561   7.9707775  52.9312744
  69.8391190   6.5857348  53.4957314   5.3594408   7.3148499  76.0259476
   6.0748367   7.8958311  76.2845993   4.9742193   7.0262418  76.8533173
  11.6638565   2.7222733  31.8138847  11.0387869   2.2315457  32.3474617
  11.2307949   2.8188648  30.9657345  48.9520950  45.3564873  66.4538422
  49.1570549  46.0583801  67.0715561  48.4908104  44.7024612  66.9789047
  50.6198540  51.0245323  46.0364990  51.5526695  50.8320694  45.9413986
  50.4938011  51.8424492  45.5555077  49.8956451  11.0202494  32.4843788
  49.8127327  11.9666843  32.3676834  50.7017937  10.7915897  32.0216980
  84.1999588  21.4130554   9.2949305  84.6855240  22.2331886   9.2063837
  84.1097794  21.0901089   8.3983784  83.2233887  26.0880699  20.3025227
  83.8980789  25.6809540  20.8459187  82.4696503  26.1799583  20.8853264
  36.4919395  57.3251648  60.5431786  37.3470459  57.0069962  60.2537117
  36.6750145  58.1768303  60.9398918  54.7305565  52.8165932  67.7120132
  54.7880821  52.0627136  68.2990265  54.1907997  53.4489174  68.1864243
  80.2820435  51.8332443  32.8429298  79.9649582  52.2185936  32.0261116
  80.7637253  52.5412598  33.2706375  54.9269295  36.9126129   2.0329041
  55.2510643  36.1799545   1.5090870  55.6606483  37.1425362   2.6030080
  38.6805458  39.1816025  70.1152420  39.2459106  38.8205910  70.7980804
  38.0252266  39.6913834  70.5915985  17.8018246  42.3090096  48.5184479
  18.1188412  41.9296951  47.6987839  18.5197811  42.1760025  49.1373825
  15.1345987  62.3878212  53.3650627  15.8447151  61.8920746  52.9573860
  15.1855307  63.2545853  52.9621315  16.2677269  35.2419472  39.0506706
  16.2272491  34.5993919  38.3423500  16.7523613  35.9786491  38.6783409
  56.9962959   2.9840117  68.0055084  57.0095367   2.5103509  68.8371887
  57.5487175   3.7507522  68.1577225  79.7695923  48.9142075   9.1780176
  80.6187134  48.8689651   8.7385044  79.8111420  48.2337799   9.8499699
  53.4560776  43.2277985  43.1873360  52.9871902  42.6308250  42.6042404
  54.0918312  42.6721153  43.6381912  60.6310349   2.7134089  70.8622131
  61.1420326   2.3891366  70.1206131  60.2245293   3.5177004  70.5395660
  56.8585968  61.6363792  81.4131393  56.9045181  61.7569046  80.4646683
  55.9709930  61.9083366  81.6464462  50.5648842  66.4423141   4.5915866
  50.6183929  65.4880142   4.5398841  51.0784531  66.7517776   3.8454549
  56.4730453  18.5456200  34.0671844  56.9503708  17.9908791  33.4502106
  56.2939072  19.3487015  33.5781021  18.4610806  64.9241791  30.3817501
  19.4090881  65.0494080  30.3389225  18.2315655  65.1400528  31.2856045
  81.8887482  58.3364487  11.7816973  82.1968536  58.2309303  12.6817913
  81.4984131  59.2102470  11.7630386   3.8167546  36.8865585  86.9901276
   4.3978143  37.4815216  87.4640656   3.3671181  37.4453163  86.3562164
  29.9926014  59.7407722  76.6337662  30.2684746  60.6207657  76.8901520
  30.7307110  59.1795959  76.8714752  43.2409325  50.9949150  71.7123795
  44.0650864  51.4786034  71.6571655  42.9008293  51.1998444  72.5833282
  37.3927841  47.2895203   1.8514562  37.5742226  47.1893768   0.9169592
  37.3493614  46.3931465   2.1844141  72.7868500   6.9018497  49.0862389
  73.0485153   6.0688024  48.6940727  72.9614029   7.5521626  48.4059067
   8.8883810  47.3045158   8.3189678   9.2518826  46.6563110   7.7157006
   9.5213995  48.0224419   8.3090219  68.4756927  70.1262512  51.1254272
  68.0639496  70.9295731  50.8070297  67.7946014  69.4588318  51.0423241
  15.5303907   1.9504296  74.0721893  15.8234282   2.7385292  74.5296402
  16.1943588   1.8036779  73.3985138  43.0650787  46.1431961  24.8812160
  42.9607887  46.8054314  24.1979904  43.7957993  45.6025658  24.5812130
  52.8398094  38.5252647  46.1978645  52.7810326  39.1673012  46.9053726
  52.3985748  37.7486305  46.5419350  32.9961090  15.0708790  85.3759384
  33.4453049  15.7741251  84.9069977  33.6329498  14.7704639  86.0243378
  82.1482773   4.5532808  76.2164764  82.7667542   4.3138928  76.9067001
  82.2764359   5.4941564  76.0958023  60.0669327  -0.3025400  19.3808460
  59.3930168   0.3004455  19.0670319  60.8909607   0.1619218  19.2342625
  79.7746658   8.3943663  46.2461815  78.9354401   8.8355989  46.1148491
  80.3744431   8.8367739  45.6455383  28.4832630  55.4846039  21.4017334
  27.9911938  55.3608780  20.5900745  29.3106327  55.8768883  21.1228027
  56.9495468  10.6127682  14.0917120  56.2928391  10.5668144  14.7865877
  57.3410301   9.7394638  14.0740070   4.4684396  52.3494682   1.7241620
   4.7391753  51.4685059   1.4656178   3.9041848  52.2129440   2.4852204
  30.5629616  33.6731148  87.2949982  29.8437138  33.6399269  87.9257202
  31.2734146  33.1893158  87.7162170  47.3906517  70.4513245  82.3429489
  47.3407211  71.0283508  83.1050415  48.2381172  70.0145798  82.4283295
  31.0590019  64.2206726  47.6205444  31.2894077  64.3534088  48.5400696
  30.7627831  65.0803070  47.3213539  26.3637714   5.5808868  22.5983315
  25.9251385   4.9786959  21.9973335  27.1076965   5.0823541  22.9363728
  57.0812988   4.5359077  34.4435425  58.0341377   4.6268778  34.4510574
  56.7867050   5.0385962  35.2029839  58.4783134   4.5775542  77.1141815
  59.0345650   5.2734551  77.4642410  59.0362701   3.7998028  77.1188049
   9.6349888  12.7571754  39.0360260   9.2058258  11.9730062  39.3782692
   9.0639763  13.4779997  39.3017159  70.1382523  55.0465240   4.5439186
  69.9669571  55.6574783   3.8272419  69.2859573  54.9221153   4.9614663
  11.9548740   0.6364856  65.3589478  11.6075449   0.0869386  66.0615082
  11.2175779   1.1896529  65.1008148  83.8247452  69.6924591  82.3418350
  84.5705109  69.8402939  82.9233856  83.0592880  69.7561264  82.9130325
  61.7825394  26.1161118  78.6111908  62.6273270  25.7193546  78.8236618
  61.1621017  25.6893272  79.2020798   5.0190291  22.7159595  36.6878891
   5.7831049  22.4730320  37.2107735   4.4307919  21.9642677  36.7597809
  63.1801147  49.8311005  40.6906471  63.2208443  50.3866501  41.4690666
  63.6831512  49.0515404  40.9261665  75.6982117  10.1914787  82.3203735
  74.8516312  10.6267414  82.2199783  75.4775848   9.2819223  82.5210266
   7.1613178  51.8068962  40.0635948   6.7188497  52.5780983  39.7090569
   7.9077468  52.1603317  40.5474968  45.2747688  28.2831478  82.4958572
  44.5008316  28.5561924  82.0032120  45.2241821  28.7768707  83.3143387
  54.6548653  17.6936989  12.5824089  55.5941696  17.8721828  12.6280861
  54.2904739  18.4461727  12.1163292  41.0145950   9.6558771  12.1916304
  41.3155251   9.9594603  11.3351784  40.4667892   8.8953762  11.9972639
  44.4763870  52.3964424  22.7291794  43.9162254  53.1282501  22.9878445
  44.7296104  51.9849319  23.5554771  18.5625172  46.4196815  47.8653221
  17.8514290  45.9734268  47.4054947  18.1207924  46.9779739  48.5051842
  44.8193359  34.5077667  33.1196060  44.3647156  35.0646057  33.7516518
  44.7048721  34.9546089  32.2808800  59.1079712  66.1678238  81.5835419
  59.9543724  66.2552719  81.1451492  58.6815605  67.0146637  81.4521484
  14.2863636   0.7827544  82.9460831  13.7138453   0.5783904  82.2067032
  15.1658640   0.5699319  82.6339645  28.1676693  46.4744186  24.3735371
  28.1986122  45.6537628  23.8818054  27.6299095  46.2744102  25.1397247
  82.1653290   8.3489218  76.0091171  82.5172195   8.3286266  75.1191788
  81.9660416   9.2717581  76.1668854  36.3127708  19.2156048  21.0323200
  37.2388268  19.0629330  20.8443222  36.0633659  19.9285316  20.4443016
  49.7861824  37.0068321  84.2509995  49.6818275  36.9144707  83.3040009
  49.0475616  37.5523834  84.5212784  84.9375534  45.7142944  54.5372734
  85.4845123  45.4789772  53.7878075  84.5366898  46.5473175  54.2890701
  73.1350021  37.4830055  86.1555328  73.0075226  38.3804169  85.8479080
  73.2323532  36.9670219  85.3552170  65.9435654  55.6222267   1.7239000
  66.3305054  54.7487183   1.7829655  65.8338318  55.8976173   2.6340370
  28.1385555  54.8554306  53.5502434  27.4027462  55.4503288  53.6948624
  28.0995312  54.2431717  54.2849846  46.8465004  52.2990875   9.9444408
  47.0491409  52.5665779   9.0479937  47.7007065  52.2141685  10.3679371
  12.6346159  50.5050850  27.2282677  12.1736174  49.8471413  27.7486706
  12.7627296  50.0893707  26.3756256  72.5305176  65.4703751  75.9230042
  72.4537888  64.9057312  76.6921005  72.4706268  64.8711319  75.1789932
  46.3677101  12.7440062  70.7690887  46.1578941  11.9936199  71.3250809
  45.5196533  13.0447922  70.4426651  78.3296127  38.8393593  23.7150192
  77.9151993  38.8876762  24.5765038  77.9190750  39.5426559  23.2119617
  49.4454117  67.5186462  81.3645096  49.2199593  66.9890671  82.1293335
  48.8044968  67.2651291  80.7002869  79.1440353  38.6581345  71.1213303
  78.6451721  37.8500671  71.0013504  79.4994431  38.5908470  72.0075531
  77.5500717  22.6060963  51.8647270  77.4341125  21.7410793  51.4716225
  78.1398544  23.0641899  51.2659454  44.4809799   0.6760791  62.6136284
  44.6389732  -0.1118344  62.0935669  44.2334518   0.3470558  63.4777489
  86.4646301  25.3270340  28.0744667  86.2386932  25.1995659  28.9958439
  86.1317291  26.1996269  27.8647289  34.6102905  21.1092319  41.1495934
  35.5305977  21.1292553  40.8871803  34.3868408  20.1786728  41.1685944
  48.4467278  60.4918671   3.6282446  47.4902840  60.4745979   3.5943451
  48.6492195  60.9049797   4.4676280  76.6293869  15.2349873  58.1415596
  76.4017181  16.1629181  58.1993828  77.3311005  15.1201553  58.7823792
  56.1721878  42.8288269  79.7238846  56.9286003  42.8344917  80.3104401
  55.6412239  43.5718727  80.0105743  28.7769909  22.2861214   2.8801379
  29.3180237  23.0078297   2.5597434  28.4276218  21.8785439   2.0876398
  24.3642502   1.8918184  44.9135513  24.8847160   1.4557695  45.5882416
  24.7659550   1.6201432  44.0882874  47.2137451  10.5423508   5.7346854
  47.5783424  11.4192877   5.8541918  47.5820923  10.0297136   6.4542375
  86.9088745  17.0474758  24.1107845  86.7979507  17.9905167  23.9899559
  86.3575592  16.8360443  24.8641605  46.9608879  60.9245529  39.4002380
  46.1644440  61.4448738  39.2945328  46.9730873  60.6911850  40.3284760
  69.2641907  42.9196625  66.8444061  69.2394943  43.8352509  67.1224747
  69.5876465  42.9514236  65.9440689  78.4822693  17.7435989  81.2952881
  77.7395706  18.2097721  80.9114761  79.1461639  18.4199696  81.4294510
  20.8317871  64.3145294  76.6717834  20.3708248  64.9520187  77.2170792
  20.7490692  63.4880905  77.1475906  23.2858086  57.1684990  86.9371872
  22.3842525  57.2783737  86.6349411  23.2228432  56.5373459  87.6540680
  74.0473328  68.6169052  27.8884792  74.1930466  67.6783905  28.0076046
  73.2842484  68.8117599  28.4325027  66.8915558   6.4393058   7.6896677
  66.2379150   7.0078583   8.0967789  67.3047943   6.9883089   7.0232873
  38.4823074   2.0732143  52.2954407  39.2606049   1.7331166  52.7368202
  38.4574738   1.6064316  51.4601402  85.4472427  42.2031097  44.4855804
  85.9130402  43.0231857  44.3220520  86.1350250  41.5791969  44.7177963
  40.5916328  50.6873589  64.2420197  40.8519974  51.5540962  63.9302330
  41.0457344  50.5874138  65.0787048  10.8586512  11.7753963  53.4404755
  11.5731440  12.0522165  52.8667984  10.0718746  11.8627119  52.9023361
  62.9943008  37.1278458  56.1675262  63.3414841  36.6877098  55.3916550
  63.7496910  37.5779762  56.5456810  65.0338593  52.6374664  44.7025452
  65.8971939  52.7852020  44.3164673  64.4785156  53.3127785  44.3129463
   4.5814710  11.6576185  69.3273315   4.7450562  11.6957579  70.2696762
   5.3533092  12.0643988  68.9335938  85.1524277   2.0199347  61.3278770
  85.1215897   2.1855028  62.2701454  84.4802399   2.5945952  60.9615974
   2.6204016  71.2606201  88.2370911   3.4592123  71.6542664  88.4772415
   2.8459742  70.3794708  87.9388885  59.6588860  15.6147165   0.7248013
  58.8978195  16.0823765   0.3808451  60.3335190  16.2878933   0.8138772
  79.7987671  43.1845818  13.0700350  80.7107391  43.3660469  12.8428459
  79.2891388  43.6729317  12.4234896   0.5163630  36.5140495  79.5227814
   1.2936587  36.3629990  78.9849854  -0.2084527  36.5274124  78.8977203
  25.9653339   2.6790855  80.5321503  25.9994183   3.6213293  80.3670883
  25.8739243   2.2869508  79.6637573  25.3963413  58.0943260  27.3499489
  26.2357140  58.5399132  27.4645576  24.8680725  58.3835754  28.0939236
  37.8280144  55.0943413  17.1382065  38.4527550  54.8430824  16.4579124
  38.0935097  55.9780922  17.3926220  50.0999908  69.6430054  61.1844635
  49.9644775  68.9291382  60.5613556  50.9961967  69.5206680  61.4976425
  37.4300957  31.5103703  77.2825851  37.3122101  31.2961597  76.3571396
  36.6553726  32.0244942  77.5100021  70.5792465  10.4141655  50.4178848
  71.3665771  10.8944225  50.1615677  70.7099762  10.2175608  51.3455124
  70.9686127   8.9195499  31.5570145  71.8344803   8.9419031  31.9644508
  71.0470734   9.4948330  30.7960129  73.3680801  11.5084162  57.0339203
  73.0150223  11.2666273  56.1776924  73.1740112  12.4419508  57.1180763
  37.3558617  58.1068382  15.6567411  37.0188103  58.1015167  14.7608633
  38.3066406  58.1497574  15.5546846   5.5168128  25.2017727  33.0818939
   6.4203815  25.1439934  33.3924675   5.0517378  25.6598167  33.7819901
  69.2591324  44.6251602  43.8167496  69.2791443  43.6986618  43.5771065
  70.1747131  44.9019165  43.7798805  21.7303715  64.0226364  33.5404129
  21.0218487  64.5191727  33.9498978  21.9135952  64.4930344  32.7271614
   1.6519160  66.6921234  20.6096191   2.0555253  65.8670425  20.3402119
   1.8286570  66.7498474  21.5485878  61.9416046  34.3611526  16.5805759
  62.3420868  34.0779457  17.4025497  61.0505600  34.6134148  16.8227139
   6.1283293  13.2227144  71.7629089   6.1047029  12.3292284  72.1054840
   5.2293310  13.5383005  71.8547745   4.4108977  45.5567627  42.7407646
   4.2112246  44.6547508  42.4902916   3.6184897  45.8640709  43.1810875
  66.9197998   2.5206926  57.6213646  66.2904053   2.4681573  58.3406219
  66.5439529   1.9712042  56.9335899  44.0355949  53.8095207  58.8014488
  43.5743446  53.2795258  58.1513824  43.9655380  53.3072929  59.6132927
  45.8671684  62.5456886  36.1981659  46.5646286  62.4384651  35.5514145
  46.2708321  63.0503387  36.9042931  83.2763214  21.3224602  73.5198364
  84.0351334  21.5997868  73.0064850  82.6846619  20.9282703  72.8789139
   1.2084358  70.7344818  41.7417793   1.9382207  71.2132187  41.3487625
   0.4403912  71.2752609  41.5576706  79.9287567  52.4769402   0.9796410
  79.7759857  51.9312325   1.7510667  80.5346298  53.1538277   1.2812651
  52.5889244  56.7077599  49.6623459  52.3637886  55.7810211  49.5804863
  51.8712959  57.1679306  49.2270470  34.3054008  69.1524582  51.1876030
  34.3879852  68.3143997  50.7325516  34.4703674  69.8094788  50.5113373
  65.3720093  49.0790710  64.9550781  65.8086548  48.4644928  64.3652649
  64.4482269  49.0321426  64.7087936  75.2353973  58.0188866  32.5748405
  75.0231400  57.1413040  32.2569923  75.7440414  57.8685112  33.3716507
  22.6728039  23.3728333  76.8663254  22.4419308  23.4368629  77.7930603
  22.1168022  22.6705017  76.5289536  71.0395432  29.7094116  62.6013832
  70.8597565  28.9415226  63.1438332  70.2871780  29.7681618  62.0125465
   1.5438076  40.7429466  79.0731659   1.4423985  41.6012115  79.4846649
   1.9820446  40.2096558  79.7363281   9.5848188  14.3358517  49.2620010
   8.8885832  14.0066633  48.6935616  10.3429031  14.4260149  48.6845818
  71.6070251  71.4317551  63.7217484  71.8359146  71.2232742  64.6274948
  70.7169876  71.0957031  63.6162033  73.5149612  13.3727350  67.1132355
  72.7431793  12.8070602  67.0887451  73.2838974  14.1173229  66.5578690
  36.5773811  23.3975372  12.6044292  35.7113762  23.7915077  12.4992752
  36.7587471  22.9884357  11.7582769  16.2731819  40.8689613  30.2292633
  16.4014797  41.8168602  30.1937790  16.7840214  40.5304337  29.4939594
  18.4938717  62.4741974  32.9733658  18.4539490  62.6724014  33.9089699
  17.8351669  61.7916908  32.8448029  12.6913280   5.4980927  21.6147976
  13.5780907   5.3176193  21.9267464  12.2926579   4.6338243  21.5131416
  57.8463745  55.4888649   6.0825729  58.1365547  56.3736000   6.3045363
  57.9470062  54.9928932   6.8950500  76.0845642  68.4103394  31.8622608
  76.3929443  68.5149994  32.7623596  76.4568024  67.5758743  31.5770512
  15.5661163  69.5557709  62.0489388  15.3367186  70.4691849  62.2200623
  16.0025368  69.5739441  61.1972122   6.7028480  69.9815598  30.9705296
   6.6985989  69.0266724  30.9041939   7.5924773  70.2348022  30.7242393
  16.4935455  10.9993134  39.3804207  16.7102680  10.6723595  38.5072861
  17.3165741  10.9480972  39.8664589  27.0453453  43.5630341  68.6193924
  26.9893837  44.3151932  68.0300217  27.8139839  43.0789413  68.3175964
  36.3383980  59.9104156  31.1099968  36.7158394  59.8507576  30.2323818
  35.9078903  59.0659752  31.2434788  22.8310413  69.1493912  23.3144951
  22.1780815  69.7104568  22.8960705  23.4156685  68.8900452  22.6023273
  11.8788786  16.4846821   3.9871895  11.0475769  16.2910690   3.5539653
  11.6502695  16.5819607   4.9115844  85.3729019  65.5854874  44.8672218
  84.4642639  65.4187393  44.6166000  85.3516235  66.4454956  45.2869453
  19.7262535  61.2872887  12.6452131  19.9203911  60.3500443  12.6560564
  20.3627586  61.6707230  13.2485924   3.2237489  16.6912899  62.8394623
   4.0767403  16.3568344  62.5623741   3.0484412  16.2438335  63.6672821
  10.3745670  63.2306175  52.2807465  10.0173492  62.4027710  51.9593506
  10.7978182  63.0034828  53.1086960   3.5354896  38.4770813   2.7354922
   3.1790330  38.7717552   3.5735486   4.4840689  38.5531654   2.8386436
  26.5037518  65.5087204   7.3233166  27.1338730  65.2262726   7.9861913
  25.6732216  65.5738525   7.7947044  81.2085800  41.3694649  55.6187172
  80.7891541  41.3256226  56.4780159  81.6287003  42.2293549  55.6008568
  76.3864594  58.9059334  70.6941223  77.0146103  58.8246651  71.4118042
  76.8728180  59.3495674  69.9992294  83.2242737  49.8884621  78.1301193
  83.9000778  50.1039886  77.4874191  82.6503372  49.2712631  77.6763687
   4.6929636  34.1735535  10.3664112   3.8971355  33.6553726  10.2465019
   5.3166194  33.8026237   9.7421532  43.0975914  59.1439743  40.7123108
  42.8677025  59.5454483  39.8743362  43.5207787  58.3189812  40.4745483
  75.1700745  40.6853104  84.8365555  75.4885788  40.9501114  85.6995010
  75.5783157  41.3035736  84.2304840  66.3000717  66.0174026  36.0922623
  65.5943680  65.3745956  36.1630859  66.0919800  66.5154114  35.3017426
   8.0156355  69.0124512  70.3043976   7.7981663  69.8680725  70.6743240
   8.8536949  68.7837219  70.7063522  33.2018623  51.3603592  48.7157402
  32.4591103  51.7840233  49.1459236  33.9068260  51.3988342  49.3621025
  85.4432831  27.5361843  70.3184509  84.9851456  27.6609001  71.1495819
  85.4306107  26.5894775  70.1776810  83.4117661  31.7215538  31.5995636
  84.1288528  31.5852337  30.9803448  83.0680466  32.5877800  31.3810616
  73.6892853  60.8599968  88.0685806  72.8913040  61.2189293  88.4566879
  73.8235092  60.0283051  88.5230103  84.3359528  59.5752563   4.4354606
  83.8898239  60.3040047   4.0040383  83.6494827  59.1393394   4.9404049
  12.0123043  41.0517769  81.8002853  12.5533457  40.7183647  81.0845032
  11.3954344  40.3433647  81.9842834  67.0178299  51.9462128  31.7294655
  67.2871170  52.5515747  31.0386333  67.8320160  51.5326118  32.0162735
   9.2246675  47.6620483  11.2987900   9.7915220  47.0954857  10.7754259
   9.6244736  48.5291252  11.2312222  12.0343189   9.8143997  54.8097954
  12.9696846   9.7427797  54.6195526  11.7211409  10.4981709  54.2176743
  84.2545700   4.2372708  33.1784782  83.8287430   3.7045441  32.5068321
  85.1854477   4.2007966  32.9585609  24.4999695  14.2844791  13.4615393
  25.1239471  14.6248474  12.8204193  24.9505444  14.3678703  14.3019323
  83.8852692  17.3049202  62.6660919  84.7734985  17.6499310  62.7568932
  83.6789246  16.9446640  63.5285721  59.7626572  63.1959000  64.8264084
  59.8114510  63.0864906  65.7760849  59.8191032  64.1417999  64.6910706
  83.1787491  50.3898849  40.3935432  83.3662109  49.4813728  40.6295509
  82.3775711  50.6013947  40.8727303  31.8821754  58.6799011  66.9446182
  31.1998615  58.5225639  67.5972443  31.4029446  58.8686752  66.1378174
  28.8097954  42.6652565  44.8878708  29.6255074  43.0324059  44.5472145
  28.6386433  43.1629219  45.6874084  72.6689072  30.4816132  43.4204025
  73.3272324  29.8015862  43.5632401  72.0302505  30.3475609  44.1206703
  81.0816193  32.0036888  60.5038033  80.5472260  31.5643406  61.1653404
  81.8066788  31.4000645  60.3420563  16.2841892  69.1921768   5.2602658
  16.3231468  70.1110687   4.9950142  16.4302177  69.2095184   6.2061024
  60.9109421  31.9544868  78.2710266  60.6063766  31.2750568  77.6694946
  61.7102699  31.5938606  78.6547699  79.2625732  26.8820839  63.4462776
  79.9600143  27.3913155  63.8591766  78.4586029  27.1996193  63.8574295
  86.5943604  24.8080978  69.9274368  86.1149063  24.2871532  69.2832565
  87.3474731  24.2656345  70.1614838  71.1954651  40.1850357  49.6470413
  70.8814011  41.0806808  49.7711868  72.1416245  40.2764397  49.5344887
  38.0262566   1.7144797  61.6898117  37.6610832   1.5330489  62.5558167
  37.8383598   0.9260065  61.1806602  10.0405464  68.3132172  81.7279205
  10.3011656  68.5762253  80.8452301   9.9585438  69.1367645  82.2088318
  80.0223770   1.6061466   4.2862167  79.2029114   2.0512173   4.5021496
  79.9455109   1.4016573   3.3542790  17.7736549  36.5912857  34.4119987
  17.5519981  35.8814583  35.0147018  16.9502258  37.0620422  34.2832069
  25.4162560   0.1799352  39.9737701  26.2891293   0.3967537  39.6461830
  25.5506649  -0.0183520  40.9005127   0.7517241  25.1180592  84.0728683
   0.8299612  24.8654709  83.1529160   1.6461924  25.3296528  84.3400497
  83.4042358  20.4395618  54.9003677  83.5248795  19.4900494  54.8901482
  82.4628296  20.5600605  55.0247116  13.5213051   3.7122805   5.3759799
  14.1681948   4.4083586   5.4910493  12.9128056   4.0565023   4.7221670
   6.6871362  44.0720177  20.6250725   6.8160210  43.3398857  20.0220795
   6.7314625  43.6761208  21.4954357  86.6411362  11.7589893  36.4143715
  87.2688980  12.0669765  35.7606964  85.9426956  12.4134178  36.4026871
  70.2273483  61.7493439  75.2064514  70.6187592  60.9993782  74.7585907
  70.8936386  62.0275002  75.8348770   0.4728176   9.2255669  72.0565643
   0.6940643   8.3156061  72.2546921  -0.2831863   9.4147129  72.6123657
  23.2364807  59.7318420  76.1550674  22.8483105  59.0991325  75.5507202
  23.8650780  60.2181282  75.6215668  38.5207863  20.8905239  23.9623013
  37.5804214  20.7315464  23.8805943  38.5936813  21.8365669  24.0884819
   2.8940938  67.6131744  53.1591034   3.4117601  68.4183044  53.1547279
   3.4715967  66.9592514  53.5529404   1.6018811  25.2452736  73.2788696
   2.5273237  25.4038525  73.4649963   1.4750797  25.5810318  72.3915024
  64.5525055  29.0009613  36.4296989  65.2189255  29.5592976  36.0292358
  64.8722992  28.1094303  36.2913780  10.4187002  40.0757866  44.4250488
   9.4992647  39.9445496  44.6566658  10.5908079  40.9929657  44.6381073
  61.6075020   9.7811909  16.4730053  60.8633003   9.9729328  15.9023657
  62.3345413  10.2736731  16.0920773   7.5645761  16.8741951  88.7229080
   7.8061538  17.3807316  87.9474792   6.8268080  16.3355713  88.4368744
  83.0791245  10.8309317  23.0907326  82.3039627  10.3902607  22.7426376
  83.2652435  10.3752956  23.9116993  13.7630930  10.2759380  10.4821243
  14.2524042   9.5499115  10.8690243  14.3909760  10.7051764   9.9009619
   1.5149609   0.7641671  58.4104958   2.2252014   0.1231645  58.3803978
   1.2021896   0.8176782  57.5074234  10.8732243  24.5095196  11.9390879
  10.6247787  24.9275303  12.7635717  10.0623245  24.4806480  11.4313078
  78.1441574  71.0727310  53.7906799  78.6755829  70.2959061  53.6164284
  78.4631195  71.7257767  53.1677628  51.2183495  36.3949013  47.0218201
  51.1647835  35.4809189  46.7425423  50.5269241  36.4859238  47.6774673
  77.9841843  56.7486534  17.3044720  77.3226471  56.5103874  16.6549873
  78.2971191  55.9110069  17.6460133  10.6261253  16.2771645  64.5753098
  10.9212694  16.6780453  63.7577400   9.8324690  16.7600079  64.8059692
  63.4005928  58.7554588   8.1703186  63.2723045  59.6979637   8.2773695
  64.2725067  58.6748047   7.7836728  13.0403318   2.2546766  16.5032425
  13.4915714   1.6456095  15.9187326  12.5421524   2.8244166  15.9172001
  25.5360756  37.0668106  80.4007492  24.8632565  37.4864464  79.8646011
  25.0475101  36.5012589  80.9988174  77.5355606  30.8046455   9.9073963
  76.8196335  31.1720505   9.3890381  77.7653198  31.4992218  10.5246525
  82.0371246  17.5473461  33.6766815  81.7213211  17.1642208  34.4950447
  81.9967270  18.4923763  33.8233719  16.9962406  66.2167664  21.2972069
  16.9017925  65.6424103  20.5373173  17.6652412  65.7937622  21.8354797
  48.9440079  47.6668091  39.6495514  48.5137329  48.2005806  40.3175201
  49.4673157  47.0377007  40.1461449  77.2000961   3.7564754  79.9583740
  77.3161774   3.0090728  79.3717346  76.7297211   4.4031296  79.4322357
  69.5574722  42.5523682  58.1448898  70.3668594  42.1604004  57.8170433
  69.1436691  42.9313927  57.3694305  22.8503532  51.1391449  69.2432022
  23.5712662  50.6093102  69.5834885  22.0879803  50.8602829  69.7504044
  83.8711243  64.6550446  12.9692945  82.9594345  64.3995743  13.1099691
  84.0763550  65.2272034  13.7087135  73.4394608  49.4248428   8.7940073
  72.7709045  49.3329620   8.1151686  73.0146637  49.9391861   9.4804726
  85.9312515  39.0938263  20.9893494  86.7153091  38.7070808  20.5995998
  86.2198105  39.4081383  21.8461895  65.2234268  40.9615440  85.7032623
  65.0985794  40.0596542  85.4079056  64.4190826  41.1717148  86.1776962
  11.1911240  12.9039583   4.6512680  11.1390667  13.3772602   3.8209019
  12.0915108  12.5810537   4.6868644  81.3180084  30.2517624  32.1310921
  81.2674713  29.5948009  31.4367733  82.1769562  30.6578045  32.0145645
  75.8873825  14.5908451  80.1372833  75.6033707  15.0761166  79.3626328
  75.0735245  14.3348303  80.5712433  44.0637627  56.4966660  58.3124008
  43.2030411  56.8802185  58.1442451  43.9468689  55.5619965  58.1422119
  70.2577515   0.3783976  80.4928360  70.8937454  -0.0151717  81.0902023
  70.7889404   0.7518788  79.7895737  44.4319420  65.6890869  41.7189026
  44.9013367  66.4849396  41.4688530  43.5109596  65.9493790  41.7353363
  35.4671974  44.9721336  30.9977760  36.1160240  45.3254662  30.3891602
  35.9840126  44.6335678  31.7288761  81.6809692  46.0400238  60.0426102
  81.7456284  46.9628220  59.7966423  81.3762512  45.6012268  59.2483597
  48.9494438  25.2171726  20.5671673  49.8481331  24.8927097  20.6247749
  48.9539452  25.8016338  19.8091316  40.5495415  59.8431015  88.2970428
  41.0580482  59.6035728  89.0718231  39.9365959  59.1174164  88.1790771
  71.9406433  13.9928522  17.9366169  71.0230103  13.9525471  17.6672306
  72.1992950  13.0774860  18.0435486  37.3023911  22.1386261  78.3267975
  37.3699608  21.4507904  77.6645660  38.1790466  22.1915493  78.7074661
  46.7511902  50.2192383  27.3116093  46.2008896  49.9914513  28.0609493
  47.5365677  49.6827621  27.4193439  81.1804962   3.9652250  50.4709625
  80.4016876   4.0347872  49.9188309  81.7574768   3.3664188  49.9968834
   2.7557645  20.6772614  85.5337601   3.0062580  21.0294037  84.6796646
   3.0286257  19.7602539  85.5041275  74.4774094  47.0416870  80.0798492
  75.1731720  47.6262054  79.7790451  73.7062454  47.6042061  80.1513824
  74.9226151  28.2454109   7.6582890  75.3585587  28.8411160   7.0489268
  75.5758591  28.0772057   8.3374176  50.4494400  71.0920410  45.3094177
  49.6444855  71.5047150  45.6224327  50.2658539  70.8709259  44.3963814
  67.8377533  22.2033195  70.6036758  67.6579361  21.2919216  70.3729172
  68.7236252  22.1883545  70.9659576  35.0654945  57.0196724  65.2003098
  35.0651169  56.3636017  64.5033112  35.2210274  57.8490562  64.7484665
  46.3883896  66.2195740  39.2407303  46.8993416  66.7813110  38.6579666
  45.7909126  65.7506027  38.6582222  18.6753464  45.2204475   3.1626234
  18.1218128  44.4657860   2.9618225  19.2343483  45.3192863   2.3919241
  36.7915306  35.1818848  86.4071884  36.5087013  35.9531174  86.8985596
  37.5633621  34.8676414  86.8781052  71.5776520   8.2300787  68.6124496
  72.2901306   7.9020300  68.0638123  70.8019409   7.7627969  68.3023682
   3.6198275  65.9788742   7.1922784   3.2751849  66.8287277   7.4664946
   2.9234629  65.3578110   7.4058089  26.8148880  66.8343430  48.5323410
  27.3516026  66.4910812  47.8179588  26.5707378  66.0612946  49.0412827
  59.3225861  26.9372749   3.1354938  60.1617241  27.2645779   3.4594529
  58.6881104  27.2057457   3.8000228  80.2217407   0.1606172  46.6710243
  80.4769135  -0.7613713  46.7035065  80.9680557   0.6015276  46.2650223
  33.8958168  61.4613876  31.3254585  33.6126862  61.7386131  30.4541283
  34.6782112  60.9333954  31.1663570  62.3850060  67.8558197  26.9964943
  61.5794716  68.2535019  27.3269424  62.4916763  67.0610657  27.5191975
  79.2976532  68.3793106  85.7647934  78.9813004  68.6809158  86.6163788
  79.4650955  69.1832733  85.2730408   9.8178501  61.3377380  84.1158905
  10.2623577  60.4955788  84.0188751   9.5068073  61.5472488  83.2352142
  80.3337326  15.2652302  66.8657684  80.9363937  14.5323105  66.7398148
  79.9785614  15.1348867  67.7450333  13.6200981  37.6991882  56.8418121
  13.7745399  37.1936455  56.0438080  14.4959087  37.9199677  57.1587372
  13.0751419  10.9206104   6.8420615  13.3809528  11.5740852   7.4710941
  12.2880974  10.5519753   7.2431855  30.9800205  19.5843143  13.4048824
  31.9225101  19.7096748  13.2942848  30.7491703  18.9190693  12.7565088
  80.9846878  49.8553848  47.6978989  81.8377304  50.2609100  47.5426712
  80.3555984  50.4667702  47.3148994  54.1819954  39.7959633  28.7053223
  53.8474617  39.4134521  27.8941479  54.9235039  40.3341827  28.4283485
  15.9201565  30.2640152   2.6806767  16.0390854  30.0705051   3.6105380
  14.9723215  30.2373333   2.5497983  21.3996944  68.4747162  77.2984085
  20.8355827  67.7076569  77.3965683  22.2783413  68.1532974  77.5006485
  25.2557316  56.4561920  46.4365540  24.4940338  56.1641541  46.9373169
  24.9768219  56.4013901  45.5225296  18.7310066  42.8303757  34.2464676
  17.8867626  43.1912727  34.5170937  19.1988544  43.5741997  33.8668861
  40.3923454  66.6450424  81.6543427  40.7950134  66.2018356  80.9075775
  40.6958199  67.5504074  81.5876465  41.3022308  50.6965523  23.1758327
  40.6845589  50.1550674  22.6843987  42.0295906  50.8397980  22.5703049
  17.7453651  22.2431355  25.8647633  17.9357510  21.3075218  25.7968616
  17.0719204  22.3991852  25.2026806  44.9237289  68.9436798  38.7976189
  45.4704552  68.4404907  38.1941872  45.3161392  69.8167114  38.8050842
  30.3606396  27.3747673  18.4583874  30.8635178  27.0159149  17.7272434
  30.9328957  27.2675610  19.2181644  11.6889257  22.8517628  81.7625961
  12.4767160  22.3721428  81.5065002  11.3946524  23.2766132  80.9569016
  16.7640152  33.2409210  26.3930016  16.6078014  32.9457626  25.4959431
  16.1680584  33.9809494  26.5088615  12.7401190  31.6590118  77.5160217
  13.2500343  31.0105648  78.0015488  12.2775707  31.1502361  76.8501205
  25.9160213  56.8820763  22.0790901  26.8210049  57.0183296  22.3595810
  25.4342632  56.7268143  22.8915157  48.4186974   2.5827115   3.5907502
  47.6293144   2.1132412   3.3211162  49.0172615   2.4903171   2.8495243
   2.9949698  54.7498474  30.0358124   3.6201944  54.9828300  29.3494873
   2.3309827  54.2262650  29.5872402  32.7614937  14.2750854  30.4200172
  32.3597107  14.9695902  29.8980350  33.1557884  14.7316484  31.1631966
  74.2712555  62.7550774  63.7244759  74.6059036  63.5235901  64.1866837
  73.4206238  62.5840530  64.1287079  28.6569557  43.5120201  62.5978165
  28.3319473  43.3816032  63.4886551  29.4436779  42.9690475  62.5479965
  26.0513248  63.3565636  39.9666481  25.2505035  63.8755875  40.0410271
  26.6972446  63.9633064  39.6048737   2.8749475  33.8787575  44.9429588
   3.5934327  34.5000877  44.8248062   2.7153726  33.5277061  44.0668678
  41.8231773  67.3562775  35.8174515  42.0368652  68.2117310  35.4449348
  41.9018326  67.4805069  36.7632904  36.9038544  14.6479425  37.2019997
  36.7366943  15.5728512  37.3832016  36.9751778  14.2435637  38.0666504
  53.8968010  70.9078674   9.2008162  53.1737366  70.3558884   8.9029398
  53.6627274  71.7883224   8.9071465  86.3914871  13.3861818  55.9310989
  86.0793304  12.8754997  56.6780853  86.5978012  14.2458210  56.2980995
  60.6213760  65.3612518   4.8064556  60.9697304  66.0726318   4.2690372
  61.3482513  65.1152954   5.3786373  72.2541122  50.5487366  56.1317863
  72.5236053  50.0642662  55.3514709  72.3517685  49.9218521  56.8485260
  26.0396938  35.5632324  76.5456619  26.5379276  36.3486023  76.7719269
  25.9856529  35.5808792  75.5901566  68.8067322  48.4930267  71.9046860
  69.4800797  49.1032944  72.2053680  68.0642471  48.6490402  72.4883041
  69.2012482  53.0210648  55.8223648  69.3292084  53.1793861  56.7576675
  69.9103928  53.5044060  55.3984108  86.3551331  47.2522011   9.3146763
  87.1864090  47.5655365   9.6711102  86.2481384  46.3779755   9.6895275
  80.0490341  39.8597755  62.0724106  79.8244400  38.9419327  62.2252464
  79.8331528  40.0091057  61.1519089  62.6938553  46.7470169  36.5517120
  63.1207657  46.4045792  35.7664032  63.1137161  46.2813263  37.2749596
  73.2490616  13.5100918  46.1774521  73.1720734  13.6111126  45.2287140
  72.4122543  13.1312675  46.4466705   3.5830941  24.7922192  36.0230865
   4.1458049  24.0723152  36.3082619   3.2870474  24.5335560  35.1503448
  34.2349358   5.9765401  80.7873840  34.3778229   6.3920946  79.9370117
  34.8047485   6.4573493  81.3876877  57.7771721  29.6347313   2.3039541
  58.0883865  29.4556084   1.4166603  58.3325653  29.0946560   2.8661690
  84.5892181  52.1893311  83.1530533  83.7559891  52.3149681  83.6071091
  85.1609650  51.7890167  83.8080978  84.5614853  40.7611923  14.7697287
  85.4474869  40.9460373  15.0812664  84.0236740  41.4547081  15.1518621
  62.8339043  41.0801392  87.1444168  61.9052544  41.3029022  87.2093353
  62.8980751  40.2062263  87.5296326   2.2866938  64.4670563  81.6417923
   2.3622937  64.2889175  82.5792236   2.8474722  65.2291260  81.4968185
  15.3612843  23.8886509  11.5234890  16.1755371  24.0861378  11.9863310
  14.6821270  23.9547329  12.1947641  52.3055573  38.1783562  20.7410984
  52.7614403  38.4015350  19.9295616  51.9934883  39.0177460  21.0791340
  22.6435566  67.8610764  87.0898209  22.1446648  68.6201019  86.7878036
  22.6578655  67.2691727  86.3377075  38.4565277  70.1833878  54.9971046
  38.4524040  70.2033157  54.0401192  37.5309067  70.1652985  55.2402802
  81.6450119  55.4695206  25.5824642  81.0582886  55.8604736  24.9350529
  81.0860291  55.2999458  26.3407631  17.7313423  30.8877735  17.4529629
  18.6540623  30.6404877  17.3923950  17.2540951  30.0750980  17.2855530
  34.6750336  45.1450005  82.2360916  35.0652733  44.2895813  82.0566330
  34.4911156  45.1320496  83.1753693  43.2023964  64.9711914  35.4851379
  42.6603737  65.7597046  35.4589310  43.5733147  64.9061584  34.6051254
  34.0149040   1.6803019  23.4233055  34.5893173   1.8230488  24.1755733
  33.5550537   2.5123670  23.3117886  85.9711380  55.5000839  41.7599106
  85.2451477  54.8871574  41.6437721  86.6245651  55.2217598  41.1181870
  29.9641190   2.6780803   5.7167182  30.4119949   2.9371777   6.5220184
  29.6732178   1.7813203   5.8823395  52.6863022  -0.2559769  86.9822464
  52.5949860   0.6658776  87.2232361  53.6316719  -0.4015408  86.9459534
  29.3583660  10.2844362  77.2014618  28.4376163  10.4954987  77.3560791
  29.6915817  11.0240583  76.6933670  40.2258644  32.5191536   8.4150181
  41.0762367  32.3075256   8.0299044  39.5951805  32.0303154   7.8863344
  83.4201279  65.0212708  59.0872955  82.5677795  65.0362396  58.6519737
  83.8117981  64.1902695  58.8184891   0.0748573  44.8909721   4.5912361
   0.1507053  45.1756744   5.5019622  -0.0128294  45.7034492   4.0928140
  83.2076035  62.3706741   5.7176819  84.1126862  62.0605164   5.7469277
  83.2811432  63.3070564   5.5332732  25.5705338  11.9060812  21.3896675
  26.2939796  11.9960804  20.7693787  24.8694954  11.4970016  20.8822918
   0.0183257  70.2360458  52.6510696   0.7540960  70.8475952  52.6807518
  -0.6072319  70.5829086  53.2871475  55.6773071   8.1120377  36.0506439
  54.9177818   8.6696424  36.2192574  55.3754578   7.2273846  36.2568169
  28.5268364  26.5257301  86.4900284  29.4096889  26.1832561  86.6297302
  27.9488373  25.8485317  86.8415298   1.0643623  60.9379921  56.2854652
   1.2917534  61.2800903  57.1500435   1.1136692  59.9871101  56.3835754
  40.4338684  69.5861206  49.9483032  40.7403030  69.0240402  49.2366905
  41.2097244  69.7315216  50.4897270  54.4527969   7.5618863  77.9116669
  54.7269592   6.8419509  77.3435516  54.6044006   7.2375450  78.7993927
  56.0744667  24.1641560  28.6547604  55.9908752  24.3169212  29.5959873
  56.2089958  25.0353527  28.2817345  84.5244980  56.6960754   5.0698676
  84.0859604  55.9102936   4.7435713  83.8123779  57.2596169   5.3724341
  65.1713791   0.1246530   2.7325437  65.0833130   0.7306865   3.4682066
  64.4275208   0.3270321   2.1651416  14.6210136  55.1906395   1.1434855
  15.4370193  55.2233810   0.6441923  14.2051859  56.0368767   0.9785490
  35.0714760   2.2493382   9.8179045  34.7458267   2.9817829   9.2947330
  35.8641243   1.9640998   9.3633938  12.6715088  55.8395767  48.9678841
  12.8518400  56.2026443  48.1007652  12.5577984  56.6062241  49.5296288
  29.7763214  44.8596039  10.2798681  29.1356392  45.0655899  10.9605503
  30.5311871  45.4105835  10.4868269   6.9432888   9.5804377  33.2777367
   6.3484335   8.8875761  32.9908142   6.3752131  10.3353090  33.4316559
  43.1257858  66.1782379   1.2116767  42.1915588  66.2338409   1.4125762
  43.5238152  65.8417740   2.0145442  67.5441666  64.4697800  78.4252243
  66.6315384  64.5448227  78.7039719  67.4946976  64.1252594  77.5335388
   2.5846541  17.0712624  38.9206924   3.3991714  17.5739574  38.9302788
   1.9412380  17.6499252  39.3298340  15.2649450  35.7383156  26.8868122
  15.1842270  36.5077858  26.3232212  14.4463148  35.2595062  26.7571278
  66.4282455   6.1826124  79.1226501  65.9567642   5.3596063  78.9937973
  67.0599747   6.2117705  78.4041138  15.4288359  33.0345421  53.2822685
  15.8554077  32.9891319  52.4265785  14.6081676  33.4984856  53.1164589
  70.1799927   4.4648805  62.5152702  70.2446289   3.5275009  62.3325844
  70.0176010   4.8647661  61.6608963  51.4018059  63.7070923   4.4909592
  52.3452110  63.6969872   4.6525707  51.0443573  63.0801582   5.1197782
  31.8301010  47.1353035  71.6792450  30.9644985  47.5393181  71.7403717
  31.7273045  46.4470558  71.0219879  17.8482513  54.0930519  81.7695312
  18.2321529  54.3932648  80.9456863  17.0446854  53.6427422  81.5092697
  53.0660782   7.9662075  84.7744827  53.2250862   7.0254669  84.6973114
  52.1154442   8.0548344  84.7061615  78.3197403  26.3742905   8.6189928
  77.6393585  27.0468597   8.6499252  79.1321182  26.8615513   8.4816885
  65.8463821  67.6474915  19.9119453  66.5211182  66.9695206  19.9481182
  65.9540100  68.1362991  20.7278614  11.9348326  30.4816532  80.5884628
  12.3688107  29.6528168  80.3861694  11.0192270  30.2433758  80.7337952
  15.6564627  68.0473709  48.9314995  15.9418631  67.1499329  49.1029510
  14.7171316  68.0392380  49.1154099  35.9314766  11.3863039  87.3496399
  36.3989906  10.9042950  88.0317917  36.4390984  11.2279177  86.5537338
  27.8273411  60.5355721  70.3854370  27.8211365  60.0217628  71.1930237
  28.5370827  60.1573372  69.8663635  62.7778053  44.2790642  52.7868385
  62.7676811  43.3473778  53.0061340  61.9711990  44.4170189  52.2902641
  70.4804993  68.8157120  65.9015961  69.9523849  68.2702942  66.4845581
  71.0222778  68.1931686  65.4166794  57.1458817  51.5040512  72.7115707
  57.5017891  50.6673927  73.0108490  57.9130707  52.0666237  72.6058960
  62.2829056  20.1627731   6.7516184  62.4495544  19.2440262   6.9622464
  61.8318748  20.1370335   5.9077339  41.1801338  57.9584236  84.6787720
  41.6490402  57.7811203  83.8633423  40.6613350  58.7407303  84.4914932
  18.0796738  22.2020149  85.1081390  17.2416878  22.5748005  84.8342056
  18.6750221  22.9507427  85.1427612  40.9254570  49.7681274  67.5214157
  40.5189552  48.9019089  67.5469437  40.5628242  50.2253380  68.2801514
  70.2630310  17.3755035  14.6951580  69.6135406  16.7086544  14.4721966
  70.4631195  17.8028660  13.8623581  72.1326141  46.6326408  88.4488907
  72.3176804  47.0282898  89.3006210  72.6409988  45.8216095  88.4460068
  27.6246109  16.2242203  78.4341125  27.2728367  15.4995136  78.9511108
  28.3348179  16.5778618  78.9696274   3.2702332  37.0049629  14.3167830
   3.1753886  36.2825165  13.6960497   2.6349623  37.6579895  14.0231562
  80.7340240  24.6626015  64.1034088  80.3839264  23.8445148  64.4561081
  79.9947281  25.0613289  63.6443939  72.8234024  17.1572266  31.2586441
  72.8540421  18.0285568  30.8635769  72.1627350  17.2296677  31.9474869
  42.6251488  62.6792984  50.0354080  42.8712311  62.8755646  49.1314392
  43.2007179  61.9577599  50.2890511  16.9147339   2.1704369   1.5263867
  17.3881416   1.5764199   0.9439253  17.5995903   2.5979860   2.0405920
  32.2273788  60.8126297  62.2569351  31.3325100  60.8608742  61.9206123
  32.6912155  60.2626648  61.6255684  62.8541069  18.2867737  85.4271011
  63.2931595  19.0934486  85.6968002  62.5292130  17.9065323  86.2432404
  26.9551792  25.0686741   6.9453120  27.3459282  24.5783367   6.2220435
  26.0284233  25.1364956   6.7156272  61.0079613  47.6253548  65.8894424
  61.5302582  47.8396912  65.1164627  60.1010437  47.7353477  65.6037292
  78.1206512  70.5090103  44.2838058  77.9051056  70.2388000  45.1764183
  78.1709595  71.4638519  44.3281593  45.5885201  17.3922348  75.4175720
  45.7223396  18.1415348  74.8371582  44.6595497  17.1807251  75.3253250
  85.6327438  22.5522137  72.0389633  85.2995834  23.4202709  71.8115616
  86.4095230  22.4425545  71.4904938  81.5990448  63.6815948  15.5578232
  81.6497574  62.7662010  15.8329878  82.1416397  64.1522827  16.1905003
  26.7847233  29.7363625  19.6701870  26.5134735  29.8307877  18.7570934
  27.6446972  30.1548862  19.7090797  69.0055542  45.4521294  81.4202957
  68.6648178  46.0606956  82.0758743  68.2323608  44.9876671  81.0998688
  32.6119156  64.8328018  81.3407822  31.7707901  64.4977493  81.6513977
  33.2645340  64.3009872  81.7962952  21.2309303  12.9191952  23.9827881
  22.1392403  13.2066517  23.8901978  20.7136650  13.6410656  23.6256142
  48.9916916   8.1299839   7.1379886  49.7318764   7.6885715   6.7214398
  48.8960533   7.6912646   7.9833355  72.4076080  38.0577545  34.5697899
  71.7640762  38.4842339  35.1356621  73.2452774  38.4430313  34.8269081
  68.1338577   6.3922472  77.0131760  69.0550766   6.2347097  77.2199631
  68.1260300   7.2534628  76.5954666  71.7230072  35.0394020  23.8293781
  70.8636169  34.6180191  23.8184395  71.5380096  35.9553795  24.0367184
  65.1424789   6.1605968   4.5509663  65.6391678   5.3999853   4.8526244
  64.2389069   5.9726830   4.8049116  61.5128326  11.9212132  74.7357254
  61.2261009  11.3527002  75.4504395  60.7644157  12.4947453  74.5709076
  61.0703735   5.5418267  35.5309448  61.8162880   6.1173687  35.3618355
  60.5526581   5.5781336  34.7266502  11.2177191  17.7060184  55.9676170
  10.7321873  16.8815060  55.9934959  11.0901070  18.0864964  56.8366318
  69.5705109  66.7888565  25.1952648  70.0793686  67.2594681  24.5351048
  69.2592010  66.0045242  24.7434483  80.1065216  57.0668564   6.1826172
  79.2648315  57.5210037   6.1432910  80.1525803  56.7247162   7.0753932
  15.9003973  45.1311188  17.4437866  15.1478939  44.6280708  17.7550983
  16.5661983  44.4711800  17.2503395  80.4331055  24.4554367   9.4154310
  79.6693802  25.0306358   9.3696432  81.1606598  24.9987793   9.1126528
  14.5633125  20.3977356   1.5939583  13.7626925  20.3470364   1.0717804
  14.4696846  19.7015247   2.2441556  78.5146561  46.7010078   2.1970608
  79.0997925  47.3875580   1.8769146  77.6399689  47.0854187   2.1388602
   3.1068590  34.5331802  12.6848326   3.2016788  34.4828186  11.7336731
   2.5577912  33.7824097  12.9108820  15.7447109  10.3721504  83.1166916
  15.7947664  11.2006807  82.6399689  16.2900276  10.5083075  83.8915024
  27.0896149   5.5095057  80.5597229  26.4295502   6.1159039  80.8956223
  27.8194675   5.5854168  81.1743698  14.2758064  53.3727493  77.3431244
  13.7227907  52.5974998  77.2462006  13.9339256  53.8152237  78.1200180
  26.8217964  43.4053650  16.4434395  27.4479504  43.2022362  17.1383514
  25.9716721  43.1580353  16.8072376   0.5401967  44.3301010  68.9833679
   0.9157161  43.5350990  69.3617630   0.8468825  44.3317642  68.0766296
  63.6070175  16.5779285  72.9422302  63.4128532  15.6420269  72.9934006
  63.8954887  16.7136974  72.0396881  19.5632210  42.5036850  50.8291588
  19.3097210  42.0102234  51.6092033  19.2320042  43.3877907  50.9869041
  86.8304896  71.6437850  89.1924251  90.0000000  90.0000000  90.0000000
