QMMM reactant CHA#2 frame 47641
 55680
  21.5098991  41.6452408  35.4405212  21.1369667  40.8274460  34.9798355
  20.7467289  42.0454445  35.9673119  21.8736725  42.2331085  34.7041893
  22.6234779  41.3072586  36.3190651  23.3566055  40.7840691  35.7051430
  23.2465267  42.6255264  36.9592400  23.5533142  43.3029022  36.1622772
  22.5817127  43.1461029  37.6485329  24.4935188  42.2475815  37.8071518
  25.0139256  43.0977821  38.2481003  24.1787605  41.5114365  38.5468369
  25.7074928  41.1586380  36.9647369  26.6080780  42.4955292  36.1596375
  27.3081093  43.0321503  36.8000298  27.2805004  42.0061874  35.4550171
  25.8129272  43.0618591  35.6747475  22.1434479  40.2718086  37.3497200
  21.6079330  40.5210876  38.4071083  22.1815910  38.9948463  36.9029579
  22.7060890  38.8074684  36.0604095  21.7425842  37.8695412  37.7530518
  22.0304337  38.0760307  38.7838821  20.2218170  37.7342873  37.7509575
  19.8493195  38.7313995  37.9857178  19.9327660  37.5494041  36.7163696
  19.6414719  36.5631104  38.6031837  19.9648304  35.6885033  38.0387383
  18.5665531  36.4437294  38.4675484  19.9155273  36.5862694  40.4153404
  19.7832813  34.7045555  40.6287460  20.4751186  34.1814346  39.9685860
  18.8000336  34.5150909  40.1981316  19.8594608  34.5471268  41.7046242
  22.5522766  36.5631752  37.3797493  22.9951496  36.3813515  36.2502861
  22.6307755  35.6596146  38.3095016  22.1552448  35.8357964  39.1829605
  23.2511196  34.3038788  38.1716614  24.1896133  34.4622803  37.6403961
  23.5036354  33.6910400  39.5581398  22.5393620  33.4855194  40.0229492
  24.1058826  32.2490120  39.2971802  24.9013023  32.3082733  38.5542831
  24.4929619  31.8289204  40.2255058  23.2831516  31.6278992  38.9430161
  24.3684654  34.4987679  40.5823517  24.8739281  33.8626328  41.3089485
  25.1974659  34.9900818  40.0729713  23.5350056  35.5118980  41.3899040
  22.7281666  34.9868507  41.9012146  24.0533123  35.8314056  42.2939911
  23.1749191  36.4064064  40.8816833  22.2843761  33.3575363  37.3665504
  21.1299648  33.1689873  37.7363319  22.8179817  32.8929443  36.2023239
  23.7825813  33.1324196  36.0225983  22.2345619  32.0355759  35.1683006
  21.3215237  31.5754967  35.5461807  21.8422451  32.8992271  33.9175797
  22.6825333  33.5528641  33.6835365  21.5786076  32.1458092  33.1753120
  20.6702938  33.8715477  34.1984024  19.8146477  33.4234200  34.7035255
  21.0399036  34.7151489  34.7813454  20.2365284  34.3301506  32.8324661
  21.0451565  34.8986473  32.3730698  19.9148178  33.5055656  32.1963348
  19.1036911  35.2660294  33.1298904  18.2235889  34.7820816  33.0235176
  19.1168365  36.5655212  33.4281769  20.2059612  37.3551102  33.3544083
  20.0561409  38.3503609  33.4388847  21.0816154  37.0416908  32.9605827
  17.9732418  37.0838928  33.7267113  17.2219524  36.4162064  33.8260002
  17.9898300  38.0935097  33.7042923  23.2271328  30.8815918  34.8905258
  24.3469906  30.8971100  35.3702393  22.8743992  29.8150349  34.1085663
  21.8881664  29.7134094  33.9159012  23.7483482  28.6987381  33.7937164
  24.7521610  28.8832226  34.1763687  23.2743664  27.7970772  34.1815948
  23.9619484  28.6677780  32.2035370  22.9962578  29.0157032  31.4540462
  25.2132454  28.3312931  31.8118057  25.8772259  28.2029705  32.5619812
  25.8227367  28.2904778  30.5240955  25.1075802  28.4005623  29.7089062
  26.7946739  29.5216732  30.3274899  27.7299423  29.3776035  30.8684368
  27.1485443  29.5097694  28.8372955  27.8070946  30.3589115  28.6545811
  27.5313320  28.5413666  28.5151596  26.1696892  29.6854000  28.3910942
  26.2729149  30.8897038  30.8495083  25.4304180  31.1975708  30.2302227
  25.9653816  30.7419052  31.8847275  27.3048573  32.0403519  30.6721096
  28.2197533  31.8489838  31.2328663  27.3960857  32.1718025  29.5939178
  26.8844128  32.9904709  31.0016479  26.4766426  26.9596558  30.2254925
  27.1578445  26.3560162  31.0947399  26.3816299  26.4215069  28.9765930
  25.8484592  26.9160576  28.2757015  26.8187027  24.9529896  28.6961937
  27.7390537  24.8047237  29.2610645  25.8326664  23.9389915  29.2094135
  25.9716644  23.0186539  28.6421757  25.8860703  23.8192329  30.2915001
  24.3475685  24.3236027  28.8893318  23.9135208  24.8817215  29.7189121
  24.2949409  24.8478851  27.9351521  23.4251499  23.1596737  28.8592167
  23.7893257  22.4574261  29.6090984  22.4001064  23.5165424  28.9593773
  23.5021343  22.5311260  27.5044079  23.7174988  23.1287155  26.7191658
  23.3420086  21.2764244  27.1412239  23.1121521  20.2720718  27.9577236
  22.7363873  20.4930515  28.8688049  22.9144077  19.3698692  27.5490322
  23.3701458  21.0380917  25.8604965  22.8376255  20.2255745  25.5841999
  23.3368797  21.7525978  25.1474228  27.1173763  24.7754288  27.2355537
  26.8955498  25.7278156  26.4770069  27.7751808  23.6938591  26.8614941
  28.0387707  23.0125637  27.5589619  28.3138084  23.4562225  25.5636921
  27.6256828  23.8729286  24.8282070  29.2190876  24.0601425  25.5016232
  28.5985374  21.9663734  25.3364391  28.6921329  21.1493092  26.2258282
  29.0209274  21.6061287  24.1670761  28.9849052  22.3473530  23.4819565
  29.6457138  20.2758923  23.8543758  30.2913055  19.9673252  24.6766281
  28.5476456  19.2428055  23.5815144  28.9627495  18.2368679  23.5192184
  27.9011726  19.2509289  24.4590721  28.0271721  19.4862270  22.6552505
  30.6631126  20.2267113  22.6394196  30.6499500  21.1643753  21.7991333
  31.5424080  19.2636261  22.5128841  31.5194550  18.4806976  23.1505318
  32.5909996  19.1645584  21.4387531  32.1247368  19.3183994  20.4655972
  33.8419838  20.0829964  21.5783005  33.4878883  21.1065521  21.7009716
  34.8139572  19.6620674  22.7764015  35.5594139  20.4563580  22.7376862
  34.3133011  19.6268082  23.7439766  35.2603226  18.7081680  22.4954567
  34.4967575  20.0057507  20.3814144  35.1716537  20.6883373  20.3675442
  32.9902115  17.6704483  21.3435936  32.5198517  16.8628902  22.1840496
  33.7893906  17.2344055  20.3540916  34.0777740  17.9357605  19.6869812
  34.2414894  15.8616142  20.0980015  34.0876198  15.2488670  20.9862385
  33.5775604  15.1294670  18.9612122  34.1522102  14.2041512  18.9202805
  32.1029320  14.8079014  19.1598091  31.7878494  14.1157141  18.3789768
  32.0165405  14.5614300  20.2180557  31.5503864  15.7470236  19.1307602
  33.6703148  15.8771496  17.7368546  34.4940720  15.7665901  17.2564411
  35.7608528  15.8368454  19.8545551  36.2723160  16.7150002  19.1747856
  36.4104347  14.7078619  20.2506676  35.8794670  13.9746819  20.6985779
  37.7424393  14.2215424  19.7770042  38.2720604  15.0453939  19.2985935
  38.5804863  13.7458239  20.9936771  39.6202965  13.5123644  20.7647820
  38.8240814  14.8635817  21.9820023  39.3054008  15.6823015  21.4470978
  37.8831100  15.1331339  22.4616051  39.4663963  14.4826727  22.7760029
  37.9170799  12.6257715  21.7486553  37.7483101  11.7808180  21.0810699
  38.6770668  12.4005451  22.4968586  37.0019073  13.0141335  22.1955662
  37.5870285  13.0566587  18.7033520  36.6637917  12.2720785  18.8724365
  38.5205307  12.8338127  17.7562160  39.1114197  13.5708570  17.3988457
  38.5583572  11.5521469  17.0011158  37.5214882  11.2677889  16.8218365
  39.2630157  11.8112812  15.6343927  40.2425423  12.2894001  15.6401062
  39.3934135  10.8712749  15.0982084  38.5002937  12.6751194  14.7222357
  38.5087128  13.6632557  15.1822529  38.8865433  12.5019588  13.7177792
  37.0102844  12.1366816  14.6360321  36.8120918  10.9559393  14.3315315
  36.0476570  12.9011354  14.7345963  39.2262993  10.3898087  17.7861099
  39.0108528   9.2966652  17.4225712  39.9270134  10.8096962  18.8652534
  40.1029205  11.7962561  18.9912033  40.6699371   9.8118277  19.6052074
  40.2080154   8.8429871  19.4152679  42.0536041   9.6270323  18.9271202
  42.5461006   8.8337851  19.4895344  41.8165741   9.2764549  17.9226227
  42.9539680  10.8893900  18.7773266  42.3742943  11.7040672  18.3432980
  43.2540550  11.2352972  19.7664661  44.2499847  10.6531343  18.0326061
  44.6918907   9.9123116  18.6989403  44.1357346  10.2319384  17.0337849
  45.0275955  11.9161339  18.0738125  44.4879456  12.7578192  17.9308338
  46.3096237  12.0525885  18.1491833  47.1704597  11.1197748  18.2694511
  48.1383171  11.4043665  18.3180428  46.8736801  10.1713448  18.4497604
  46.7520752  13.2645473  18.1563225  47.7154922  13.4256811  17.8994789
  46.0906448  14.0220461  18.0624771  40.7909622  10.1461315  21.1220551
  41.0784492  11.2549124  21.5136776  40.5798759   9.1273336  21.9302521
  40.4752808   8.1970758  21.5510597  40.6625710   9.1905336  23.4567165
  40.1734848  10.1207647  23.7457924  39.9095802   7.9737153  24.0512486
  38.9233398   8.1582069  23.6253452  40.1731033   7.0177193  23.5987720
  39.9628220   7.9352641  25.5941944  40.0994873   8.9788866  26.2788181
  39.8280716   6.8230562  26.1431389  42.1281586   9.2179422  23.9111614
  42.8205109   8.1675749  23.8589687  42.6113014  10.3755150  24.2244549
  42.0009575  11.1661968  24.3741283  44.0226936  10.6645212  24.4797153
  44.4889870   9.9433041  25.1509266  44.9201546  10.5885096  23.2191410
  45.0774078   9.5675755  22.8711987  44.5435181  11.5024776  22.0627460
  44.8817368  12.5024004  22.3345222  45.0541878  11.1424875  21.1695919
  43.4761925  11.5408068  21.8449306  46.2233543  10.9874029  23.6357288
  46.7776985  10.2509499  23.3675060  44.1852684  12.0723991  25.0024509
  43.6204338  13.0612621  24.5235119  45.0761681  12.2993937  25.9458313
  45.7269402  11.5448790  26.1110668  45.3128662  13.6776752  26.5503597
  44.3762665  14.1311388  26.8747864  46.0645714  13.4934196  27.9008980
  45.6419182  12.6268749  28.4093933  47.0374565  13.1054192  27.5991573
  46.3290024  14.7745695  28.7519722  46.6627464  15.6007404  28.1241531
  45.2784042  14.9721575  28.9648304  47.0353661  14.5380383  30.0540390
  47.1476593  13.3926458  30.4930153  47.6024094  15.5251303  30.6495724
  45.8575706  14.7039328  25.5815067  45.6732979  15.9139605  25.8113232
  46.5446625  14.2594128  24.5246487  46.5753937  13.2743511  24.3037205
  47.1169739  15.1407938  23.5087280  47.8150101  15.7945786  24.0316181
  48.0380211  14.2342033  22.6238346  48.7754211  13.7795467  23.2853756
  47.2823143  13.5616999  22.2179470  48.9032021  14.9644537  21.5356598
  49.4600868  14.1571712  21.0599747  48.2797089  15.4312906  20.7731514
  49.7843170  16.0915756  22.0541115  50.2807617  16.0769558  23.2126503
  50.1041908  17.0048542  21.2301121  46.0852318  15.8839931  22.6705551
  46.3655090  17.0385914  22.2617664  44.8285675  15.3928442  22.5540619
  44.6614761  14.4230433  22.7813721  43.7009697  16.0693893  21.9591656
  44.0901413  16.9105606  21.3855152  42.9795914  15.1485519  20.9104309
  42.5980339  14.3292627  21.5197563  42.0675316  15.5617380  20.4797077
  43.7348747  14.6004524  19.7275219  44.6068573  14.0028963  19.9933624
  43.0351906  13.9989071  19.1472759  44.3167458  15.6773615  18.7876682
  45.0304909  15.3188524  17.7880688  44.0792198  16.9161758  19.0554924
  42.7435913  16.6246147  22.9951000  42.3547401  17.7591534  22.8729382
  42.4180756  15.8018694  24.0060921  42.8761215  14.9069376  24.1030045
  41.4390488  16.1933403  25.0011330  40.4722519  16.2898235  24.5070724
  41.3446159  15.0948467  26.0926914  42.2937088  14.7839336  26.5293350
  40.5827980  15.6595297  27.3061810  41.0276909  16.4178715  27.9504471
  39.6264153  16.0458260  26.9537506  40.3650131  14.7790670  27.9107094
  40.5841484  13.8943157  25.5361023  39.5666924  14.1694326  25.2582741
  40.9448738  13.6914921  24.5277176  40.7174149  12.5328579  26.3515644
  40.2627220  11.7262592  25.7764530  41.7538528  12.2190351  26.4757080
  40.4278259  12.7257938  27.3845329  41.6439743  17.5640564  25.6358643
  40.6959343  18.4012623  25.6979580  42.8184395  17.9364109  26.1821098
  43.6504631  17.4029598  25.9740868  43.0044899  19.2202053  26.8540916
  42.2309914  19.4084148  27.5986595  44.3747520  19.3225079  27.5527592
  45.1719704  19.2002335  26.8195515  44.4235764  20.2753792  28.0797825
  44.5036964  18.2492752  28.6513901  44.3532104  17.2465973  28.2512760
  46.0232658  18.2396812  29.0307961  46.2389450  17.5468655  29.8441772
  46.6592064  18.1082268  28.1553555  46.3504715  19.1958351  29.4392128
  43.6482811  18.5539379  29.9245300  42.5818558  18.6134129  29.7070580
  43.7841835  17.7182465  30.6110077  44.1402893  19.4428234  30.3193760
  42.8851814  20.4817848  25.9358768  42.2280312  21.3948441  26.2966785
  43.4734001  20.3158932  24.7280865  43.9219437  19.4357471  24.5177059
  43.2937698  21.3467312  23.7276936  43.5527382  22.2610683  24.2615700
  44.2396011  21.2034550  22.5261707  44.2114601  20.1677589  22.1875782
  43.8828011  21.8238487  21.7040310  45.7392082  21.5183125  22.8966274
  45.9401169  21.0692310  23.8692856  46.3096123  21.0767155  22.0794792
  46.0509682  23.0315628  22.9584885  45.2573814  23.9589081  23.0586338
  47.2714424  23.4341888  23.0324478  47.8875465  22.7033768  22.7062111
  47.4513092  24.4189014  23.1669483  41.8631363  21.5030556  23.2460747
  41.3367233  22.6137371  23.3560009  41.2414856  20.4508343  22.7169876
  41.6222878  19.5277023  22.8683681  39.7968788  20.5039482  22.3304710
  39.6591721  21.2924500  21.5906029  39.4091187  19.1391544  21.7718048
  39.9754219  18.2605705  22.0808220  38.4021912  18.9287643  22.1322727
  39.2472916  19.0932560  20.2582588  38.6040573  18.3199234  19.8383751
  38.8613586  20.0687447  19.9623260  40.7137680  19.0299091  19.6520138
  41.2185822  19.9959259  19.6432343  41.2524796  18.3182259  20.2776299
  40.6912384  18.4946823  18.1987839  40.1258011  17.5717068  18.0703259
  40.0895844  19.2787285  17.7390194  42.0548210  18.4300709  17.5918274
  42.6862450  17.8057728  18.0731316  41.9603043  18.1962700  16.6138134
  42.5088387  19.3274536  17.6849518  38.7975121  20.9164314  23.4132137
  37.8978996  21.7545319  23.1709557  38.9670334  20.4767342  24.6872444
  39.5247841  19.6347084  24.6839981  38.1940880  21.0036430  25.8329697
  37.1235542  20.9641094  25.6317329  38.4237785  20.0884724  27.1169930
  39.4319229  20.2222290  27.5092316  37.4409103  20.5408268  28.2507648
  37.5310783  19.7353745  28.9796085  37.6966438  21.4540691  28.7880630
  36.3784370  20.5410843  28.0073452  38.1268806  18.7395077  26.8740540
  38.8630104  18.3993549  26.3602390  38.4134369  22.4612961  26.2386513
  37.4401588  23.1753807  26.1315937  39.6494560  22.8300438  26.2768440
  40.3343048  22.1011372  26.1362171  40.1343460  24.2642269  26.4619694
  39.6669693  24.6573238  27.3648167  41.6573219  24.3396149  26.5902081
  41.8493271  23.5272388  27.2911205  42.1564407  24.0614433  25.6619835
  42.3398399  25.7060223  26.9741688  42.1787071  26.5631065  26.3203011
  41.9167938  25.9155045  27.9566422  43.8529549  25.6152306  27.1015434
  44.0822678  26.4971561  27.6996441  44.0176811  24.7195873  27.7005348
  44.5816116  25.5973644  25.7496700  44.3154716  24.6864758  25.2134323
  44.3779297  26.4577560  25.1122227  46.1067810  25.7195988  25.9095879
  46.2803993  26.4407196  26.5951099  46.4851913  24.8949089  26.3531990
  46.5749016  26.0369167  25.0727654  39.6495438  25.1494675  25.3535252
  39.2415771  26.2613068  25.5721092  39.6864090  24.6318607  24.1209354
  40.1283417  23.7274799  24.0379124  39.1116867  25.3841610  23.0247993
  39.4620438  26.4144402  23.0870495  39.5629883  24.6868267  21.7648296
  39.3156357  23.6387672  21.9336300  38.8167496  25.0050449  21.0368423
  40.9365463  24.9727993  21.0755348  41.7565842  24.5078201  21.6227417
  40.8832207  24.3709869  20.1682968  41.2090111  26.4760895  20.7954903
  40.3429070  27.3361912  20.7433434  42.4937210  26.8570347  20.6537800
  42.5995293  27.8346100  20.4230118  43.2366180  26.1921234  20.8153248
  37.5991974  25.4871826  22.9697990  37.0650253  26.5287170  22.6114349
  36.8604660  24.5546932  23.6076374  37.2087097  23.7250099  24.0663853
  35.4296722  24.8175602  23.9484959  34.9647560  25.1234455  23.0112724
  34.7912598  23.5015831  24.5591640  34.9991722  22.7363529  23.8113003
  35.2673264  23.2765598  25.5135365  33.2939148  23.4298954  24.8498230
  33.1358452  24.1126041  25.6847019  32.4116936  23.7773933  23.6667538
  31.3558846  23.8094711  23.9357281  32.6260033  24.7690239  23.2682037
  32.5244370  23.1395340  22.7901001  32.7838287  22.0904026  25.1829433
  32.9484596  21.3840103  24.3693066  33.3366470  21.7379150  26.0537167
  31.7402744  22.1036053  25.4974785  35.2805061  25.9831009  24.9539547
  34.4645500  26.8442154  24.6206589  36.0450821  25.9797421  26.0570736
  36.6973991  25.2149506  26.1554642  35.9786034  26.9355526  27.1710148
  34.9582253  27.0926895  27.5206337  36.8056984  26.3597450  28.3530178
  37.8209000  26.0946350  28.0577431  37.0592461  27.1757145  29.0297832
  36.0474777  25.3733978  29.1960983  35.3967972  24.7345009  28.5989914
  36.9089775  24.4313622  29.9773865  37.7889862  24.1482582  29.3998604
  37.3450317  25.0219746  30.7830753  36.3273506  23.6108418  30.3975697
  35.0488739  26.0179539  30.1042843  34.2602272  26.5056496  29.5313072
  34.5544662  25.2460670  30.6940765  35.5690536  26.6902161  30.7866154
  36.3654709  28.2990494  26.6158199  35.6304398  29.2708092  26.8838120
  37.3686066  28.4709244  25.7285595  37.9571838  27.6735649  25.5338974
  37.7663040  29.7403507  25.0360985  37.8338585  30.5036774  25.8112564
  39.1730919  29.5445271  24.2998543  39.1779022  28.5302277  23.9007626
  39.3460846  30.2582664  23.4944038  40.3067093  29.5235615  25.2666931
  39.8904228  29.1170311  26.1883965  41.1166916  28.9018078  24.8853073
  40.8033791  30.9274712  25.4850979  40.0625420  31.9207859  25.4420128
  42.0270271  31.0760117  25.6710320  36.5113869  30.1726456  24.2628784
  36.0108719  31.2665405  24.4425430  35.9132195  29.2466335  23.4852619
  36.3796959  28.3544769  23.4042854  34.8326492  29.6597958  22.5975819
  35.1541595  30.5952873  22.1397762  34.6167488  28.6201248  21.5289135
  35.5418930  28.3009758  21.0489635  34.1389847  27.7509823  21.9810677
  33.7685738  29.0066662  20.2920494  33.7081642  28.0726471  19.7334270
  32.7464447  29.2509689  20.5813084  34.3844109  30.1329365  19.4296818
  34.4897766  31.1018505  19.9177456  35.3923416  29.7935734  19.1908970
  33.5426216  30.4903374  18.1917324  33.3823700  29.6286335  17.5437450
  32.5242653  30.6313610  18.5538979  34.0266380  31.6975079  17.5027199
  33.3536720  32.0082817  16.8166847  34.1373291  32.5441246  18.0422497
  34.9393349  31.5717068  17.0888805  33.5300026  30.0324135  23.3638802
  32.7842216  30.9235649  22.8515453  33.1521645  29.3780632  24.4462051
  33.6573601  28.5289783  24.6558075  31.9832840  29.8178406  25.2213936
  31.1508274  29.9427223  24.5289097  31.5020123  28.7923927  26.3194294
  32.3967590  28.6156750  26.9163380  30.3936501  29.3717327  27.2340965
  29.5272007  29.6685047  26.6430855  30.1888275  28.5795918  27.9542789
  30.7798481  30.1771564  27.8587914  31.0679569  27.4303474  25.6202049
  30.0219002  27.6814728  25.4446850  31.5947952  27.2219238  24.6890240
  31.1270390  26.1629734  26.5540524  31.2523441  25.2851925  25.9200993
  32.0480461  26.2455444  27.1311398  30.1971169  26.1607037  27.1226864
  32.2666397  31.1793919  25.8354912  31.4500542  32.0654106  25.7662449
  33.4501648  31.3802662  26.4555225  34.0603561  30.5814056  26.5534592
  33.9011574  32.5546455  27.1005230  33.1835670  32.9529610  27.8178158
  35.2528801  32.2393684  27.8206329  35.9513435  31.8274078  27.0922508
  35.8335915  33.4647522  28.4646626  36.7051086  33.1082840  29.0137405
  36.2030640  34.1833992  27.7331295  35.1881371  33.9172096  29.2175026
  34.9965019  31.2235603  28.9602299  34.3751183  31.6735001  29.7345295
  34.3899498  30.4070320  28.5684643  36.3272400  30.6049919  29.5400143
  36.7736015  31.3145809  30.2366848  36.2499619  29.6175137  29.9950047
  37.1072273  30.5080318  28.7848110  33.8556709  33.7339935  26.1481380
  33.3649864  34.7955322  26.4944382  34.4427795  33.6090851  24.9398270
  34.9602661  32.7599411  24.7630081  34.5209465  34.6519508  23.9447327
  35.0247307  35.4896660  24.4269562  35.3583336  34.1968155  22.7314243
  36.3045006  33.8036041  23.1032486  34.8184357  33.4299316  22.1759987
  35.7559929  35.2526093  21.6942654  36.4779816  34.7277374  21.0686913
  34.8309021  35.3694344  21.1297607  36.2179642  36.6577682  22.0829277
  36.7537537  37.3213768  21.1586914  36.1490211  36.9454689  23.2460423
  33.1455269  35.0922394  23.4841805  32.9591293  36.2824440  23.1996288
  32.1507568  34.2068405  23.4732075  32.3662796  33.2238274  23.5588245
  30.8139153  34.5812073  23.0822430  30.9025421  35.1491432  22.1561241
  29.9065132  33.3953094  22.7239265  30.0888329  32.7189484  23.5590267
  28.8683758  33.7239189  22.7728233  30.2103939  32.8100586  21.3515892
  31.2870235  32.7337608  21.1994419  29.8404751  31.7867184  21.2880516
  29.6829166  33.6657143  20.1761112  29.8010654  34.9588966  20.2072639
  29.1480961  33.1691360  19.1868706  30.1301670  35.3305588  24.2395973
  29.5237865  36.3627205  23.9476528  30.2038403  34.8370285  25.4637814
  30.8188858  34.0399208  25.5440426  29.4671669  35.3659706  26.6089630
  28.5384483  35.8002319  26.2388306  29.0611668  34.3041039  27.5904465
  29.8951378  33.7467155  28.0169601  28.5935078  34.7552261  28.4655914
  28.1286850  33.3497200  26.8838253  26.9711361  33.5701561  26.6920719
  28.5945435  32.2211609  26.5027790  27.9324551  31.5952854  26.0668640
  29.5978336  32.1052780  26.5117798  30.1601830  36.5727196  27.3382282
  29.6734524  37.2196960  28.2705784  31.4254627  36.7834740  27.0078831
  31.7322941  36.1962128  26.2455978  32.4382744  37.6521645  27.6376228
  33.3125267  37.3781395  27.0471191  32.0671120  39.0940247  27.2758846
  31.2577076  39.4171257  27.9305401  32.9665260  39.6906967  27.4279976
  31.6403656  39.2531204  25.9039745  32.4169540  38.8548775  24.8843937
  33.3772469  38.5448914  24.9273777  31.7267342  39.0320778  23.7536297
  32.1069450  38.9306755  22.7478657  30.5427418  39.5085258  24.0661335
  29.7807159  39.5167732  23.4032993  30.4739571  39.6562920  25.4012775
  29.5788651  39.7741356  25.9940033  32.7445488  37.4257965  29.2170372
  32.7613029  38.3492165  30.0043068  32.8783112  36.1205673  29.5858421
  32.9508781  35.3854866  28.8970089  32.9319420  35.6612167  31.0190830
  32.1955872  36.2245293  31.5922890  32.4951172  34.1557541  31.1269417
  33.2974701  33.4831505  30.8237247  32.0423584  33.6627045  32.4542313
  31.4140110  32.7762680  32.3676300  32.9697189  33.5950813  33.0230293
  31.3736458  34.4367867  32.8306923  31.3588600  33.9334030  30.2540302
  30.5351009  34.0910110  30.7211304  34.3079567  35.8260040  31.7316246
  35.3162956  35.9378586  31.0654602  34.3334389  35.8361626  33.0793076
  33.4261322  35.9328842  33.5123711  35.5374184  35.8143158  33.9415169
  36.3368530  35.3853302  33.3373871  36.0555305  37.2684059  34.3092041
  37.0656204  37.2089005  34.7145233  36.0032578  37.8682289  33.4005928
  34.9957695  37.8959579  35.2685204  34.1013565  38.0390167  34.6621704
  34.8110962  37.1818810  36.0710793  35.4820213  39.1407318  35.9198189
  36.4570770  38.9053535  36.3463860  35.5499535  39.9950142  35.2462540
  34.6490517  39.6076279  37.0952568  34.6133957  38.7828979  37.8070564
  35.0690193  40.4788475  37.5979500  33.2487144  39.9874153  36.6505737
  33.2567101  40.8415489  36.1115875  32.7698250  39.2379379  36.1719856
  32.6214981  40.1055832  37.4333458  35.3350754  34.8283081  35.1044426
  34.2888794  34.7944298  35.7375145  36.4131889  34.0146828  35.3950157
  37.7596359  34.0524216  34.9118347  38.0996017  35.0714531  34.7271843
  37.6653519  33.5521202  33.9480362  38.5865097  33.3805046  35.9878845
  38.8603020  34.0872879  36.7712097  39.5076447  32.9476776  35.5976562
  37.6169014  32.3227234  36.5687370  37.9788322  32.1527214  37.5827408
  37.6338921  31.4167461  35.9629135  36.2330475  33.0028534  36.4194450
  35.6144409  32.1836395  36.0529556  35.7004013  33.4353256  37.8515663
  35.0345840  32.6314087  38.3977814  35.8621941  34.6708679  38.3959656
  36.3205376  35.3420639  37.7963676  35.4296074  35.0635910  39.7237473
  35.8337860  34.3335495  40.4250145  36.0328979  36.4596748  39.9753723
  37.0963669  36.4078522  39.7420197  35.6033096  37.3079414  39.4424629
  35.9965057  36.7088242  41.5180893  36.0714951  35.7472191  42.0258217
  36.9242935  37.2110138  41.7921677  34.7636871  37.5039444  42.0404091
  34.2235222  37.1690788  43.1244431  34.2326393  38.4122581  41.3239899
  33.9180794  35.0011559  39.8606606  33.3976288  35.0387688  40.9832191
  33.1590157  34.9975014  38.6722336  33.6748428  35.1498299  37.8173523
  31.7290096  34.9838638  38.6268311  31.2217598  35.5662498  39.3960114
  31.2807693  35.7045822  37.3722305  31.7075214  35.3352509  36.4397163
  30.2225189  35.4541283  37.2981911  31.4537888  37.2349510  37.3292618
  31.2452011  37.9207878  38.3118095  31.6782646  37.7158012  36.1962013
  31.1646214  33.5863457  38.6712151  29.9059143  33.4219780  38.8963432
  31.9934864  32.5950966  38.2504616  32.9718132  32.7966003  38.1008949
  31.5328770  31.1869507  38.0841866  30.5508747  31.1438694  37.6131058
  32.5660706  30.3328533  37.2218323  33.5635185  30.3074780  37.6606522
  32.0202026  28.9775639  36.9588737  32.6523056  28.5269470  36.1936951
  31.9712105  28.4108906  37.8887062  30.9781075  28.9635239  36.6395988
  32.7213669  31.0663528  35.8642120  33.4856911  30.5960178  35.2455940
  31.7682209  31.0591278  35.3354797  33.0833588  32.0428619  36.1859169
  31.4487667  30.4645596  39.4496002  32.3997803  30.3351479  40.1548729
  30.3312511  30.0104027  39.7906532  29.5353317  30.2023659  39.1992416
  30.0260181  29.2690334  40.9609871  30.4289322  29.8240318  41.8081818
  28.5182819  29.2324791  41.1034241  28.0203304  28.8179779  40.2268753
  28.0757580  28.3675232  42.3488312  26.9900208  28.4447670  42.4064255
  28.3081264  27.3037663  42.2985573  28.6203709  28.7012901  43.2320595
  27.9794903  30.6828156  41.3570023  28.4876842  31.1231747  42.2148666
  28.1359520  31.3720379  40.5271873  26.9006634  30.6096592  41.4944038
  30.6237850  27.8355980  40.9804649  31.2727299  27.4812031  41.9463692
  30.3233070  26.9206829  40.1136703  29.7628593  27.1739311  39.3125038
  30.8859158  25.5804749  39.9828186  31.9553871  25.7161369  40.1438789
  30.2511425  24.7387810  41.0909004  30.6561852  23.7370491  40.9474525
  30.5702648  25.0758915  42.0771141  28.6860275  24.6678696  40.9985619
  28.1862679  25.6038933  40.7491722  28.5008507  23.9529552  40.1968651
  28.0101681  24.1016693  42.2551727  28.5035191  24.0371532  43.3300247
  26.8097172  23.5954399  42.0579453  26.3749943  23.0872498  42.8148193
  26.5261326  23.3528652  41.1194153  30.6283436  25.0790348  38.5644150
  29.8948326  25.6436710  37.7564850  31.2110977  23.8968697  38.2407875
  31.8112869  23.4219494  38.8998222  31.1165009  23.3262787  36.9046135
  30.3096828  23.7744331  36.3246880  32.4611816  23.6757431  36.1928635
  32.6018028  24.7480412  36.3288879  33.2931442  23.2100086  36.7210960
  32.6670303  23.1868000  34.7615013  32.4792633  22.1135559  34.7930145
  31.8771420  23.5284100  34.0925598  34.2795753  23.6834373  34.0021210
  33.9219131  25.3908100  33.8073769  32.9502487  25.3098202  33.3201294
  33.7300453  25.8422241  34.7807808  34.6186752  25.8650570  33.1162071
  30.9585800  21.8012466  36.9476891  31.5583515  21.0490189  37.7088127
  30.1682968  21.2868977  36.0267868  29.6629925  21.9226532  35.4262962
  30.0320377  19.9069271  35.6906929  30.7301083  19.3351555  36.3021431
  28.5887718  19.4116211  35.9791679  27.9524956  20.1134357  35.4399910
  28.5449505  18.3833637  35.6201859  28.2767487  19.3300323  37.4776917
  28.5817299  20.2832985  37.9093971  26.7987423  19.2459908  37.6234932
  26.6357212  19.2386475  38.7012100  26.4519672  20.1418495  37.1084366
  26.3965778  18.3429070  37.1643448  29.0872402  18.2552700  38.1457672
  30.1353397  18.4141827  37.8921242  28.9495373  18.3111210  39.2255898
  28.7469540  17.2759285  37.8092995  30.4260254  19.6835155  34.2148628
  29.8748817  20.2204266  33.2714500  31.4074001  18.7769527  34.0856056
  31.5767975  18.2772522  34.9468307  31.8778839  18.2261009  32.8590508
  31.6190681  18.8550797  32.0072861  33.3771400  18.2691193  32.8732758
  33.7010918  17.7280846  33.7623405  33.7587662  17.7544327  31.9914837
  34.1824722  19.5748100  33.0027809  33.6159592  20.1378860  33.7444763
  35.5906143  19.3684425  33.4313202  36.2093925  18.9860573  32.6195412
  35.9604340  20.3188305  33.8161507  35.6031532  18.7335548  34.3172455
  34.2872009  20.3208008  31.7245255  34.9054756  19.7929516  30.9984322
  33.2651825  20.4672623  31.3750534  34.6609955  21.3277721  31.9099426
  31.4150066  16.7704067  32.6753693  31.3333302  16.0878181  33.7164383
  31.3202038  16.2451878  31.4204826  31.5575714  16.8012562  30.6114426
  31.2009811  14.8023748  31.2178020  31.6117611  14.1881056  32.0190735
  29.7071857  14.3364706  30.9282055  29.6566811  13.2490778  30.8722954
  29.0300465  14.8710175  31.5944233  29.3273907  14.8902245  29.6876278
  28.7511368  14.2776279  29.2247486  32.0498352  14.4216576  29.9794254
  32.3980141  15.3234005  29.2142162  32.2745781  13.1288776  29.7924004
  31.8837605  12.5089531  30.4874249  32.6182213  12.5313778  28.5153198
  32.1965714  13.2038202  27.7682343  34.1575012  12.3600025  28.3464527
  34.2712517  12.1370707  27.2855778  34.6781311  13.1814804  28.8386097
  34.3857193  11.4603291  28.9179440  31.7679310  11.2292500  28.1987820
  31.2332172  10.6636419  29.1415920  31.6491089  10.8261995  26.9660892
  32.1448936  11.2695169  26.2059746  30.9247570   9.5945215  26.6817379
  29.9504337   9.6894150  27.1610966  30.6434784   9.3558817  25.2122631
  30.5442734   8.3087873  24.9261570  29.3051014   9.9972582  24.8607540
  29.3316402  11.0863428  24.8968296  29.0203114   9.6811981  23.8572102
  28.5963840   9.7196674  25.6409855  31.7325878   9.9276619  24.4718609
  32.3628311   9.2036409  24.4580994  31.7553139   8.3208065  27.1767731
  32.9851456   8.4629412  27.3682423  31.1008377   7.1877947  27.4434319
  29.6929932   6.9114461  27.3407249  29.4525948   6.4482660  26.3837643
  28.9725418   7.7290912  27.3633556  29.3038235   5.8762007  28.4354305
  28.3203907   5.4837298  28.1767254  29.1861019   6.3150787  29.4262047
  30.5556774   4.9714794  28.4200668  30.4910507   4.2832479  27.5772972
  30.7422047   4.3765268  29.3141251  31.6889896   6.0185137  28.1067638
  32.0487366   6.3592372  29.0776329  32.7975693   5.2986975  27.3229542
  33.3468704   4.2361217  27.7654934  33.1711540   5.8532882  26.1640091
  32.7365685   6.6835732  25.7873650  34.2756653   5.5183792  25.2748680
  34.4196625   4.4399953  25.3416004  33.8570786   5.7258787  23.7722721
  34.7817802   5.5690713  23.2168980  33.1626663   4.9263611  23.5140686
  33.0429573   7.0801177  23.5036411  32.2700195   7.1927662  22.5397053
  33.3140144   7.9776402  24.3180084  35.6673164   6.1481323  25.6715622
  36.7381134   5.6217127  25.3768044  35.6144142   7.3443451  26.2752914
  34.7101517   7.6829615  26.5715141  36.7891235   8.0994806  26.7447433
  37.5859261   7.7942362  26.0664883  36.4561615   9.5823927  26.6483498
  35.4098740   9.8702602  26.7509098  37.0342789  10.0318422  27.4557381
  37.0688400  10.2263050  25.3982468  38.1399384  10.0627794  25.2794590
  36.4092674   9.6698341  24.1375408  36.4729805   8.5817080  24.1413898
  35.4364395  10.0995789  23.8987484  37.0499039   9.9061708  23.2879353
  36.9073753  11.7922506  25.5409641  37.3278923  12.0626802  26.5095406
  37.4087067  12.2141171  24.6698761  35.8519287  12.0641613  25.5551281
  37.1042709   7.6531644  28.1333790  36.1780396   7.5732660  28.9431686
  38.3519897   7.3774338  28.4155426  39.0346146   7.5324368  27.6874638
  38.9370155   6.9601564  29.6820011  38.3024750   7.2002048  30.5351315
  38.9882317   5.4480338  29.6959076  39.5344353   5.0845861  28.8254681
  39.5989456   5.0720382  30.5167332  37.5906296   4.8542695  29.8376598
  36.6905861   5.0049529  30.8647232  36.8949509   5.3360815  31.7967587
  35.5600967   4.3504052  30.5392399  34.6177101   4.4445724  31.0583153
  35.7863731   3.7626915  29.3024807  35.0595856   3.4001861  28.7020893
  36.9870796   4.1781459  28.7986774  37.4632912   4.0418968  27.8389587
  40.3371277   7.5298829  29.9001446  40.8697319   7.4343696  31.0085850
  41.0863419   8.1589184  28.8827915  40.6245537   8.2871389  27.9937401
  42.5066223   8.6527920  29.1487560  43.0978889   7.7839584  29.4379501
  43.0756187   9.3302841  27.8470402  42.8877563   8.6993504  26.9782867
  42.6923141  10.3387833  27.6917801  44.1403923   9.4775352  28.0278015
  42.7574425   9.7141705  30.2106228  43.8208733   9.7076950  30.7337112
  41.8665886  10.6668053  30.5397320  40.9407959  10.6156406  30.1392403
  42.1720161  11.8115482  31.3991566  42.8002663  11.3857327  32.1815109
  43.1039238  12.8195734  30.8044167  43.8165436  12.1752720  30.2894840
  42.4182281  13.6745882  29.7214222  41.7893829  14.3108444  30.3441906
  43.1617813  14.2491608  29.1690674  41.8069382  13.1225996  29.0074654
  43.8895416  13.7913237  31.7151356  44.5910568  13.1670513  32.2685356
  44.4014130  14.5282993  31.0963039  43.3129158  14.3083582  32.4821358
  40.9637680  12.4279079  32.0714302  39.9304428  12.4457235  31.4028320
  41.1108627  13.0402145  33.2009544  41.9691696  13.0626736  33.7328453
  40.0400009  13.9218493  33.6573219  39.0775185  13.4321804  33.5091324
  40.1146469  14.2671795  35.1602592  41.1387329  14.5701933  35.3782768
  39.4632568  15.1348734  35.2646675  39.5805397  13.1257896  36.0419273
  38.1588669  12.9294167  36.2678947  37.4352951  13.6124744  35.8480415
  37.6916275  11.8051205  37.0189819  36.6372032  11.5720396  37.0352325
  38.6643867  11.0810280  37.7809410  38.3439598  10.2435703  38.3829346
  39.9764481  11.4509993  37.6486969  40.7097321  10.8746223  38.1932030
  40.4764481  12.3629427  36.7596741  41.5490837  12.4575291  36.6765289
  40.0717201  15.3002224  32.7623100  40.9890785  16.1176662  32.8582535
  38.9618263  15.5809040  32.0788994  37.7574234  14.8133831  31.8304482
  37.1327629  15.0407772  32.6942749  37.8253136  13.7266130  31.8796654
  37.0755386  15.3133621  30.6099148  36.0240440  15.0608282  30.4732285
  37.6113815  14.9170189  29.7474270  37.3533478  16.8007240  30.6354256
  36.7156219  17.3800220  31.3031235  37.5154839  17.1585274  29.6186714
  38.7563171  16.8326015  31.2980671  39.5174141  16.8861198  30.5196285
  39.0129623  18.0557003  32.2299194  39.4377098  19.0785732  31.7021084
  38.8026466  17.9774017  33.5306396  38.4398727  17.1369286  33.9573708
  39.0609970  19.0123787  34.4354248  38.5470924  19.9239655  34.1304245
  38.5822830  18.5131645  35.8148041  37.5027237  18.3717823  35.7631149
  39.2292938  17.6709385  36.0600204  38.7614059  19.2623634  36.5859833
  40.5084839  19.4799232  34.5290375  40.7949486  20.6638546  34.7924156
  41.4665070  18.6298561  34.2120209  41.2314835  17.6689186  34.0083961
  42.8961525  19.0893326  33.8880577  43.3241539  19.3575535  34.8539619
  43.6357956  17.7992458  33.5879402  43.3764038  17.1288662  34.4073334
  43.2506256  17.3451958  32.6749306  45.1199760  17.9652386  33.4553795
  45.3503304  18.4381981  32.5007362  45.4625282  18.5551567  34.3055305
  45.7155228  16.5231915  33.5078888  45.2492294  16.0328293  34.3624153
  45.6206207  15.9882975  32.5629120  47.1468811  16.6240082  33.8437195
  47.2245026  17.1921597  34.7706909  47.5132294  15.6568842  34.1880608
  48.0648384  17.1823063  32.8087196  47.8341789  18.1286640  32.5416985
  49.0274734  17.1860828  33.1143799  48.1101913  16.5443668  32.0270042
  42.9982529  20.2096272  32.8586197  44.0438995  20.8569336  32.8558960
  41.9732285  20.4737625  32.0464249  41.1701508  19.8620701  32.0147972
  42.0460281  21.6796970  31.1531315  43.0463829  21.6934566  30.7204571
  41.1234016  21.5077744  29.9316826  41.2654610  22.3541870  29.2597332
  41.2701111  20.5903835  29.3616199  40.1093788  21.6879902  30.2885914
  41.7648048  23.0046043  31.8530293  42.1532364  24.0734348  31.3589077
  41.0602722  23.0322666  32.9944763  40.7466812  22.2140846  33.4968109
  40.5033188  24.2401314  33.5574684  39.9991570  24.7214279  32.7194519
  39.4280853  24.0103798  34.6869392  39.8928947  23.5416107  35.5542984
  38.7761765  25.3455467  35.0573273  37.8495369  25.2409363  35.6216774
  39.5568314  25.8827915  35.5958939  38.5699158  25.9987736  34.2094765
  38.2377205  23.1670208  34.3761024  38.5836563  22.2149429  33.9736290
  37.6103477  22.9113445  35.2299995  37.7553329  23.6701508  33.5380936
  41.6005745  25.1969109  34.1028252  41.6777115  26.2710075  33.5226326
  42.4388237  24.8254032  35.0450401  42.3073082  23.8772984  35.3673782
  43.6829910  25.5623379  35.4290314  43.2274246  26.4755630  35.8119011
  44.3137779  24.7065296  36.5583572  45.2136421  25.1819592  36.9486237
  43.5834389  24.5509872  37.3524017  44.6807251  23.2389469  36.1880417
  43.8393593  22.6613750  35.8051414  45.4270134  23.2858829  35.3949738
  45.2967644  22.5026798  37.3480110  46.3365059  22.8266830  37.3934441
  44.8224258  22.7107315  38.3070831  45.3074646  21.0216274  37.2378349
  46.1431618  20.4837570  37.0578270  44.2284431  20.2583733  37.3779373
  43.0308418  20.6942749  37.5593605  42.3121872  20.0250378  37.7954826
  42.8290520  21.6785603  37.6621475  44.3222466  18.9799061  37.2870865
  43.5116310  18.4004669  37.4521790  45.2312813  18.5439320  37.2263985
  44.6955414  25.7528877  34.3289871  45.6447334  26.4870739  34.5724564
  44.5621948  25.1786156  33.1513596  43.6697655  24.7485981  32.9545059
  45.3831520  25.6684151  32.0264931  46.4003868  25.8605194  32.3677139
  45.4875717  24.3839760  31.1600342  45.8080750  23.6417866  31.8911533
  44.4690628  24.1620083  30.8414993  46.4344215  24.3972492  29.9472618
  46.4142952  23.4749298  29.3667374  45.9722061  25.0328426  29.1919575
  47.8647537  24.7131233  30.1391411  48.5019836  25.4066963  29.3209534
  48.4077759  24.1576977  31.1224289  44.8464928  26.9105434  31.3170815
  45.6965790  27.5717964  30.6700745  43.6361275  27.4415455  31.6064110
  42.9964981  26.8994122  32.1694946  43.3577957  28.8404808  31.3943748
  43.9392204  29.2602921  30.5735207  41.8574715  29.0719719  31.0655365
  41.2626991  28.6300468  31.8649406  41.5672264  30.1176968  31.1671352
  41.3842964  28.4807873  29.7110729  41.5904732  27.4106979  29.6885529
  39.9195137  28.5705166  29.6217442  39.3440056  28.0315800  30.3743629
  39.6748352  29.5844288  29.9383068  39.6155472  28.2284164  28.6324673
  41.9360924  29.1154652  28.4294357  43.0046844  29.2994328  28.5406055
  41.7777328  28.3296242  27.6908741  41.4210091  30.0561752  28.2348747
  43.7289886  29.6087742  32.6640892  43.5539360  29.2231255  33.8319130
  44.1232529  30.9194164  32.4675827  44.3857460  31.2387581  31.5460529
  44.6141891  31.7734814  33.5098152  45.3539352  31.3181477  34.1682587
  45.2338982  33.1055260  32.9120827  45.9551277  32.8228760  32.1452446
  44.3553123  33.6121559  32.5126953  45.8716965  33.9383507  33.9104691
  45.8462601  34.8397522  33.5811844  43.4006882  32.0607681  34.4185562
  42.3303108  32.4573898  33.9815521  43.6667671  31.9075756  35.7109718
  44.5275612  31.4147511  35.9013786  42.7888374  32.3286934  36.8507195
  43.3326378  32.2172165  37.7887764  42.3603325  33.3153152  36.6744804
  41.5606194  31.4206295  37.0871735  41.0605927  31.5016403  38.1734619
  41.3780975  30.5056782  36.1420746  41.7256775  30.5955849  35.1980400
  40.3774872  29.4692822  36.3395462  39.4889832  30.0368195  36.6162453
  40.0337181  28.8907032  34.9704971  41.0226898  28.7609539  34.5309525
  39.5004807  27.9401665  34.9549561  39.1072578  29.6941700  34.0835762
  39.4607506  30.8207397  33.3678970  40.4623718  31.2246017  33.3747177
  38.3407784  31.2529716  32.6520729  38.2596397  32.1685219  32.2334061
  37.2075272  30.5440578  33.0052147  35.8505135  30.7650642  32.7282524
  35.5262299  31.5600815  32.0731201  34.9439011  29.8275967  33.2979546
  33.8875504  29.9830723  33.1356201  35.3483315  28.7114582  34.0718575
  34.5845184  28.0200787  34.3958626  36.7406464  28.6028938  34.3156319
  37.1395721  27.8268661  34.9520607  37.6814308  29.5753212  33.8780098
  40.5781288  28.3386879  37.3463478  39.6490326  27.5728264  37.6909103
  41.7825775  28.2374115  37.9244537  42.5310364  28.8865261  37.7280960
  42.1648979  27.1771622  38.9090729  41.8528900  26.3001995  38.3418999
  43.7127953  27.2050934  39.2037659  44.0134659  26.2473907  39.6286201
  44.3954544  27.2571583  38.3556023  44.2159729  28.3318787  40.0898857
  43.5713272  28.3868961  40.9671021  45.1970215  27.9669037  40.3939209
  44.2588577  29.7045288  39.4187202  44.0233765  29.9456730  38.2729721
  44.5649948  30.7368279  40.1604156  44.5014725  31.6922436  39.8390884
  44.7238960  30.6147747  41.1503410  41.3962898  27.2952862  40.1713638
  41.5768089  26.3714523  40.9594002  40.6072006  28.3637390  40.4435997
  40.5380898  29.1806622  39.8537140  39.8213615  28.4807739  41.7014503
  40.2569466  27.8857346  42.5041313  39.9312553  29.9536991  42.2506371
  39.8893585  30.6284275  41.3955994  39.1188354  30.0008736  42.9757919
  41.2424507  30.2914944  42.9328270  41.6378899  29.5760670  44.1005974
  40.9995346  28.7723236  44.4365997  42.8233910  29.8298473  44.7693672
  43.1010628  29.2596626  45.6435432  43.6800995  30.8450813  44.3253784
  44.7670135  31.1878452  44.9682274  44.8074799  30.5948792  45.7221184
  43.2554817  31.6004295  43.1577568  43.8639336  32.3977356  42.7571449
  42.0326958  31.3923836  42.5658913  41.7285347  31.9337730  41.6822739
  38.3596878  28.0159645  41.5813370  37.6529694  27.8845234  42.5871201
  37.8279686  27.8463287  40.3504410  38.3896790  28.0312748  39.5316772
  36.4261703  27.4230824  40.1421700  35.7866211  28.0458984  40.7676125
  36.0469780  27.6271667  38.6735458  36.6941910  27.0169487  38.0435829
  34.6892471  27.0700607  38.1890717  33.9406929  27.6326237  38.7470169
  34.5715637  27.2279453  37.1170082  34.5780983  26.0216179  38.4656830
  36.2826080  29.0392494  38.1737862  36.1561623  29.1310215  37.0950394
  35.5531693  29.7283344  38.5994415  37.2628136  29.4299088  38.4470673
  36.2208366  25.9519520  40.5940170  36.9469337  25.0778446  40.0861397
  35.1913071  25.5960598  41.3704872  34.4247665  26.4941425  42.2262039
  33.5043182  26.8015327  41.7298317  34.9103966  27.3700752  42.6563225
  33.9628906  25.6918640  43.4242058  33.0102539  26.1422234  43.7030525
  34.6722450  25.8065338  44.2438202  33.8114777  24.2750893  42.8633041
  32.8098717  24.1857319  42.4427032  33.9348793  23.5149021  43.6346588
  34.8817863  24.1710281  41.7866440  35.7946129  23.8186340  42.2669258
  34.4381599  23.3378830  40.5653725  33.5066643  23.6081848  39.8869400
  35.0139542  22.1035290  40.4266739  35.7444649  21.8008766  41.0550537
  34.8002205  21.1947479  39.3064384  33.8916016  21.5646915  38.8313980
  35.7788582  21.4937687  38.1456337  35.6894455  22.5205231  37.7908363
  37.2166939  21.4618320  38.7624550  37.4364395  22.3567390  39.3446541
  37.3762436  20.6323738  39.4514046  37.8937874  21.3567467  37.9147491
  35.5845795  20.6165733  36.8966751  35.6419067  19.5447979  37.0866928
  34.5771561  20.7815685  36.5146065  36.2663002  20.7959061  36.0652962
  34.5899124  19.7295361  39.6459618  35.2328529  19.2847004  40.5759468
  33.7193375  18.9806957  38.9388657  33.1552200  19.4172974  38.2238464
  33.6900177  17.4835339  38.9646072  34.6925545  17.0608006  38.8988495
  33.0913124  16.9835796  40.3554802  32.8393440  17.7500343  41.0883904
  31.9390793  16.0034084  40.2671204  31.0480251  16.5665398  39.9896126
  31.9847584  15.1739969  39.5613632  31.7709332  15.5694847  41.2527885
  34.0288544  16.1616688  40.9925880  33.8590889  15.3024855  40.5994186
  32.9659233  16.9158249  37.7761383  32.2411232  17.6125927  37.0839882
  33.3988762  15.6910334  37.5009193  34.0395813  15.2378016  38.1366692
  33.2772255  15.0741243  36.1648331  32.9784203  15.8402872  35.4494209
  34.7260895  14.7426529  35.7577591  35.1360588  13.9498663  36.3834724
  34.7958221  14.2672329  34.7793846  35.7182579  16.2841511  35.7609024
  36.1973724  16.1932774  37.0047226  32.2711487  13.8366356  36.1617012
  32.6566544  12.8232841  36.6797981  31.1047668  13.9664173  35.5250397
  30.8798447  14.8006115  35.0019455  30.0596104  13.0200157  35.6105652
  30.0677166  12.6097279  36.6203690  28.6996326  13.7408285  35.5010185
  27.9328136  12.9675598  35.4546814  28.4223499  14.2845345  36.4041252
  28.4481144  14.7317858  34.3599892  29.3472137  15.2529812  34.0312424
  28.2133579  14.1295357  33.4823303  27.1142216  15.9451447  34.4768410
  27.4940491  16.9946690  33.0375366  26.9182911  17.8903275  32.8042755
  28.4977779  17.3449154  33.2782745  27.4777870  16.2731056  32.2207260
  30.1475563  11.8333893  34.6495705  30.5257664  12.0245543  33.4731827
  29.8247070  10.6461039  35.0602074  29.5538597  10.5503550  36.0284920
  29.5519848   9.4650440  34.1753464  30.4619160   9.3346148  33.5895844
  29.3589172   8.1581373  35.0295944  30.2338409   7.8400607  35.5965500
  28.5391464   8.3756905  35.7142487  29.0368938   6.8990650  34.2134399
  28.5383492   6.2915096  34.9687080  28.3249454   7.2492962  33.4660683
  30.3185463   6.3362107  33.6731033  31.4379025   6.7977014  33.7781181
  30.1524773   5.2625799  32.8830147  29.2479420   5.0959291  32.4657097
  30.9977646   4.8933187  32.4716301  28.3740273   9.7726622  33.2384148
  27.2231026  10.1735420  33.5955505  28.6239395   9.5732012  31.9469891
  29.4780502   9.2319012  31.5297260  27.5365067   9.7815218  30.9631062
  26.8808155  10.5396481  31.3913727  28.1917534  10.3780165  29.6602249
  28.9147892  11.1472464  29.9315262  28.7825222   9.6221666  29.1427479
  27.2574806  10.9682417  28.6198997  27.8797626  11.1161919  27.7373028
  26.4577236  10.2926254  28.3165340  26.7753181  12.2761698  28.8864384
  25.7268391  12.4604053  29.5253735  27.4491291  13.2503424  28.5315380
  26.6600990   8.6130009  30.6515656  27.0885391   7.4377012  30.8270416
  25.3466759   8.6903601  30.3235531  24.9003048   9.5716305  30.5338268
  24.4908237   7.4783740  30.1239929  24.7153416   6.7812376  30.9312668
  22.9916077   7.7958207  30.2858009  22.7258205   8.6405373  29.6502609
  22.4146709   6.9121752  30.0129929  22.7224712   8.3073139  31.6919918
  22.6484623   7.4427085  32.3516006  23.4535275   9.0149536  32.0830193
  21.0892410   9.1803808  31.7520370  19.9323330   8.0350084  30.9458904
  19.7564106   8.2346659  29.8888721  20.2570648   7.0203519  31.1763744
  19.0065002   8.1740036  31.5041161  24.7661896   6.9371462  28.7281189
  24.8013077   7.5821509  27.6630554  24.8053207   5.6040802  28.6189232
  24.7126732   5.0790982  29.4767742  25.0710926   4.8381143  27.4113579
  25.7696056   5.4195442  26.8095932  25.7646980   3.5079055  27.8297424
  26.7438564   3.7506557  28.2425709  25.0386543   2.9771326  28.4455681
  26.0476170   2.6477177  26.5531101  26.2670059   1.4597512  26.7687798
  26.0006409   3.0598645  25.3565636  23.7185459   4.4713235  26.6327782
  23.1150818   3.4169271  26.8084126  23.2239799   5.5712037  26.0350285
  23.8572083   6.3544188  25.9595165  21.9041843   5.7039356  25.4205894
  21.2988434   5.0134377  26.0078506  21.4048481   7.1365499  25.5144672
  22.1849422   7.7036972  25.0066299  20.1739750   7.4623523  24.7661839
  20.3158722   7.2192822  23.7131538  19.3644409   6.8422098  25.1511250
  19.8318462   8.4943495  24.8438358  21.3041897   7.5929093  26.9348450
  20.7993660   6.8460555  27.5475979  22.3246422   7.5275440  27.3123398
  21.0491924   8.6452055  27.0603199  21.9542446   5.1249409  23.9933376
  22.9064598   5.3255291  23.2864037  20.9335842   4.4057889  23.5593948
  20.1309109   4.2885699  24.1611214  20.8316860   4.0264869  22.1263428
  21.6670208   3.4274247  21.7637939  19.5028706   3.2317533  21.8232269
  19.4707661   2.4089265  22.5373878  18.2101612   3.9576538  22.0647392
  17.3370914   3.4121392  21.7065868  18.1853657   3.9299731  23.1541061
  18.1507931   5.0005417  21.7533550  19.4945679   2.9851480  20.4246902
  18.9722176   2.1949308  20.2687855  20.9483833   5.1300220  21.1704979
  20.2878323   6.1322398  21.2473888  21.9887695   5.1013827  20.3316193
  22.5062752   4.2355914  20.3835163  22.3068180   6.0320444  19.2532310
  23.0428944   5.6235638  18.5608177  21.4245911   6.3408618  18.6925106
  23.0172577   7.3221869  19.7600994  23.1749401   8.1501102  18.8515892
  23.4699020   7.4944763  21.0478611  23.5510559   6.7278838  21.7004318
  24.0688114   8.7971640  21.4549904  23.3546410   9.5355301  21.0904655
  24.3112373   8.7542887  22.5168228  25.3715382   9.0214863  20.7066212
  26.1760941   8.1271172  20.4928474  25.5653076  10.2472630  20.2733040
  24.9448814  10.9826412  20.5805359  26.7807579  10.7517948  19.7134590
  26.9625759  10.2299662  18.7739182  26.6695709  12.2818031  19.4254513
  25.7527733  12.3478813  18.8396053  26.5430031  12.7985649  20.3767853
  27.8840256  12.8947525  18.7141781  28.6648521  12.6925802  19.4473476
  28.2646561  12.2461214  17.3934460  29.1890678  12.7606363  17.1310806
  28.5160065  11.1862411  17.4331703  27.4736958  12.4180202  16.6634197
  27.7887592  14.4111938  18.6166325  27.2150383  14.8643742  19.4250660
  28.7778149  14.8448095  18.4688168  27.2909164  14.5806475  17.6618881
  27.9665604  10.4091816  20.5726585  28.0795670  10.7072201  21.7731781
  28.8886662   9.5644913  20.0268288  28.5966797   9.1586924  19.1492348
  30.1610451   9.0396004  20.5763474  29.8953285   8.5625038  21.5196781
  30.7723484   7.8657951  19.7272415  31.0751305   8.3300009  18.7886600
  31.6498871   7.4144750  20.1902084  29.8197880   6.6598740  19.5691681
  29.7263451   6.1012883  20.5004845  28.7880402   6.9618025  19.3890686
  30.2624912   5.7021198  18.4121227  30.2016335   6.2366576  17.4641418
  31.3155003   5.4771047  18.5813618  29.5283298   4.4282675  18.1283092
  29.5588036   3.8484399  19.0507908  28.4555054   4.5917783  18.0262661
  30.0597572   3.8252094  16.8732853  29.5026817   2.9962955  16.7227230
  29.8800030   4.4338803  16.0875893  31.0333652   3.5659933  16.9439678
  31.2023506  10.1552067  20.7149754  31.2228241  11.1774511  20.0520477
  32.1478157   9.8758707  21.5705929  31.9661636   9.0413465  22.1097317
  33.3261986  10.6862125  21.9443245  33.6529083  10.3950434  22.9426117
  34.4522095  10.3452911  21.0047646  34.0555267  10.4821510  19.9987755
  35.2816429  11.0083246  21.2507915  34.9256821   8.8684998  20.9003544
  35.1435089   8.3776321  21.8488789  34.1472015   8.1389132  20.6772537
  36.0959053   8.7730503  19.8236732  35.8960838   9.5315361  19.0667915
  36.9802132   9.0966768  20.3726501  36.3024254   7.2976408  19.2872410
  36.7224731   6.7372003  20.1224480  35.3449783   6.8718619  18.9870720
  37.2639427   7.1828728  18.1683846  36.8341217   7.5741506  17.3423977
  38.1435547   7.6756821  18.2277412  37.6196404   6.2556443  17.9844723
  32.9993057  12.1965561  22.0923080  33.8147507  13.0890446  21.8158474
  31.8209782  12.4193659  22.7044430  31.3948307  11.6163950  23.1445961
  31.3250561  13.7408638  23.0886440  31.8930721  14.4098225  22.4421463
  29.8691730  13.8171053  22.6510029  29.7700100  13.7948008  21.5657520
  29.3111191  13.0288572  23.1563225  29.2560196  15.3930416  23.3135853
  28.5076828  14.9804792  24.3405609  31.6286316  14.1293678  24.6153946
  31.0927105  13.5349646  25.5097866  32.5164795  15.1383152  24.8035946
  32.7776299  15.6054926  23.9470577  32.6841812  15.9721279  26.0119476
  32.7269783  15.3828182  26.9279079  34.1288338  16.6048603  25.9092674
  34.1182022  17.1607742  24.9717464  34.4735756  17.4696751  27.1876144
  34.5340958  16.8269157  28.0658474  35.3935966  18.0299435  27.0210018
  33.7060127  18.2303467  27.3301792  35.2467155  15.4707613  25.6869507
  35.0830841  14.7379780  26.4771118  35.1181526  14.9196873  24.7553444
  36.6521797  16.0062771  25.7742596  37.3402557  15.4484100  25.1390953
  36.7217789  17.0058727  25.3452301  36.9478836  16.0187225  26.8233070
  31.5843430  17.0420189  26.1266747  31.2585526  17.7412624  25.1659393
  31.0698872  17.1962738  27.3357220  31.5530701  16.6382198  28.0250778
  30.1343174  18.3366699  27.7081928  29.9852886  18.9865417  26.8458958
  28.7294140  17.8405933  27.9683056  28.8314018  17.2624798  28.8867188
  28.0134258  18.6460094  28.1319103  28.1984634  17.0319576  26.7590961
  28.4217300  17.5552292  25.8293457  28.7784939  16.1095905  26.7289333
  26.7345982  16.6865559  26.9091091  26.1246300  17.5868320  26.8346825
  26.4385052  16.0588207  26.0686436  26.4117222  15.8373346  28.0505161
  26.8228283  14.9182835  28.1307278  25.7008457  16.1582317  29.0988235
  25.0581589  17.2778721  29.2541885  24.7798824  17.5519352  30.1856155
  24.7400799  17.7581329  28.4245644  25.7319870  15.2977962  30.0723019
  25.3445168  15.4953985  30.9838486  26.0541744  14.3591909  29.8843746
  30.6945038  19.1419239  28.7889194  31.2950439  18.6582146  29.6853333
  30.3423901  20.4445419  28.8395424  29.6548767  20.8069172  28.1944771
  30.7005100  21.4364796  29.9267368  31.0725155  20.9639969  30.8358421
  31.8436699  22.4538555  29.4946899  32.7395248  21.8767910  29.2654629
  31.2606564  23.2761536  28.3382473  32.0924377  23.8342133  27.9083538
  30.8056240  22.5332661  27.6831398  30.5528965  24.0426788  28.6538677
  32.2645187  23.4191952  30.5884686  32.9037743  24.0937290  30.0188541
  31.4075603  23.9097595  31.0500603  32.8712006  23.0116405  31.3971329
  29.4259777  22.1801720  30.3131428  28.6630917  22.5916862  29.4915466
  29.1616840  22.3298683  31.6349945  29.6492538  21.8125725  32.3524780
  28.0752316  23.0769176  32.2361565  27.7438984  23.7995453  31.4904156
  26.8845730  22.1187344  32.4218559  26.5522556  21.8283844  31.4251823
  27.1909218  21.2064114  32.9336357  25.7948055  22.6356907  33.3201790
  24.9934025  21.9100208  33.4589386  26.1797218  22.7591839  34.3324471
  25.1065140  24.3052006  32.8674355  24.2176342  24.6431026  34.3910217
  23.6308308  23.7509937  34.6099052  24.9238377  24.8803082  35.1867065
  23.6106377  25.5471096  34.4402618  28.6047077  23.9739246  33.4297295
  29.2925320  23.4241161  34.3332329  28.0935326  25.1845264  33.5724945
  27.6194057  25.6028214  32.7848816  28.4805241  26.0531464  34.6355324
  28.7046299  25.4343662  35.5044365  29.9588585  26.6348629  34.2902184
  30.2414818  27.2895660  35.1145935  30.7198658  25.8723850  34.1240997
  29.9156017  27.3784084  32.9480629  29.8953667  26.6055336  32.1797180
  28.9944229  27.9553490  32.8663788  31.3588181  28.4262142  32.7406082
  31.0067978  28.8118267  31.0198879  29.9583530  29.1020279  30.9516621
  31.6477184  29.6152592  30.6568241  31.2635098  27.8964920  30.4866333
  27.4241714  27.0951824  35.0103951  26.7602615  27.6386662  34.2104836
  27.3169708  27.3100586  36.2814789  27.8685684  26.6820660  36.8484612
  26.5502663  28.3694420  36.9418907  25.6204281  28.5934486  36.4190903
  26.0415478  27.9727993  38.2922325  26.8984966  27.5252151  38.7956314
  25.3606586  28.9991264  39.2222443  25.2879829  28.6371422  40.2478104
  25.9700756  29.8999290  39.1496124  24.3721066  29.3308353  38.9047012
  25.0543194  27.0252609  38.1004601  25.4943733  26.2374992  37.7727623
  27.3658371  29.6892509  37.0183640  28.3732700  29.7357101  37.6813087
  26.9083157  30.7508068  36.3986206  26.0095634  30.7274761  35.9384041
  27.7198887  32.0370598  36.3003349  28.6111832  32.1254807  36.9215240
  28.2240219  32.0153465  34.8879280  27.3405342  32.0709648  34.2519569
  29.1013870  33.2119179  34.4904137  29.9356422  33.3603096  35.1760445
  29.3635979  33.1144714  33.4369202  28.4975700  34.1177101  34.4352150
  28.9466686  30.7451477  34.5442314  29.6363869  30.5061150  35.3537140
  28.2023392  29.9659214  34.3802757  29.4568958  30.7439003  33.5810242
  26.8936806  33.2778091  36.6206398  25.7339745  33.3517685  36.2361984
  27.4544506  34.2748260  37.3862419  28.2946777  34.1304016  37.9277763
  26.8681755  35.6323204  37.4094124  25.8048992  35.5653114  37.6397476
  27.5615044  36.4359436  38.4711418  27.4231510  36.1479797  39.5132713
  28.6273937  36.3896828  38.2478867  27.1946716  37.9739151  38.3666801
  27.9644699  38.5404282  38.8906784  27.2472553  38.4517746  37.3884201
  25.8640881  38.2708435  39.0607033  24.8560562  37.7159767  38.7745705
  25.7380486  39.2035942  39.9864044  24.7854176  39.4253006  40.2382812
  26.5315113  39.7482452  40.2927933  26.9995499  36.3312378  36.0180435
  28.0697517  36.4317245  35.5260887  25.8753433  36.8061295  35.3486633
  24.9749889  36.6128616  35.7635231  25.8941078  37.4945183  34.0548096
  26.8327408  37.9999771  33.8276863  25.5791149  36.4656334  32.9727631
  26.2526302  35.6192207  33.1071663  24.1594677  35.9908943  33.0560875
  23.3466988  36.7165604  33.0258751  24.1132126  35.2205849  32.2862930
  24.0695724  35.4145546  33.9768753  25.7278271  37.0575562  31.6660805
  26.3915939  36.6041718  31.1412411  24.9549732  38.6652107  33.9880638
  23.8472309  38.7047234  34.5750084  25.3266830  39.6052513  33.1134758
  26.2110233  39.6148911  32.6256714  24.4442539  40.7274704  32.7226334
  23.7844734  40.8014603  33.5871086  25.2768631  42.0472527  32.6431084
  26.1811295  41.9492645  33.2437744  25.5849133  42.2223740  31.6123085
  24.5134087  43.1955338  33.2277756  23.3192692  43.1047173  33.6282005
  25.1030445  44.2865181  33.3057365  23.5002346  40.3629227  31.5479240
  22.7361794  41.2780304  31.1889629  23.5701618  39.1403275  30.9100456
  24.1487122  38.3998795  31.2803326  22.7188339  38.8204765  29.7141476
  22.4087429  39.7776108  29.2948132  23.5994740  38.1217422  28.6107140
  24.1630516  37.2866554  29.0267830  22.6964874  37.7411690  27.3691788
  22.3218212  38.6979942  27.0055809  23.3249493  37.3215256  26.5836601
  21.9077110  37.0776634  27.7237186  24.6169434  39.2272263  28.1356182
  25.1729927  38.7655334  27.3196793  24.0781879  40.0911102  27.7463284
  25.2900963  39.4069939  28.9738598  21.4544067  37.9760056  30.1188984
  21.5889130  37.1502991  31.0218678  20.2582741  38.2832375  29.5450573
  19.8927040  39.6156464  29.1089840  20.2269688  39.7406578  28.0790615
  20.2142410  40.3684082  29.8287544  18.4064178  39.6349068  29.2556229
  17.9372578  40.1452179  28.4144516  18.1349773  40.1222115  30.1920815
  17.9037075  38.2089958  29.2484570  17.7951870  37.8905144  28.2116852
  16.9404106  38.0854950  29.7433357  19.0620995  37.5480957  29.9253044
  18.8821011  37.5693054  31.0001316  19.0769329  36.0914917  29.4765396
  19.8057518  35.7372131  28.4857864  18.2449703  35.2491951  30.0622540
  17.5508518  35.7168045  30.6276188  18.1270237  33.7670593  29.8697281
  19.0750637  33.3629265  30.2246895  17.0437527  33.1546478  30.7787304
  17.3466816  33.4901466  31.7705822  16.0935860  33.6385422  30.5526085
  16.8072357  31.5726509  30.6613979  16.6023426  31.3187542  29.6213703
  17.6842613  31.0137959  30.9878998  15.6313314  31.0506458  31.4103146
  14.5096235  31.2966919  31.0261383  15.7075958  30.2218723  32.4471321
  16.6064434  30.0751057  32.8837471  14.8618374  29.9254341  32.9128761
  18.0991306  33.3085976  28.3730145  18.9894867  32.6322441  27.8749580
  17.0422878  33.8230133  27.7396965  16.2950020  34.1484222  28.3361626
  16.6015739  33.6866074  26.3153267  16.6374493  32.6032524  26.2006073
  15.2060537  34.3592491  26.0782890  15.1759892  35.4440536  26.1802311
  14.8248863  34.2163506  25.0671520  14.0757856  33.9787025  27.0951157
  14.1994028  33.2994270  28.1202335  12.9086866  34.3840485  26.8582115
  17.5515213  34.3559456  25.2496910  17.2617817  34.2955170  24.0394001
  18.6044960  35.0736198  25.7553654  18.6177673  35.2690277  26.7461929
  19.7765598  35.6147957  25.0118847  19.6349277  35.5699768  23.9320545
  19.9426899  37.1053734  25.3979454  20.0189037  37.1738014  26.4831219
  20.9182301  37.4449272  25.0499134  18.7350025  37.9138107  24.9919930
  18.4892559  37.7603302  23.9412079  17.9124508  37.5040474  25.5781708
  18.8256073  39.4482765  25.1491928  19.8526363  40.1348801  25.0880165
  17.6905899  40.0819092  25.2899609  16.7751217  39.6713600  25.4060135
  17.7581406  41.0866280  25.3678970  21.1444550  34.9031792  25.2256813
  21.9944363  35.0940666  24.3572731  21.4170303  34.1051521  26.2529430
  20.6881847  33.9360313  26.9313869  22.7192402  33.3616943  26.4218445
  23.5356998  34.0446968  26.6563759  22.6292439  32.2765541  27.5754032
  21.7937737  31.5919285  27.4292011  23.9242535  31.4283390  27.5547905
  24.0468521  30.7448215  26.7146282  24.7756119  32.1021652  27.6509457
  23.9988937  30.8914967  28.5004807  22.3843250  32.9769554  28.8890743
  21.4943771  33.6000519  28.8005009  22.1537971  32.3403931  29.7433224
  23.5551281  33.9281273  29.3543758  23.6786118  34.7478485  28.6466255
  23.4056911  34.4496460  30.2997799  24.4311523  33.2921524  29.4817314
  23.1085682  32.6056633  25.1073494  22.2503967  32.0645599  24.4133835
  24.4143333  32.6419983  24.7697926  25.0357437  33.0923920  25.4263725
  25.1113701  32.0124969  23.6865044  24.3372955  31.6802864  22.9947376
  26.0462456  33.0685081  23.1647797  26.6789818  33.3822632  23.9950218
  26.7571640  32.5930901  22.4890022  25.4791641  34.2608566  22.4020271
  24.7422295  33.8570633  21.7077808  24.8886738  34.9397087  23.0173168
  26.5396080  35.1380424  21.6843872  27.2543697  35.5306587  22.4076195
  27.0386982  34.4486198  21.0034294  25.9470215  36.2292099  20.9070778
  25.3084831  36.8525276  21.3802090  26.2445469  36.5439034  19.6749516
  27.0802574  35.8408661  18.8673325  27.0288734  35.9393005  17.8634548
  27.9079838  35.3432693  19.1629086  25.7493458  37.5834312  19.0934105
  25.2224140  38.1717110  19.7229939  26.0942993  37.9150200  18.2039413
  25.8572292  30.7841702  24.1682053  26.9794598  30.9291916  24.6876526
  25.2194157  29.6100864  24.0678463  24.3756752  29.5941677  23.5129166
  25.8071423  28.3040104  24.2141666  26.5762615  28.3905315  24.9816723
  24.7001820  27.2861176  24.5787449  23.9040546  27.1588306  23.8452072
  25.2662487  26.3684464  24.7386208  23.8819447  27.6339970  25.7815380
  24.2548771  27.5164204  27.1017437  23.1814671  27.9902706  27.8228073
  23.0843410  28.0784721  28.8948116  22.1411991  28.1850357  27.0205021
  21.2511024  28.5160198  27.3644161  22.5957031  28.0326385  25.7266560
  22.1641884  28.3213501  24.7796326  26.4879246  27.9283867  22.8354454
  26.0309315  28.4324818  21.8269997  27.4305382  27.0003548  22.8965683
  27.6040497  26.5791683  23.7980099  28.3994045  26.8207645  21.8234043
  28.0151997  27.1510239  20.8583069  29.7017574  27.5117874  22.0893173
  30.0281601  27.1279030  23.0558586  30.8747845  27.2611198  21.0848503
  31.0091705  28.1065617  20.4101143  31.8095474  27.1640663  21.6370239
  30.7295704  26.3006821  20.5903015  29.5338154  29.0384445  22.1879749
  28.8392258  29.3730888  21.4174824  29.1299877  29.3362389  23.1556225
  30.5158024  29.4851627  22.0322685  28.6039009  25.3301659  21.6634521
  28.6631107  24.6359863  22.6887283  28.5147610  24.8281765  20.3923359
  28.2955208  25.3860168  19.5794106  28.5375023  23.3707008  20.0084438
  29.0014477  22.8536625  20.8484058  27.1272907  22.9314690  19.7951813
  26.6697426  23.4565563  18.9567108  27.1937466  21.8879547  19.4873505
  26.3395195  23.0467186  20.9790611  26.3468971  21.9814587  21.8428497
  26.8608780  21.0799847  21.5435638  25.7078571  22.0903664  23.0820370
  25.7314911  21.2165852  23.7163506  25.0189781  23.3009071  23.4669762
  24.3414669  23.5055847  24.6591301  23.9914589  24.3903999  24.7864056
  25.0163383  24.3918285  22.5359573  24.4740620  25.2777939  22.8315964
  25.6380157  24.2632656  21.2854443  25.7420750  25.0289726  20.5309486
  29.4391708  23.1461487  18.8637142  29.1493969  23.5849609  17.7195015
  30.4827042  22.3617706  19.1286812  30.5998898  22.0813351  20.0918655
  31.5856724  22.1852379  18.1296673  31.3940048  22.8074417  17.2554665
  32.9021759  22.5115433  18.7512684  33.0866661  21.7649879  19.5237446
  33.6661873  22.3795338  17.9851341  32.9995842  23.9525108  19.2871666
  32.3198814  23.9871674  20.1385784  34.3647881  24.2620697  19.7667046
  34.4338531  25.1989365  20.3195210  34.6755714  23.4730244  20.4514828
  34.9976654  24.3479176  18.8834190  32.6434860  25.0166340  18.2354469
  31.6299267  24.9228973  17.8455582  32.6497536  25.9969864  18.7118626
  33.3774147  25.0799007  17.4320431  31.5378628  20.8059864  17.4730377
  30.8372822  19.8524666  17.9579506  32.3665543  20.6764336  16.3847294
  32.7872658  21.5020790  15.9829702  32.7608757  19.3905983  15.7903318
  33.1540909  19.7075939  14.8244133  33.7765121  18.7050304  16.6739178
  33.2194595  18.4487534  17.5750961  34.0870857  17.7803078  16.1875706
  35.0453110  19.4430008  17.0609474  34.7896309  20.3445206  17.6177120
  35.6443825  18.7389469  17.6384659  35.8920898  19.9296913  15.8433924
  36.8035049  20.8200970  16.0190792  35.7487068  19.4851189  14.7122107
  31.4618969  18.6047478  15.3952541  30.7265472  19.0170059  14.4965792
  31.2039928  17.4106140  15.8869143  31.8826237  17.1119347  16.5727348
  30.0321732  16.5904503  15.5509729  29.6475716  16.9878654  14.6116953
  30.5113945  15.0956116  15.4408789  30.8202267  14.6923809  16.4053097
  29.6430168  14.4487200  15.3161402  31.5856419  14.8319397  14.3947897
  31.1143112  14.9721565  13.4220161  32.3790016  15.5436287  14.6232119
  32.0956383  13.4106932  14.5194836  32.9012718  13.4408493  15.2530689
  31.1565666  12.9364548  14.8046894  32.6035423  12.8213453  13.2163105
  32.8391876  11.7816381  13.4434309  31.8989811  12.9786434  12.3996401
  33.9283066  13.4382763  12.8743210  34.4060440  12.9996529  12.1000643
  33.9117775  14.4477348  12.9030962  34.5645103  13.1937304  13.6196680
  28.9287853  16.8931866  16.4878540  27.7459316  16.6715984  16.1108093
  29.2099495  17.4931660  17.6101131  30.1711311  17.6851120  17.8538132
  28.2850552  17.7674255  18.7301064  27.6114292  16.9129868  18.7953949
  29.1299152  17.8570366  19.9927444  29.5332203  16.9217777  20.3809738
  29.9412441  18.5745449  19.8701534  28.5429211  18.2372456  20.8287945
  27.3520393  18.9878540  18.4761677  26.4785709  19.2791367  19.2742767
  27.3405056  19.5280476  17.2331161  28.1555023  19.3777561  16.6557999
  26.2406235  20.3793392  16.7211723  26.2835979  21.3796577  17.1520042
  26.3720284  20.5827026  15.1604805  25.6776066  21.3791237  14.8928947
  27.8140259  21.0818996  14.9111080  28.5087223  20.2686195  15.1210365
  28.0119247  21.3234291  13.8667879  28.0450497  21.9025764  15.5902386
  26.2146282  19.3968143  14.2675104  26.9167328  18.6381359  14.6132984
  25.2112160  18.9792690  14.3506899  26.4440575  19.6695538  13.2374258
  24.8369904  19.7946358  17.0357285  23.8811588  20.5614910  17.2475510
  24.6254482  18.5078812  17.1336060  25.3820400  17.9248199  16.8054142
  23.3172436  17.8966599  17.3674927  22.5174923  18.3999863  16.8242054
  23.2467213  16.4121323  16.8662949  22.2847042  15.9850626  17.1495533
  23.5900192  16.2552643  15.3717365  24.4863091  16.7794514  15.0400839
  23.6707745  15.2218304  15.0346994  22.6656189  16.5536880  14.8772392
  24.4153328  15.6509523  17.6072216  25.4281616  15.9750261  17.3679523
  24.2926769  15.7236290  18.6878567  24.4058571  14.5983706  17.3242207
  22.7814636  18.0954571  18.8362236  21.6458416  17.7855759  19.1283569
  23.6213875  18.5506420  19.7997036  24.5219898  18.7567005  19.3915939
  23.2935028  18.8684654  21.2214813  22.4284458  18.2616158  21.4888916
  24.5457134  18.3930454  21.9982491  25.3567429  19.0880985  21.7809181
  24.2474384  18.4418030  23.0455132  24.9492435  16.9592876  21.5354080
  25.4275513  17.0466919  20.5598660  26.0479279  16.4172497  22.5252895
  25.6885548  16.3917370  23.5540237  26.4378300  15.4779596  22.1331043
  26.8745308  17.1116619  22.3748875  23.9237862  15.8099365  21.5601521
  23.1078835  16.1224556  20.9084415  24.4187374  14.9227018  21.1652622
  23.4908295  15.6056709  22.5394039  22.9909782  20.3588943  21.4220276
  22.9145641  20.7944355  22.5487995  22.9334869  21.1940269  20.3601189
  23.0469227  20.7384148  19.4658852  22.4327888  22.5577068  20.3615875
  23.1529160  23.0975494  20.9764767  22.3924026  23.2092400  18.9908562
  22.2205467  24.2620544  19.2147884  23.3453102  23.0576725  18.4838104
  21.4615402  22.6407681  17.9376183  21.6038570  21.5623016  17.8686314
  20.4559078  22.9815254  18.1839657  21.8329449  22.9951210  16.5320511
  21.7209244  24.0715599  16.4023247  22.8500690  22.6524258  16.3419991
  20.8855152  22.4744244  15.5237379  20.0207806  22.9814396  15.4001570
  21.0941639  21.3318081  14.8748455  22.0768185  20.5219021  15.0263033
  22.7555504  20.7538319  15.7373838  21.9689770  19.6248188  14.5749578
  20.1801548  20.9413223  13.9953318  19.3809147  21.5294628  13.8071718
  20.0971012  19.9442368  13.8574009  21.0493431  22.5759487  20.9600410
  20.3284073  21.5955677  20.6462193  20.6843700  23.4872952  21.8590488
  21.5092793  24.6010036  22.4507160  21.9844093  25.1945133  21.6696301
  22.2640743  24.2459698  23.1523800  20.5786743  25.4470043  23.2736912
  20.0910816  26.2262897  22.6879711  21.0469933  25.7150421  24.2207565
  19.4777088  24.4571476  23.7043762  18.5642853  25.0513382  23.7307396
  19.6136074  23.9875908  24.6786194  19.4630070  23.2971935  22.6699371
  19.6052303  22.3186493  23.1285496  18.0408344  23.3044357  21.9542580
  16.9816113  23.2496719  22.5873203  18.0350342  23.4271679  20.6367168
  18.8899326  23.5689907  20.1179352  16.7854881  23.3036175  19.8088169
  17.1424618  23.5629253  18.8121071  16.2993412  21.8531494  19.6182995
  17.1234570  21.1694946  19.4144611  15.8013554  21.5335007  20.5336895
  15.3134584  21.8173237  18.4540062  15.5874596  22.4641514  17.4037762
  14.3135004  21.0740395  18.5640602  15.7453871  24.3642902  20.2319031
  14.6158419  24.0644226  20.5046673  16.1611023  25.6151733  20.2354736
  17.0627899  25.7535610  19.8019886  15.2910233  26.7682438  20.5271931
  14.6008320  26.5369682  21.3385181  16.1876526  27.9013672  20.9672794
  16.8534927  28.1405983  20.1381073  15.6261806  28.7738686  21.3013458
  17.1116962  27.5818596  22.1332779  17.8065319  26.7601490  21.9597893
  18.0274639  28.8625221  22.3779221  17.5428181  29.6856823  22.9029236
  18.8732414  28.5281487  22.9787140  18.4704151  29.1271610  21.4177895
  16.4410019  27.1298256  23.4104404  15.8006105  27.9390011  23.7614918
  17.1673222  26.8965473  24.1889915  15.8314562  26.2339611  23.2922211
  14.5523653  27.0163746  19.1998749  15.1242666  27.2290154  18.1697731
  13.2153912  27.0847645  19.2607136  12.7982540  26.9409657  20.1692410
  12.3828936  27.2176609  18.0804043  12.7193556  28.0438557  17.4540615
  12.3248243  25.9454460  17.2265682  13.3162985  25.9074612  16.7753086
  12.1189775  25.0900497  17.8700142  11.3265133  26.0359039  16.2390652
  11.6574984  26.7323418  15.6672020  10.9211426  27.5384960  18.5571423
  10.2493868  26.7680206  19.2422981  10.3667088  28.6524582  18.0491924
  11.0169172  29.2764606  17.5931778   8.9958496  29.1090927  18.2281532
   8.7514238  28.8703327  19.2632141   9.0197525  30.5832958  18.0060291
   9.5918732  30.8201427  17.1089878   7.9801211  30.9040775  17.9399529
   9.5952435  31.2599068  19.2875938  10.4505472  30.6607132  19.5998821
  10.0725632  32.7295952  19.1707897  10.4940214  33.0254021  20.1315022
   9.2546644  33.3852921  18.8721218  10.8429775  32.8550682  18.4099884
   8.4417839  31.2909374  20.3893299   8.8733845  31.5903950  21.3443928
   7.6534991  31.9815636  20.0897560   7.9820113  30.3107853  20.5158863
   7.8435321  28.4753304  17.3971920   6.6368341  28.8320408  17.5632095
   8.1882086  27.5064449  16.5753498   9.1717033  27.2774258  16.5950699
   7.2611208  26.5868168  15.8511972   6.3046985  27.1064053  15.9094524
   7.7046475  26.5418415  14.3214951   6.8771706  26.2493343  13.6751041
   7.9828753  27.9457226  13.8271074   9.0232134  28.2345409  13.9767275
   7.8357444  27.9586277  12.7471600   7.2146149  28.5799789  14.2693682
   8.7899046  25.6351643  14.1310940   8.4063072  24.7563896  14.1780748
   7.0918932  25.1661072  16.5385513   5.9612498  24.6372738  16.6724300
   8.1805363  24.5231380  16.9740963   9.0677357  24.9704514  16.7927437
   8.1817150  23.3972321  17.8803101   7.6651120  22.5376930  17.4532089
   9.6479492  22.9209690  17.9816208  10.2692270  23.6568604  18.4920902
   9.7256031  22.1277294  18.7251549  10.4164686  22.5086689  16.7035637
   9.8304920  21.7268925  16.2202835  10.6076441  23.2964344  15.9748821
  11.7050600  21.7242813  16.9140968  12.3717012  22.4713211  17.3449459
  11.5084763  20.8849640  17.5811806  12.3394060  21.2363548  15.6162558
  11.8049488  20.3501472  15.2740660  12.1709776  21.9958363  14.8527651
  13.8120632  20.9568310  15.8254223  14.0639448  20.0486012  16.1884270
  14.4097605  21.1309624  15.0300941  14.2086363  21.6039600  16.4917965
   7.5344925  23.6863880  19.2477207   6.6483474  22.9195614  19.6560478
   7.9354558  24.7989979  19.8952084   8.7001295  25.3152218  19.4842510
   7.4900980  25.2116890  21.1880569   8.0230312  24.5318565  21.8528290
   7.9565778  26.6302891  21.4926758   9.0440874  26.6552067  21.4233799
   7.5324020  27.2920742  20.7375507   7.5806718  27.1886005  22.8574963
   7.9227271  26.6644402  23.8860836   6.7372584  28.2017422  22.9111156
   6.4357982  28.4736233  21.9862900   6.4107184  28.5727577  23.7919235
   5.9933176  25.0722084  21.4323444   5.1193051  25.4430275  20.6754379
   5.6709309  24.5361595  22.5588188   6.3761411  24.3226166  23.2496033
   4.3588719  23.9703312  22.8913059   3.8540299  23.7573967  21.9490204
   4.4778500  22.6421833  23.7356567   3.4581316  22.3142910  23.9375496
   5.3260112  21.5001965  23.1013985   5.3223710  21.5020447  22.0114059
   6.3909292  21.7116795  23.1979637   5.1169171  20.5384731  23.5698738
   5.0145192  23.1051445  24.9875240   5.9204350  23.3342152  24.7674236
   3.4223044  24.9416351  23.6105003   3.7828135  25.8848190  24.2231369
   2.0754704  24.7345676  23.4680500   1.7397115  24.0858727  22.7705116
   1.0451986  25.4731483  24.2746811   1.2950234  26.5335979  24.3083706
  -0.3398233  25.4144344  23.5887089  -0.8067489  24.4398212  23.7308655
  -0.9420183  26.1450214  24.1288052  -0.4466637  25.8306065  22.1180573
   0.1089740  25.0828743  21.5521355  -1.5195884  25.7376881  21.9498329
  -0.0103169  27.2490444  21.8037167   0.0341748  28.0807724  22.7254868
   0.4809990  27.4913177  20.6956806   0.9840504  24.8309689  25.6642265
   1.0826585  23.5896873  25.7959232   0.6586702  25.5909653  26.7065678
   0.7446829  26.5797882  26.5196705   0.4115611  25.2149963  28.2020473
   0.7058930  24.1851616  28.4043102   1.2677034  26.1039925  29.1426315
   2.3104904  25.7973366  29.2242260   1.3408917  27.0878544  28.6792088
   0.7107055  26.2016201  30.5625935  -0.3059187  26.5941734  30.5845451
   0.6387536  24.7907333  31.1070232   1.5489937  24.2258835  30.9057770
   0.5862222  24.8055191  32.1956558  -0.1264274  24.2662125  30.5347691
   1.4923290  27.0677242  31.5546608   1.6492544  28.0267906  31.0610332
   1.0058813  27.2391052  32.5149193   2.4809644  26.6121407  31.6107903
  -1.1148701  25.3581886  28.3501205  -1.6083623  26.4941521  28.3912029
  -1.7673032  24.3047523  28.3142872  22.2764912  38.2446632  47.3996277
  21.6728630  37.4379768  47.4703064  21.8988571  39.0010376  47.9522514
  22.2622375  38.5648193  46.4418182  23.5919609  37.8091736  47.8627167
  24.2309170  38.6904259  47.8058891  23.4522190  37.5300407  49.4097404
  23.1998787  38.4761200  49.8886528  22.6952610  36.7814064  49.6435356
  24.7490253  37.0418816  49.9864540  24.8719959  36.0108948  49.6547279
  25.5356522  37.7470894  49.7181244  24.8567314  36.8740807  51.8339119
  24.4822865  38.4780655  52.4442215  23.4230309  38.6445122  52.2483444
  24.6782455  38.5240593  53.5154724  25.0463295  39.2806206  51.9689713
  24.1702709  36.7044220  47.0690308  23.5018597  35.7146759  46.8494644
  25.4561386  36.7280197  46.6877022  25.9585190  37.5529022  46.9831543
  26.2423782  35.7230644  45.9221039  25.6872196  35.6379700  44.9879417
  27.6060772  36.2677841  45.4665680  27.5855312  37.3077011  45.1406059
  28.2268028  36.2214775  46.3613663  28.2424335  35.3990288  44.3177719
  29.1813374  35.8200493  43.9582024  28.5516224  34.4494514  44.7545853
  27.1936893  35.2730446  42.8086853  28.3570499  34.4942474  41.7278595
  29.0824871  35.1996918  41.3226433  28.9287777  33.7349892  42.2614822
  27.8855705  34.0315704  40.8608322  26.3732643  34.3444366  46.5703735
  26.2233181  34.1376686  47.7649651  26.4863815  33.2695198  45.7784996
  26.3878841  33.2680969  44.7733154  26.6367378  31.8690434  46.1588287
  26.7196884  31.8052807  47.2437973  25.4057770  31.1154213  45.7439690
  25.5828705  30.0849953  46.0521317  24.0876770  31.6274796  46.4652176
  23.2343464  30.9604149  46.3429642  24.2840862  31.6633053  47.5367775
  23.7782936  32.6232452  46.1476784  25.3167496  31.0545959  44.2267532
  25.0806923  32.0239334  43.7877083  26.2852364  30.7971306  43.7979774
  24.2979603  29.9226170  43.7972412  24.1013336  29.9567776  42.7256660
  24.8274422  28.9747047  43.8932152  23.3788567  29.9416027  44.3828964
  28.0513058  31.3383617  45.6648140  28.4468403  31.6739044  44.5630264
  28.6820145  30.5169678  46.5147629  28.2853928  30.3416805  47.4269409
  30.0058327  29.9550610  46.2356033  30.3249226  30.3171120  45.2582588
  31.0280209  30.4299984  47.2485504  30.6329823  30.1075687  48.2119217
  31.9416065  29.8378925  47.1949577  31.2895679  31.9391212  47.2631378
  30.3692245  32.4919281  47.4514732  32.0165024  32.2373390  48.0186043
  31.8606281  32.5474091  45.9861794  32.5905342  31.8484402  45.5777931
  31.0450077  32.6917076  45.2776260  32.4504509  33.8843536  46.1395149
  32.4460907  34.3886337  47.0146027  32.7990265  34.6926804  45.1347542
  32.7780647  34.2789726  43.8947716  32.2678413  33.4236832  43.7266884
  33.0088730  34.9332886  43.1608124  33.1919060  35.8772964  45.4170914
  33.7122841  36.3290787  44.6787109  32.9989052  36.3360939  46.2959290
  29.8550758  28.4213600  46.1883202  29.1442871  27.8926296  47.0774918
  30.6329479  27.6942043  45.3653183  31.1255798  28.2207298  44.6580811
  30.7588596  26.2413998  45.5493622  29.8841381  25.8721218  46.0847092
  30.8441792  25.6838303  44.6166573  31.9726524  25.9006710  46.4932060
  32.8634834  26.7542648  46.7055740  32.0291557  24.6535358  46.9691849
  31.3039169  24.0018253  46.7057343  33.1843681  24.0702610  47.6582527
  34.1177025  24.5973091  47.4602242  32.8980522  24.0302029  49.1410522
  31.9460201  23.5044346  49.2139053  34.0303688  23.2362919  49.8285217
  34.0420685  22.1912975  49.5187645  35.0080948  23.6985493  49.6925964
  33.9045334  23.3051796  50.9090385  32.6397858  25.3791542  49.7731476
  33.6126060  25.8514233  49.9098511  32.0598259  26.0171547  49.1062927
  31.8950024  25.1412449  51.1369705  32.4611855  24.5602932  51.8650055
  31.5864601  26.1060696  51.5394783  30.9234352  24.7218647  50.8756638
  33.3625870  22.6632862  47.0533943  32.3864861  21.9213943  47.0923119
  34.5857048  22.2284775  46.6337547  35.3536568  22.8317528  46.8914490
  34.9789619  20.7877655  46.4525223  34.0754738  20.1832085  46.3730125
  35.8193665  20.6877956  45.1173248  36.3893433  21.6163788  45.0863113
  36.5614662  19.8965054  45.2234116  34.9320297  20.4911671  43.8407440
  34.2071114  21.2902966  43.6858597  35.6000099  20.3744278  42.9873543
  33.8650818  19.3232498  43.9252319  32.9468727  19.5766029  44.4551392
  33.5532990  19.0373497  42.9206657  34.4737854  18.0923729  44.4997406
  34.0588341  17.8151932  45.3778572  35.4926033  17.4434013  44.0060539
  35.9542274  17.6286182  42.8229485  36.6346817  17.0244751  42.3846703
  35.5104294  18.2243519  42.1386642  36.1016693  16.5778809  44.7201538
  36.9757957  16.2948990  44.3007202  35.8722496  16.2916946  45.6611977
  35.7908134  20.1336308  47.6065407  36.2793808  20.8956928  48.4780807
  35.9201584  18.8496494  47.5381966  35.6462479  18.4041653  46.6741257
  36.6107330  17.9917049  48.5012093  37.6201973  18.3945580  48.5836029
  36.1800041  18.0725842  49.4992256  36.4426422  16.5449581  48.2189140
  35.5785332  16.0624275  47.4210320  37.3069763  15.8167934  48.9117737
  37.9011612  16.2564297  49.6000786  37.4507370  14.4024811  48.6493874
  36.4934082  13.9451828  48.3993988  38.2021408  14.2011585  47.3202286
  37.7507210  14.7014160  46.4634514  39.2188034  14.5940418  47.3084641
  38.2518959  13.1481771  47.0429993  38.0502052  13.5257759  49.8384247
  38.8300018  14.0403242  50.6747589  37.6012306  12.2435837  49.9541206
  36.9502182  11.8701687  49.2782211  38.2372208  11.2316322  50.8240356
  39.2207756  11.5981388  51.1179619  37.5037079  11.1632786  52.1739845
  37.5788078  12.1213408  52.6883583  36.1141891  10.6228113  51.9969711
  35.5103149  10.8473864  52.8761787  35.4810028  11.2144413  51.3358002
  36.0566940   9.5456629  51.8403015  38.1840477  10.2151423  53.0118561
  38.1167030  10.4459391  53.9412651  38.4065971   9.9280348  50.0855942
  37.9671402   9.7620773  48.9530754  39.0456963   8.9316397  50.7540550
  39.3317032   9.0428772  51.7163048  39.3014641   7.5247331  50.3165932
  38.5956078   7.3092208  49.5144577  40.6798668   7.3898435  49.6887321
  40.7005043   6.4089618  49.2138138  40.8109169   8.4098663  48.5199165
  39.8945389   8.3343649  47.9345589  41.0026016   9.4119959  48.9034462
  41.6521759   8.0113077  47.9528732  41.8373070   7.5634050  50.5694504
  42.0647812   6.7160230  50.9590683  39.1204987   6.4681005  51.3445244
  39.4900093   6.6863937  52.5047646  38.5291290   5.3568826  51.0000343
  38.2812691   5.1330185  50.0468559  38.3188972   4.2124877  51.9217720
  38.5129852   4.6163640  52.9154091  36.8538666   3.6315076  51.8794327
  36.8885117   2.7667658  52.5420952  35.8250389   4.6706076  52.3930588
  35.9594460   4.7498379  53.4718361  36.0178871   5.6599817  51.9782715
  34.7919083   4.3617997  52.2337646  36.5304413   3.2085004  50.4817696
  35.5897713   2.6762013  50.6228142  36.5720558   3.9731083  49.7060509
  37.2906685   2.4480104  50.3033867  39.4086761   3.1622348  51.6066322
  39.9880028   3.1398518  50.5021019  39.6973648   2.2279556  52.5372887
  39.3204269   2.3201747  53.4697647  40.5734062   1.0907522  52.2223663
  41.3645668   1.3882732  51.5341492  41.1754990   0.4969621  53.5110512
  40.3883781   0.0329767  54.1054039  41.9216881  -0.2752108  53.3238258
  41.8566437   1.5383816  54.3801384  41.1578331   2.0672858  55.0282326
  42.2592812   0.9888516  55.2310181  42.9534988   2.4063904  53.8562279
  42.8118973   3.6665156  53.9796371  43.9149132   1.8933772  53.1742172
  39.8589325   0.0518373  51.3726997  40.4361992  -0.8241458  50.8231163
  38.5250626   0.0936018  51.4954109  38.0853920   0.9447514  51.8153076
  37.6157150  -1.1003063  51.2722702  38.0189667  -1.5843422  50.3827782
  37.6967735  -2.1181827  52.4445686  37.0606956  -2.9829528  52.2556839
  38.7338905  -2.4533515  52.4570160  37.3543663  -1.4340167  53.7600555
  38.0287247  -0.6225685  54.0337181  36.3504105  -1.0249753  53.8734589
  37.4432793  -2.5055079  54.9311066  36.5763931  -3.1598721  54.8393173
  38.4238014  -2.9811175  54.9093895  37.3881378  -1.8643637  56.3262062
  38.1030235  -1.1845999  56.5429077  36.7384224  -2.4132419  57.2960014
  36.1032066  -3.5658011  57.1430588  36.3196487  -4.1587405  56.3545952
  35.6402817  -3.9170778  57.9691391  36.5020943  -1.7399015  58.4090195
  36.7104340  -0.7631885  58.5597839  36.0895653  -2.2803900  59.1558723
  36.1567421  -0.6748516  51.0101967  35.6684074   0.3400395  51.5441589
  35.3241425  -1.4716096  50.2738380  35.6725616  -2.3498871  49.9169960
  33.9500237  -1.1471399  49.8808670  33.8420105  -0.0787330  49.6939430
  33.6805382  -1.7655127  48.5411568  34.5415306  -1.5632701  47.9040642
  33.5795479  -2.8347104  48.7274818  32.3744621  -1.3896463  47.8210754
  31.6734619  -0.4984144  48.3631592  32.0180206  -1.9421376  46.7301979
  32.8930588  -1.6405704  50.8908539  32.4670334  -2.8126216  50.7659645
  32.5631866  -0.8499942  51.8593407  32.9990845   0.0600816  51.9024010
  31.5001373  -1.2048391  52.8299484  30.6992302  -1.7893596  52.3771973
  32.1524925  -2.1445210  53.9141541  32.4059372  -3.1690071  53.6415825
  33.3860245  -1.6019255  54.6103210  33.6395302  -2.2669823  55.4358673
  34.2563553  -1.4850781  53.9645882  33.1726303  -0.6422303  55.0810089
  31.3403149  -2.3138461  55.0131416  30.7131996  -3.0108051  54.8068085
  30.7982731   0.0217982  53.3840256  31.2902451   1.1370190  53.3658371
  29.5558987  -0.1835322  53.9136353  29.2990780  -1.1577861  53.9841499
  28.7209339   0.8387379  54.5434647  28.6870880   1.7065932  53.8848419
  27.3333073   0.3343506  54.8592873  26.8786354  -0.1186232  53.9782715
  27.4450588  -0.4231197  55.6350784  26.4398785   1.6082933  55.2414169
  26.8398762   1.9551073  56.1942177  26.5273075   2.4579189  54.5642242
  24.9561024   1.2302774  55.5284843  24.1470242   2.0591254  55.1685905
  24.7188282   0.1753162  56.0979156  29.3871174   1.2858248  55.8937988
  29.3543797   2.4683561  56.2657433  30.0232468   0.3581473  56.5507431
  29.6921597  -0.5397836  56.2279320  30.9717560   0.5487304  57.7694244
  30.4369431   0.9034225  58.6504860  31.5254841  -0.8739109  58.1729050
  30.7380333  -1.6271020  58.1459389  32.3254585  -1.0495520  57.4536743
  32.2375641  -1.0581169  59.5747223  32.6696892  -2.0568209  59.6376343
  33.1470985  -0.4600256  59.5187149  31.4601326  -0.5473167  60.8132477
  30.3376865  -0.0371227  60.8046989  32.1758041  -0.5062158  61.8394356
  32.1266747   1.5629641  57.5579338  32.5929184   2.1294343  58.5715179
  32.6267357   1.7997781  56.3177032  32.1576500   1.2245499  55.6327438
  33.6338425   2.7257898  55.9223251  34.0410194   3.1041088  56.8599739
  34.8395309   2.0255051  55.2662964  34.4653091   1.5447595  54.3624496
  35.4562035   2.8339732  54.8736153  35.6116219   1.0285702  56.1150589
  34.8776588   0.3345689  56.5246429  36.4734116   0.7206540  55.5229378
  36.2586250   1.7831483  57.2561264  36.4219360   1.2131835  58.3640366
  36.6998825   2.9229584  57.0490913  33.2663078   3.9452074  55.1610870
  33.6492462   5.0382113  55.6029778  32.5162582   3.7720995  54.1107140
  32.2528076   2.8188932  53.9055519  32.0336418   4.8376799  53.2022247
  32.8935318   5.4445949  52.9187851  31.2991104   4.3150482  52.0395355
  30.6099358   3.5681667  52.4336395  30.6029987   5.3767819  51.2266045
  29.9357090   5.9082203  51.9051361  31.2956886   6.1296768  50.8505325
  30.0251045   5.0671935  50.3558044  32.2148209   3.6449914  51.0503235
  32.6529274   4.3988853  50.3962517  32.9727440   2.9945519  51.4868774
  31.5233326   2.5920568  50.2070122  30.7552357   2.9892828  49.5434265
  32.2653542   2.0300803  49.6398392  31.1064987   1.8347270  50.8709373
  31.1692276   5.9445400  53.9414711  31.3845654   7.1341434  53.7614021
  30.1925812   5.5156708  54.7519112  30.0864391   4.5113893  54.7677994
  29.3315430   6.3320751  55.6114922  28.7228413   7.0523052  55.0648193
  28.2958794   5.4797955  56.3099289  27.7092228   5.0082316  55.5215340
  28.8159618   4.6747479  56.8290710  27.3966751   6.2110515  57.3466454
  27.2826405   7.2607698  57.0760994  25.9469299   5.7403932  57.1791687
  25.5776615   5.9208908  56.1696320  25.9454021   4.6514635  57.2274399
  25.2228680   6.1231465  57.8984299  27.8772831   6.2316327  58.8440361
  28.9541721   6.3219147  58.9863434  27.3612595   6.9990969  59.4209404
  27.5887394   5.2512360  59.2230682  30.2430611   7.0962787  56.6063538
  30.0647011   8.3002138  56.7254791  31.2086506   6.4382329  57.2611160
  31.5070705   5.5389276  56.9114075  32.0543098   7.0508585  58.2938232
  31.4073372   7.5857415  58.9891129  32.8324776   5.9997401  59.1324921
  33.4932899   5.3410249  58.5690002  33.5868912   6.4214907  59.7966423
  31.7909298   5.1694417  59.9965973  31.0290031   4.8777518  59.2737617
  32.1207466   4.2349863  60.4505920  31.0462322   6.0074897  61.0893211
  31.4060631   7.0645008  61.5027504  29.9732723   5.4700785  61.6222534
  29.6506042   4.5599184  61.3262939  29.6325855   5.7936158  62.5163231
  33.0295753   8.0929832  57.7405128  33.0636635   9.2690163  58.2276573
  33.7536774   7.7477012  56.6746368  33.6087532   6.7973862  56.3647995
  34.6792755   8.6048279  55.9845581  35.3592949   8.9887486  56.7450027
  35.5156136   7.7416582  55.0787048  34.8487091   7.1758661  54.4281502
  36.2210388   8.3623686  54.5262642  36.3978119   6.7357454  55.8341331
  35.7086487   6.2385106  56.5167122  36.7615280   6.0183110  55.0985413
  37.5726357   7.4148502  56.5520325  38.1127319   7.8926897  55.7346802
  37.2145271   8.1484079  57.2743645  38.3724480   6.3888865  57.3538246
  37.7699051   5.6933832  57.9380455  38.9587173   5.7843361  56.6617928
  39.4724159   6.9213138  58.1657562  39.0697670   7.4045653  58.9559746
  39.9850922   6.1476746  58.5641861  40.1354103   7.5202489  57.6947861
  34.0601120   9.8900023  55.3394394  34.7026520  10.9831076  55.4140205
  32.8837280   9.7178230  54.7165756  32.5155449   8.7773256  54.7146149
  32.0936470  10.8833475  54.3277664  32.7077484  11.4769201  53.6505280
  30.8915081  10.4609327  53.4027252  30.1277657   9.9140673  53.9556580
  30.1568546  11.7361107  52.7176857  30.9588718  12.3630028  52.3279724
  29.4178200  11.3824797  51.9987488  29.8120689  12.2593880  53.6095428
  31.3823986   9.6207647  52.3498573  31.4105358   8.7291002  52.7044640
  31.6926384  11.7360048  55.5631294  31.8023338  12.9340820  55.4893875
  31.2600498  11.1249866  56.6570663  31.0218983  10.1453743  56.5958939
  30.7302456  11.9551659  57.7280159  29.9594154  12.6115837  57.3242378
  30.0440750  11.0551062  58.7718735  29.2515888  10.4656935  58.3107224
  30.8961544  10.5016413  59.1665154  29.4658413  11.8944359  59.9493294
  30.1734200  12.5537004  60.4521217  28.6619148  12.5472221  59.6092148
  28.8838692  10.8725624  60.8726730  27.9621964  10.4230471  60.5031395
  29.6765022  10.1425037  61.0365257  28.6022644  11.6397581  62.1536827
  29.4076958  12.3677549  62.2506485  27.6737041  12.1997566  62.0428963
  28.4378510  10.6803646  63.3439255  28.2798691  11.1720858  64.2118912
  27.6497841  10.0567255  63.2433014  29.2189350  10.0680656  63.5312691
  31.8980541  12.7932434  58.3197861  31.7083855  13.9807301  58.3832245
  33.0964165  12.2855606  58.4682121  33.0965424  11.2797384  58.3764496
  34.2819099  13.0169706  58.7972794  34.1495171  13.4340601  59.7955856
  35.3868103  11.9145899  58.7817650  35.0472336  11.0516205  59.3545456
  35.7219238  11.6033592  57.7923546  36.6458626  12.4623518  59.5243416
  37.3269157  11.6124945  59.4794922  37.0762405  13.2770605  58.9419975
  36.4939270  12.9056911  60.9242210  35.5002403  12.5725622  61.5346375
  37.4732399  13.4801979  61.6073418  37.2716675  13.7767906  62.5515404
  38.3768845  13.6856174  61.2056885  34.6175232  14.1780825  57.8440208
  34.9120903  15.2906208  58.3039093  34.5480919  13.9713249  56.5253830
  34.0768318  13.1403790  56.1974487  34.8117828  14.9766111  55.4587479
  35.8157768  15.3946524  55.5318642  34.8427963  14.1798725  54.1145248
  35.7683334  13.6041546  54.1088486  33.9625359  13.5371313  54.1031609
  34.9349823  15.2399092  52.9456482  33.9627991  15.7046041  52.7812729
  36.0594292  16.2883587  52.9127541  36.9535980  15.7758255  53.2675400
  36.1597252  16.5507660  51.8595810  35.6879845  17.0665932  53.5794449
  35.1356964  14.2908525  51.7287407  34.3232536  13.5642443  51.7202415
  35.1122131  14.8238344  50.7782249  36.1002312  13.7873325  51.7938728
  33.7868500  16.1467171  55.5478172  34.1856956  17.3017311  55.6453285
  32.4940758  15.7092791  55.6584740  32.2980804  14.7184792  55.6590843
  31.3818703  16.6364098  55.7890320  31.3473740  17.3150997  54.9368019
  29.9987659  15.8987131  55.8141289  30.2013855  15.0295324  56.4398842
  29.1645718  16.4556446  56.2407990  29.5689564  15.2474279  54.5108910
  30.2818604  14.4973125  54.1685410  28.2541256  14.6074934  54.7273445
  27.5737171  15.2012310  55.3377686  27.7673664  14.2582169  53.8167534
  28.3483162  13.6649055  55.2665596  29.3635826  16.1804943  53.2544022
  28.8231220  15.6830988  52.4490471  28.8866444  17.1354237  53.4751663
  30.3869667  16.3520451  52.9206886  31.5583973  17.5460358  57.0288239
  31.6193714  18.7774982  56.8769188  31.7686253  16.9743004  58.3003922
  31.9612312  15.9829350  58.3144417  32.0129509  17.7370491  59.5255852
  31.1556072  18.3858490  59.7048187  32.1896400  16.7741566  60.7295494
  33.1407433  16.2697716  60.5589790  32.5381470  17.3687725  61.5739899
  30.9973183  15.9650812  61.0865479  30.7095528  15.3894577  60.2068024
  31.4288769  15.1965437  61.7278023  29.8296432  16.7173939  61.7569771
  28.9851303  16.0068798  62.3107567  29.9245319  17.9851151  61.8617973
  33.1251411  18.7163219  59.3303108  33.0335350  19.8418751  59.7670975
  34.2141495  18.3591328  58.5912209  34.3972626  17.4786644  58.1314964
  35.3740196  19.2378807  58.3992386  35.5680046  19.5512695  59.4250336
  36.6513290  18.4991970  58.0075455  36.8143616  17.6294899  58.6440430
  36.6458664  18.2644691  56.9431343  37.8949127  19.3171864  58.1890640
  38.6827469  18.8334541  57.6116371  37.8583870  20.3633194  57.8851395
  38.4544334  19.5054054  59.6640816  37.7300072  20.0972042  60.2236214
  38.4024620  18.5243282  60.1361885  39.7995758  20.2724934  59.8369942
  40.6356239  19.6632614  59.4935341  39.6719971  21.1770706  59.2423820
  40.0193977  20.5800114  61.2652855  40.1293793  19.7221584  61.7869072
  40.8795662  21.1041946  61.3390770  39.2444954  21.1190948  61.6244774
  35.1345863  20.4236355  57.4915581  35.5048904  21.5354004  57.8571320
  34.4517708  20.2669868  56.3703651  34.0956917  19.3767624  56.0528603
  34.0471725  21.4171638  55.4694061  34.9469032  21.9666729  55.1925964
  33.3210945  20.7874393  54.2225838  32.6901474  19.9686356  54.5683632
  32.4566422  21.8763027  53.4542236  33.0629692  22.7793846  53.3841057
  32.2389603  21.5354290  52.4420357  31.5404167  22.0875168  54.0056000
  34.3714142  20.3647385  53.1997108  34.9230537  21.2990913  53.0958977
  34.9386864  19.6021404  53.7333298  33.8437881  19.6381187  51.9104118
  32.9064407  19.1459141  52.1696739  33.7227097  20.3739491  51.1154327
  34.5429039  18.9139614  51.4921570  33.1251488  22.3576698  56.2404099
  33.3759003  23.5563679  56.2231064  32.0653572  21.8406925  56.9572906
  31.8137703  20.8859901  56.7443352  31.1166782  22.6172962  57.7713928
  30.8065395  23.3458290  57.0222893  30.0314236  21.6730213  58.2658157
  30.5211220  20.8455811  58.7792740  29.1715946  22.3572960  59.3768654
  29.6998558  22.4973507  60.3199577  28.8471470  23.3547878  59.0804787
  28.3028717  21.7114658  59.5046501  29.1819668  21.2329826  57.0536499
  28.5407848  22.0069618  56.6318169  29.9110012  20.9357376  56.2998238
  28.3261986  19.9136734  57.1732254  28.9458866  19.1149178  57.5807610
  27.3906612  20.0712719  57.7099113  28.0957298  19.6193581  56.1493301
  31.7913418  23.3333607  58.9036407  31.4322662  24.3758888  59.3547478
  32.8784866  22.7631168  59.4183846  33.2164917  21.8658047  59.1010818
  33.4914360  23.3868694  60.5662880  32.7056580  23.7848835  61.2083473
  34.2285423  22.3284874  61.4081726  33.6667175  21.4178658  61.6160622
  35.1425285  22.0692482  60.8738251  34.5690575  22.8660908  62.7670517
  35.3158455  22.2292156  63.2411804  35.1151276  23.8010159  62.6412201
  33.4556503  22.8297729  63.7946777  32.2821121  23.2271614  63.5409126
  33.6554794  22.4593067  64.9777374  34.3626633  24.5193787  60.1100235
  34.1427536  25.6287251  60.5651665  35.1856308  24.3675747  59.0387650
  35.3207283  23.4633827  58.6094780  36.0584450  25.3614960  58.4078178
  36.7468262  25.7251358  59.1707039  36.9306946  24.5841312  57.3772736
  36.2391281  24.0100727  56.7605934  37.4397507  25.3307915  56.7677956
  37.8940048  23.7007561  58.0306473  37.5262260  22.9454670  58.7251816
  38.2771034  23.1415749  57.1770363  39.0301628  24.4614410  58.7634926
  39.9697227  23.8492146  59.2599030  39.0683441  25.7354870  58.7914467
  35.2319832  26.5440636  57.7403030  35.4049110  27.7357235  58.1372681
  34.3163757  26.2869663  56.8446999  34.2634201  25.3038235  56.6194801
  33.3961754  27.2781811  56.2398567  34.0296021  28.1372585  56.0188179
  32.9363289  26.8868046  54.8624229  32.1847115  26.1093922  54.9995499
  32.4530449  27.7631836  54.4305725  33.9730263  26.3753891  53.8551102
  34.5196648  27.0763741  53.0012283  34.3488235  25.1414070  54.0201721
  35.1070480  24.8102303  53.4409294  33.9390297  24.5555363  54.7335625
  32.2670593  27.7398510  57.1619453  31.4677391  28.6210346  56.7532463
  32.2418442  27.3108311  58.4493599  32.9241409  26.6309872  58.7532997
  31.1287022  27.5934677  59.4050827  31.2002773  26.9175739  60.2572212
  31.2472992  28.9589024  60.1420631  31.1882057  29.6942158  59.3396187
  30.4235554  29.1123199  60.8392143  32.5871048  29.0839081  60.8672676
  33.8566742  28.8282089  60.3046799  34.0755424  28.3791828  59.4268570
  34.8142586  29.1668854  61.2253723  35.8858986  29.0833130  61.1204720
  34.1388893  29.3846302  62.3697395  34.5452309  29.6023331  63.2684021
  32.7743416  29.3787270  62.1980400  32.0925789  29.6172810  63.0009727
  29.6864414  27.3951168  58.9015160  28.7370911  28.1339989  59.3219604
  29.4651661  26.4250107  57.9857979  30.2580433  25.8712101  57.6946754
  28.2047539  26.1920319  57.3346100  28.0350113  27.1416092  56.8270760
  28.4153347  25.1810246  56.1973419  28.6213665  24.2647800  56.7506485
  27.2122135  25.1578312  55.2894783  27.3045101  24.4105892  54.5013084
  26.2607441  25.0225143  55.8037682  27.1205940  26.1206989  54.7868881
  29.5497665  25.4847050  55.4941597  29.3671474  26.2791061  54.9870338
  26.9837360  25.8640594  58.1178818  26.8384266  24.7560349  58.6977081
  26.0521889  26.7959290  58.0893250  26.2732067  27.6305943  57.5653152
  24.6385574  26.6359081  58.4561462  24.7316036  26.0955086  59.3981705
  24.1359119  28.0621796  58.7472076  24.9118748  28.6841259  59.1934776
  23.8325920  28.4781952  57.7864571  22.8418617  27.9605865  59.6757507
  22.0552883  27.5825062  59.0227127  22.9830074  27.1773186  60.4205170
  22.6520882  29.3032551  60.2966194  23.5013084  29.4654922  60.9604034
  22.5664825  30.1320877  59.5939064  21.4132423  29.1981983  61.2036934
  21.5202427  28.4144077  61.9535789  21.3356209  30.2023029  61.6206474
  20.0755348  28.9934292  60.5522308  19.8516331  29.6507549  59.8188210
  19.9152298  28.0770855  60.1588860  19.3894062  28.9417439  61.2915916
  23.8983593  25.9444447  57.3351402  24.0142460  26.3816395  56.2189064
  23.0133381  24.9659805  57.5673981  22.5722466  24.4705524  58.8779564
  22.1806450  25.3364620  59.4117661  23.3940926  24.0525322  59.4592667
  21.4493923  23.4427319  58.7145424  20.4484005  23.8214531  58.9211464
  21.6070805  22.6806946  59.4777794  21.6393929  23.0380573  57.2743988
  20.7428780  22.7861252  56.7079239  22.3396645  22.2086639  57.3735313
  22.2431965  24.2132969  56.5520897  23.0130253  23.8193836  55.8885422
  21.3316154  25.1308422  55.6882896  21.4337215  25.0965004  54.4549637
  20.5979195  26.0623569  56.2861671  20.5342636  26.1210213  57.2924500
  19.7399158  27.0581493  55.6376343  18.9851627  26.5436497  55.0428772
  19.0241489  27.9195385  56.6929817  19.7483635  28.5288143  57.2337189
  18.5028572  28.6646862  56.0920563  18.0181465  27.1690102  57.5556870
  17.4074173  27.9669876  57.9779892  17.3764629  26.5451508  56.9334793
  18.5373211  26.3568020  58.7143097  19.7294121  26.5466824  59.1323891
  17.7043686  25.5967312  59.3087959  20.5195904  28.0373211  54.7176247
  19.9189987  28.7240582  53.9082985  21.8410015  28.0709133  54.7397766
  22.3673801  27.6384487  55.4854317  22.6488552  28.8485050  53.7282333
  22.0001736  29.6378021  53.3483238  23.8980999  29.4498653  54.3571930
  24.3734970  28.6492558  54.9238701  24.5790043  29.8620720  53.6125107
  23.6325626  30.3886642  55.4952660  24.5057621  30.5085735  56.3708115
  22.6257324  31.1487446  55.3821373  23.1291428  28.0094280  52.5173302
  23.4960766  28.5082340  51.4524040  23.0328884  26.6855106  52.6184692
  22.5551891  26.3262348  53.4326096  23.2264900  25.7094460  51.5310783
  24.1235924  26.0631351  51.0229340  23.4648552  24.2640495  52.0911942
  22.5797024  23.9116039  52.6207123  23.8346386  23.3454304  50.8995743
  24.7648144  23.6054649  50.3943481  23.9142399  22.3096485  51.2296181
  22.9304028  23.2649784  50.2962723  24.5911541  24.1318359  53.1123009
  24.2942524  24.7099648  53.9873543  24.5339794  23.0720539  53.3606834
  25.5375004  24.4167747  52.6525879  22.0926399  25.7357693  50.5802689
  20.9081097  25.7675209  50.9901390  22.5034294  25.8564701  49.3316841
  23.4866638  25.9584579  49.1244431  21.5541840  25.8397694  48.1476364
  20.7074203  26.4603539  48.4408379  22.2450485  26.5457764  46.9099045
  23.1800728  26.0093212  46.7485161  21.5716763  26.6250019  45.6173210
  22.1995125  27.1662235  44.9095039  21.4870853  25.6244431  45.1932564
  20.5805511  27.0737019  45.6839561  22.6492615  27.9603844  47.2195702
  23.4935379  27.9788513  47.9087410  23.0544987  28.4545345  46.3365631
  21.8028278  28.5508423  47.5702972  21.0829792  24.4695797  47.8365784
  19.9307213  24.1474533  47.8225975  22.0537739  23.6268635  47.5413666
  22.9764194  24.0342712  47.5947227  22.0291138  22.2277298  47.1658669
  21.2244892  21.6280308  47.5913582  21.6928959  22.2550640  45.6961708
  21.4560738  21.2177238  45.4596481  20.8258266  22.8797989  45.4817009
  22.7252674  22.6117363  44.6646538  23.0128117  23.6449928  44.8590660
  23.6483879  22.0327492  44.6915703  22.2350178  22.5531197  43.2012672
  21.6680641  23.5098782  42.7056847  22.2991142  21.3982296  42.5918541
  22.7716808  20.5898895  42.9704933  21.9921036  21.3793468  41.6298294
  23.4402828  21.7127953  47.5396309  24.3986416  22.5248585  47.6373444
  23.6116276  20.4291153  47.6734352  22.8389454  19.7920437  47.5422935
  24.8764038  19.6947632  47.6814880  25.6765175  20.3387852  47.3165855
  25.2076626  19.3315601  49.2092514  25.2980518  20.2171440  49.8382759
  24.3952541  18.7426281  49.6349869  26.5985088  18.6165562  49.3368073
  26.4419174  17.6137218  48.9394341  27.4367638  19.1188469  48.8539696
  27.2266521  18.2905140  50.9468384  25.7963467  17.7139816  51.8425179
  25.3984547  16.7767887  51.4533501  26.0880070  17.5242157  52.8754807
  24.9648647  18.4165936  51.8980293  24.9174633  18.6146793  46.5785065
  23.8627586  18.0654507  46.3144951  26.0220051  18.2822208  46.0087700
  26.8485298  18.8266907  46.2100487  26.2638302  17.0756397  45.1646805
  25.3148708  16.5444450  45.0911179  26.6178608  17.6095123  43.7341347
  25.8461628  18.2577419  43.3189468  27.5116577  18.2242584  43.8405151
  26.8022881  16.5688000  42.6490250  26.2589703  15.6469336  42.8565750
  26.3415928  16.9922848  41.2521896  25.2533283  17.0533810  41.2454643
  26.7787781  17.9517097  40.9756508  26.6121845  16.2120514  40.5407715
  28.3221378  16.0910988  42.5512123  28.7462578  17.0427723  42.2310028
  28.6379566  15.8142023  43.5570412  28.3639088  15.2964640  41.8062935
  27.3796329  16.2135353  45.6961479  28.3699818  16.7067299  46.1657715
  27.1526737  14.8669910  45.7110710  26.2906303  14.4899158  45.3439255
  28.2420635  13.9002686  45.9900551  29.2150517  14.3913422  45.9745522
  28.0487061  13.1564426  47.3502960  27.1030846  12.6144400  47.3386269
  28.7552090  12.3264427  47.3576508  28.2264080  14.2051859  48.4779358
  28.7561970  15.1099663  48.1799507  26.8363514  14.4802456  49.0862427
  26.4734020  13.5300398  49.4779968  26.9120140  15.1972265  49.9037476
  26.1869659  14.8214788  48.2800369  29.0778828  13.5733776  49.6018982
  28.5174675  12.6775856  49.8694649  30.0754375  13.4028320  49.1970520
  29.1937923  14.2338409  50.4612389  28.3515072  12.8487406  44.8586349
  27.3991756  12.6066628  44.0608978  29.5402222  12.2581797  44.7549820
  30.2842617  12.6277523  45.3293724  29.9812737  11.2174177  43.7067108
  29.0958576  10.5852184  43.6398697  30.3853073  11.8965950  42.3847237
  30.4350071  11.1369200  41.6046448  29.6067295  12.6210890  42.1458969
  31.6334095  12.4804192  42.4542084  31.9697037  12.6682377  41.5748672
  31.0309334  10.2998590  44.3026047  31.5609970  10.5797253  45.4163094
  31.2683735   9.1759539  43.5997047  30.7643166   9.0144873  42.7394943
  32.3268547   8.2141743  44.0175667  33.1725655   8.7948589  44.3859253
  31.7203426   7.4422669  45.1994934  30.7220078   7.0878086  44.9429855
  32.3120041   6.5401134  45.3549156  31.6144562   8.0996675  46.0624619
  32.7280426   7.3085818  42.8513832  31.9696198   7.1156564  41.8810844
  33.9247322   6.6541471  42.9943504  34.3846664   6.7071991  43.8919830
  34.5455551   5.8258028  41.9127960  34.4877319   6.4766459  41.0403519
  36.0056877   5.5144129  42.2435532  36.4275093   4.8806028  41.4635162
  36.6817856   6.8242006  42.2932549  36.3448677   7.5062180  43.0739212
  37.7175484   6.6895957  42.6049957  36.6825752   7.3832698  41.3575516
  36.1981010   4.8877707  43.4957352  36.2403717   3.9660590  43.2306633
  33.6901703   4.5816126  41.6561241  33.1128387   4.0562272  42.5875015
  33.6704102   4.0328255  40.4525948  34.3627357   4.4653511  39.3033752
  35.4271889   4.5247350  39.5303383  33.9935493   5.4090261  38.9017792
  34.1833763   3.4076533  38.1834717  35.0245514   2.7169125  38.1251373
  34.2289238   3.9203424  37.2226486  32.9008179   2.7746880  38.5500870
  32.7630234   1.7676901  38.1562996  32.1041603   3.3722644  38.1069870
  32.8373718   2.8677802  40.1150131  31.7984390   3.0331690  40.4002686
  33.2149620   1.5865061  40.7597618  32.5169182   0.6152143  40.5346107
  34.2519264   1.5327871  41.5841026  34.7764740   2.3770914  41.7632751
  34.6722107   0.3843374  42.4062195  34.2143021  -0.5229443  42.0121880
  36.1997795   0.2510111  42.3153648  36.5040932  -0.7200305  42.7059708
  36.4904366   0.2704085  41.2650108  36.9104042   1.2945085  43.1014748
  37.8043175   0.9729418  43.9495010  36.5704422   2.4863944  42.8019295
  34.1909599   0.5060243  43.8263397  34.4487534  -0.4848707  44.5268517
  33.4496536   1.5286423  44.3096428  33.2407875   2.2250178  43.6085472
  32.7013588   1.3393385  45.5470848  33.0731239   0.4666712  46.0840607
  32.9338455   2.6533399  46.3841972  32.4453278   3.3937204  45.7507248
  32.4237671   2.5945463  47.3456879  34.3785210   2.9197772  46.7904854
  34.9436264   3.0072315  45.8625259  34.3617744   4.2429180  47.4660645
  33.7973022   4.0904036  48.3859634  35.3805618   4.5443540  47.7095909
  33.8122444   5.0146809  46.9270859  34.9674721   1.9186357  47.7497215
  35.0032768   0.9225850  47.3084755  35.9741745   2.1450539  48.1009789
  34.3620949   1.9966819  48.6527863  31.1920547   1.2327071  45.2810326
  30.7088203   1.9156213  44.3160744  30.4286270   0.4949090  46.0738754
  30.9445648  -0.0988378  46.7074165  28.9744186   0.0928525  45.8288765
  28.5456257   0.9476189  45.3057976  28.8618050  -1.1887621  45.0200462
  28.9224567  -2.0546470  45.6793365  27.8609104  -1.2740843  44.5969276
  29.8139286  -1.4259255  43.8944283  31.1146183  -1.8696754  44.0134163
  31.5846958  -2.0293741  44.8929749  31.7062130  -1.9748652  42.7576981
  32.6658936  -2.4292729  42.5603905  30.8346577  -1.4449592  41.8945351
  30.9734497  -1.1440506  40.9404411  29.6552925  -1.1462883  42.5683212
  28.7710266  -0.5890884  42.2962875  28.1664963  -0.0208151  47.0205421
  26.9606400   0.2660224  47.0328140  28.7416077  -0.2891488  48.1600227
  29.7474823  -0.3586530  48.1010094  28.0018749  -0.7388048  49.3948746
  27.3843918  -1.5931114  49.1174316  29.0390072  -1.0431206  50.4314156
  28.7801399  -1.5872414  51.3397217  29.8653965  -1.6581354  50.0751343
  29.5286598  -0.1362558  50.7862892  26.9801636   0.3970312  49.9258156
  25.9737759  -0.0283870  50.4902878  27.2152290   1.7172898  49.6483154
  28.0182285   2.0037537  49.1068077  26.3569870   2.7690434  50.0401573
  25.3371143   2.4169600  49.8852081  26.5065212   3.1116631  51.5637970
  26.6037407   2.2046533  52.1604424  27.7718449   3.9375200  51.7274742
  27.9379578   3.9634995  52.8044357  28.6320934   3.5435250  51.1863251
  27.6001511   4.9864831  51.4860268  25.2210693   3.8201170  52.0847015
  24.3040104   3.3347309  51.7507782  25.2151051   4.0276175  53.1547470
  25.2510185   4.8156638  51.6418800  26.4764633   3.9960277  49.1433372
  27.5162354   4.2722116  48.5342865  25.3819809   4.7366953  48.9671440
  24.5536995   4.3737016  49.4169083  25.3978481   6.0628610  48.4030266
  25.9550953   5.9808455  47.4698296  23.9479370   6.5026579  48.2240753
  23.4414387   6.3525662  49.1775093  23.9875717   7.5834169  48.0880852
  23.1413879   5.9887052  47.1041451  21.9205456   5.2982159  47.3084946
  21.4999275   5.1784949  48.2959900  21.1704121   4.9256945  46.2434616
  20.2112560   4.4492154  46.3826942  21.6145992   5.1823936  44.9244614
  21.0355625   4.7711720  44.1108131  22.8297138   5.8610349  44.7050018
  23.1350250   5.9884315  43.6769180  23.5175037   6.3737688  45.7915001
  24.5333462   6.7127886  45.6517487  26.0502377   7.0181179  49.4590912
  25.5202217   7.0643969  50.6186028  26.9953079   7.9229507  49.0848579
  27.5096073   7.9888706  47.7758827  26.8343163   8.5210781  47.1059265
  27.6562977   6.9524646  47.4718323  28.7917290   8.8078585  47.8513870
  28.8434944   9.5229015  47.0303307  29.7079372   8.2187090  47.8118134
  28.6910763   9.5772181  49.1470718  28.3169098  10.5811224  48.9463806
  29.6646843   9.6289444  49.6344299  27.6501865   8.9296122  49.9338799
  28.1717587   8.4112635  50.7384758  26.6542377   9.9143286  50.5368233
  26.9430923  10.3761387  51.6105576  25.5181789  10.1772385  49.8400421
  25.3785725   9.7372379  48.9417038  24.4273014  10.9607105  50.3377533
  24.8012123  11.9624348  50.5495071  23.3373394  11.0357733  49.2361717
  23.8287220  11.1659918  48.2719688  22.7378330  10.1319990  49.3451996
  22.6637669  11.8176184  49.5870552  23.8258953  10.5223761  51.6692657
  23.3465252  11.3397474  52.4355583  23.8415909   9.2528906  52.0697556
  24.2154636   8.5652132  51.4314575  23.3239517   8.8074217  53.3525238
  22.2717247   9.0355244  53.5224915  23.4219112   7.2619510  53.5324936
  22.6759834   6.8803005  52.8353310  24.4174156   6.9629493  53.2043648
  23.0284615   6.8313842  54.9644432  23.8957901   7.1207299  55.5578423
  22.2029648   7.4016986  55.3903656  22.9078903   5.3208027  55.0964317
  22.2725544   5.0109968  54.2666893  23.8920784   4.8649621  54.9883347
  22.2629910   4.9044051  56.4165115  22.9140549   5.2538114  57.2178459
  21.2611866   5.2965837  56.5916748  22.1538029   3.4246292  56.3635674
  21.4387131   3.0368049  55.7649536  23.0565681   3.1125705  56.0353279
  21.8994484   3.0341735  57.2596436  24.0480232   9.5403881  54.4476585
  23.4480400   9.7696495  55.4748573  25.3047085   9.8499584  54.3129807
  25.7186623   9.8170815  53.3922958  26.1664848  10.3858805  55.4134140
  25.9777756   9.8237143  56.3279953  27.6890392  10.1486921  55.0883179
  27.8609619  10.6739407  54.1488190  28.2003574  10.6972475  55.8793564
  27.8477917   9.0862579  54.9035721  25.8901749  11.8642836  55.7440376
  26.4270020  12.4182243  56.6916199  25.0336304  12.5243883  54.9664650
  24.5646057  12.0820198  54.1890144  24.5282612  13.9062624  55.2417374
  25.3568230  14.5594254  55.5155296  23.8672428  14.3999319  53.9291191
  23.0636768  13.7465115  53.5893822  23.2937546  15.8966522  54.0605812
  24.1051369  16.4682980  54.5111160  23.1880283  16.2882423  53.0488586
  22.3401890  15.9802837  54.5819435  24.8256149  14.4460344  52.6773911
  25.2070293  13.4300671  52.5752945  24.3709164  14.8121271  51.7568855
  25.7672939  14.9494133  52.8963661  23.4332581  13.8804102  56.3352432
  23.2259045  14.9393063  56.9725494  22.7316093  12.7757225  56.6926651
  22.8541756  11.9614983  56.1077576  21.6326694  12.7484417  57.7012825
  21.0103092  13.6317701  57.5581093  20.6108189  11.5237284  57.3082924
  19.6833458  11.8230133  57.7964821  20.4135227  11.4610586  56.2381287
  20.9814262  10.1022902  57.8037148  22.0171680   9.8649960  57.5607491
  20.8753662  10.0524826  58.8873978  20.0859718   9.0221224  57.1790733
  20.1395702   9.2131310  56.1072769  20.3359566   7.9987836  57.4590454
  18.7210464   9.1235952  57.6657295  18.6315651   9.7960854  58.4139633
  17.5630112   8.7324572  57.1763306  17.4781189   7.6882582  56.3608856
  18.3176308   7.1651125  56.1568298  16.6131115   7.2218318  56.1278419
  16.4394474   9.1132345  57.7792778  15.5557642   8.8802385  57.3492470
  16.5964012   9.7070646  58.5810432  22.0464745  12.6169052  59.1428719
  21.1676388  12.6214085  60.0183334  23.3575916  12.3951225  59.2922707
  23.9339943  12.4495411  58.4646835  24.0635242  12.2797985  60.5862808
  23.4276943  11.7311401  61.2811165  25.3027248  11.4310284  60.4156952
  26.0489235  11.9103451  59.7820206  25.8138485  11.2936354  61.3685722
  25.0363464  10.0371418  59.8662567  24.6124058  10.1982994  58.8750916
  25.9098797   9.4122829  59.6802635  23.9992523   9.2107105  60.7499008
  23.4370937   8.2839508  60.1856117  23.8071918   9.4711952  61.9869499
  24.4237061  13.6600199  61.2517929  24.9521408  13.6782598  62.3982124
  24.2235146  14.7890806  60.4711723  23.8488712  14.6919861  59.5382652
  24.4598351  16.1470013  60.9606934  25.0586128  15.9841328  61.8568192
  25.3579369  16.8908653  59.9569817  24.7999649  17.1496468  59.0570908
  25.7740822  17.7798424  60.4309502  26.5806332  16.1542530  59.4703560
  26.9523296  15.4652290  60.2287674  26.2290173  15.3899527  58.1864395
  27.0696545  14.9534578  57.6470871  25.5719509  14.5327663  58.3333931
  25.8033085  16.0608120  57.4402313  27.7187500  17.1181602  59.1157684
  28.6335773  16.5927773  58.8416138  27.5674648  17.6627865  58.1837845
  27.9662800  17.8265362  59.9063568  23.1898479  16.9706821  61.4033661
  22.1022720  16.7190075  60.8335419  23.2606831  17.8458290  62.3734436
  24.1357021  18.0518208  62.8338966  22.0496807  18.5016365  62.8549843
  21.3253078  17.6877346  62.8857956  22.0975456  18.9757175  64.3029099
  21.1956940  19.5346222  64.5526886  22.1483078  18.0778503  64.9188309
  23.2503223  19.7234650  64.6368408  24.0604191  19.2272816  64.4984665
  21.6662979  19.5168171  61.8430367  22.5007992  20.3329506  61.4598160
  20.4427338  19.4757004  61.4142036  19.7437515  18.9007053  61.8624268
  19.7189503  20.4128895  60.5281219  18.6484795  20.3521709  60.7243538
  20.0820522  21.4332161  60.6513863  19.8501225  20.0637016  59.0627899
  19.0942307  20.6394577  58.2785072  20.6364517  19.0309696  58.7038040
  20.9101048  18.4272804  59.4658890  20.8914013  18.6506481  57.3023262
  20.9197350  19.5187855  56.6438141  22.2835827  17.9811039  57.1694565
  22.3747654  17.2574768  57.9794846  22.3054867  17.4060173  56.2437706
  23.3641930  19.0059433  57.3566856  23.6208973  19.5961685  58.5126801
  23.0517082  19.3854294  59.4059982  24.6822147  20.4761848  58.3880768
  25.0358849  21.0672932  59.1267281  24.9918365  20.6279030  57.0182762
  25.7572670  21.5849743  56.2919273  26.2002010  22.3782177  56.8758583
  26.0732021  21.3370705  54.9836121  26.8090725  21.9014130  54.4300690
  25.3886452  20.3474464  54.3204384  25.6198769  20.0669651  53.3034515
  24.4979782  19.5447903  54.9841652  23.8183079  18.8418255  54.5255928
  24.2729263  19.5840912  56.3656769  19.7881260  17.8759480  56.6362953
  19.7358036  17.7787724  55.4060440  18.7994919  17.4341717  57.3237610
  18.8520870  17.4439831  58.3323441  17.6554642  16.6956387  56.7270546
  18.1073151  15.8197870  56.2614212  16.7559090  16.3138447  57.8803444
  15.9625788  15.7222910  57.4234085  17.3186264  15.7135077  58.5952187
  16.0162964  17.4211464  58.7015343  15.8396454  18.2710876  58.0423698
  15.0318213  17.0197144  58.9418755  16.8040886  17.8367348  59.9217911
  17.9873371  17.7180099  60.0942612  16.1954288  18.4477139  60.8755455
  15.1865091  18.4346905  60.9203949  16.7816925  18.8834286  61.5730782
  16.8907452  17.5015011  55.6526108  16.1301174  16.8788738  54.8876495
  16.9991302  18.8789482  55.6955910  17.4160767  19.3269024  56.4990807
  16.3755531  19.7450161  54.7120399  15.6514597  19.1274128  54.1806679
  15.6151276  20.8295631  55.3812294  16.2662163  21.5756931  55.8367233
  15.0257864  21.2385521  54.5605545  14.8037090  20.3979836  56.5686073
  13.6650791  19.6086082  56.3805199  13.4470301  19.3351746  55.3587112
  12.7576065  19.4163303  57.4324150  11.8510475  18.8662434  57.2275810
  13.0835819  19.8627071  58.6851349  12.1299458  19.8517475  59.6316948
  12.0161276  20.7088566  60.0488434  14.3071241  20.5965614  58.8726387
  14.4554300  21.1121178  59.8099785  15.1515751  20.8887367  57.8006516
  15.9763956  21.5736599  57.9308510  17.2233124  20.1235752  53.4902039
  16.8314514  20.7616711  52.5847893  18.5530357  19.9498672  53.6892471
  18.8277683  19.5479488  54.5741692  19.5474987  20.1326408  52.6811638
  19.3785057  21.1109867  52.2312965  20.9920425  20.2016430  53.2167664
  21.4292240  19.2707615  53.5779266  21.9349270  20.5661392  52.0426826
  22.8495731  20.9375572  52.5048294  22.0901089  19.7291660  51.3618774
  21.5036678  21.3914719  51.4761658  21.1530418  21.2093506  54.3956718
  20.4142418  21.0196724  55.1743279  22.1317558  21.1393356  54.8703499
  21.1091557  22.2108688  53.9677277  19.3893566  19.1970329  51.4825668
  19.4418106  17.9922924  51.6933823  19.1496925  19.7360115  50.2726402
  18.8969135  21.1360931  49.8900948  19.8878994  21.5128269  49.6368828
  18.4327583  21.7420177  50.6682434  17.8177433  21.1756783  48.8051338
  17.7603321  22.1182632  48.2607651  16.7811432  20.9788589  49.0786819
  18.2501469  19.8943615  48.0656509  18.9864368  20.2549400  47.3473473
  17.3868847  19.4730892  47.5504723  18.9457073  18.9595375  49.0322685
  18.2428818  18.1478367  49.2200890  20.1896057  18.3046284  48.4301300
  21.1649265  19.0313721  48.1658020  20.2661972  16.9953804  48.2505989
  19.4946098  16.4337349  48.5812187  21.4997540  16.2615223  47.9029579
  22.3361282  16.9389648  47.7307625  21.9145660  15.3184090  49.0150414
  21.1851196  14.5093212  48.9777527  23.3899784  14.8193007  48.8068199
  23.7670288  14.2120190  49.6297150  23.5062046  14.1733589  47.9365616
  24.0231590  15.7044649  48.7462692  21.8711281  15.9193354  50.3546906
  20.8686981  15.8970327  50.7821655  22.3558750  15.3180933  51.1238632
  22.3087692  16.9168320  50.3943596  21.3208294  15.6285191  46.4761963
  20.3943748  14.8216639  46.3233147  22.1680450  15.9022360  45.5411453
  22.9172039  16.5104294  45.8394203  22.3927155  15.1807365  44.2940979
  21.4675121  14.7272100  43.9385490  22.8440056  16.0951729  43.1373062
  23.8511105  16.4960632  43.2518806  22.8371143  15.3412895  41.8023834
  23.7399120  14.7680750  41.5914497  22.1118279  14.5286312  41.7617683
  22.6752605  16.1177139  41.0546722  21.9748707  17.1173801  43.0268021
  21.0995941  16.7247162  43.0629539  23.4633121  14.1128635  44.5379944
  24.3980885  14.2680168  45.3158340  23.3431988  12.9396610  43.8618126
  22.5186081  12.7861652  43.2991486  24.2323093  11.8138332  44.0572624
  25.1815319  12.1515427  44.4732323  23.6054459  10.7909775  45.0000305
  23.3364220  11.2739267  45.9394379  22.7002964  10.3758707  44.5567551
  24.8072758   9.3746910  45.2519379  24.3161240   8.6470528  44.2448578
  24.4913292  11.1463089  42.7104683  23.5315933  11.0668411  41.9340744
  25.7504101  10.7762909  42.3195801  26.5485134  10.9505291  42.9135284
  26.1123524  10.4455843  40.9260521  25.2567635   9.9511433  40.4660530
  26.2487698  11.6873512  40.1531143  26.2958012  11.4173641  39.0981293
  25.3689251  12.3017616  40.3440933  27.4652367  12.4930267  40.5537529
  27.2166672  12.9203377  41.5252037  28.3727951  11.8980780  40.4514160
  27.7899113  13.7600889  39.3667603  29.5514755  13.8177013  39.3908195
  29.7086773  14.8294163  39.0168953  29.8300362  13.8590155  40.4438171
  30.0115204  12.9970036  38.8404427  27.3241119   9.4728460  40.8047752
  27.9859581   9.4387350  41.8600883  27.6803474   8.7717180  39.7381248
  27.0654755   8.8590746  38.9416275  28.9620609   8.1315336  39.4635773
  29.3576298   7.6995249  40.3828163  28.7659035   6.8977308  38.5508232
  27.8658047   6.4262342  38.9453049  28.5207901   7.0883121  37.5059776
  29.9351959   5.8930497  38.5050888  29.9149399   5.3663702  37.5509911
  30.9294109   6.2856803  38.7183495  29.6604881   4.8565006  39.5408096
  28.9669285   3.9496567  39.1877861  29.9722710   5.0868163  40.7674217
  30.6566792   5.7884350  41.0111809  29.7988243   4.3765106  41.4641876
  29.9605026   9.1940527  38.8684998  29.5607681   9.9240971  37.9835320
  31.1697712   9.2991295  39.3709335  31.4934788   8.6268721  40.0516586
  32.2243500  10.0474586  38.6594582  31.8611908  11.0102158  38.2998581
  33.3796577  10.3420191  39.6591377  32.9944687  10.3645840  40.6785622
  33.9852409   9.4396315  39.7432098  34.3465195  11.4744272  39.3219261
  35.2620888  11.1594648  39.8225555  34.6626205  11.5269012  38.2800865
  33.8773766  12.8530865  39.7309723  34.5715103  13.8422794  39.3688507
  32.7781677  12.9201117  40.3032570  32.7864723   9.2663631  37.4997482
  32.8765907   8.0654469  37.5887985  33.2549210   9.8757687  36.4269218
  33.2152100  10.8761091  36.5604973  33.7554932   9.2403049  35.2486343
  32.9952469   8.5431728  34.8963089  33.9690018  10.1867418  34.0905533
  34.1430740   9.6536036  33.1559067  33.0510216  10.7550068  33.9405823
  35.1894417  11.1622772  34.3252144  35.0978127  11.5252914  35.3488960
  36.1826286  10.7151537  34.3671455  35.3486786  12.5131474  33.1402512
  36.1587143  11.6173077  31.8197117  35.5639839  10.7453499  31.5475235
  36.2437515  12.2355566  30.9260483  37.1696777  11.3091888  32.0863724
  34.9969139   8.3479662  35.4510384  35.9273338   8.7791042  36.1847725
  35.0490341   7.1221075  34.8890114  34.2770386   6.8846722  34.2825851
  36.1560898   6.1796188  35.1398315  36.3301926   6.0630517  36.2095070
  35.6458702   4.7758250  34.5879669  34.8576202   4.4016399  35.2412262
  35.3228683   4.8624873  33.5505371  36.7487564   3.6765101  34.6539268
  37.4704590   3.6733797  35.6704712  36.8716660   2.8553574  33.7302284
  37.4539490   6.5437679  34.3921890  37.4405594   6.6826735  33.1413574
  38.5364227   6.9235153  35.1131477  38.5443459   6.7182608  36.1020432
  39.8223991   7.4601908  34.4661636  39.6685066   7.2372155  33.4103661
  40.0756607   8.9321737  34.7253380  40.1166573   9.1438351  35.7938042
  41.2679825   9.5270844  33.9615021  42.1159286   8.9431067  34.3193626
  41.2093849   9.4353447  32.8769531  41.4088478  10.5528250  34.3022575
  38.8486137   9.7157822  34.1588173  38.0806503   9.5708857  34.9186516
  39.1082268  10.7519016  33.9416618  38.5892487   9.2812500  33.1934090
  41.0327797   6.6294203  34.9406853  41.3044586   6.5994582  36.1217690
  41.6893539   6.0891671  33.9073257  41.3445816   6.2178802  32.9667587
  42.9877205   5.4980564  34.1324310  42.9171219   4.7955470  34.9628525
  43.5311890   4.7857614  32.9596939  42.8413353   3.9526637  32.8249817
  43.6479836   5.6983771  31.7106552  42.6757698   6.1612182  31.5413208
  44.4803696   6.4012895  31.6767521  43.8917389   5.0572605  30.8635101
  44.7821503   4.1172519  33.2209129  44.7115250   3.2254720  32.8725700
  44.0186424   6.5070930  34.5237846  44.0475693   7.6294856  34.0222588
  44.8241539   6.1610513  35.5490952  44.8375549   5.2048607  35.8740845
  45.5787773   7.1085172  36.3434448  46.1794968   6.4031000  36.9175758
  46.0929947   7.7016764  35.5872459  44.8394089   7.9971552  37.3275909
  45.4613304   8.8157816  38.0497551  43.5067291   7.8320003  37.5122871
  43.1029282   7.1851869  36.8499565  42.6706161   8.2986250  38.6751938
  43.0134125   9.3180017  38.8525658  41.6501045   8.4211922  38.3123894
  42.6842690   7.5369639  40.0109291  43.1004982   6.3519735  40.1027336
  42.1465302   8.1726942  41.0580940  41.8384666   9.1283875  40.9492722
  42.2606277   7.6250439  42.4341049  43.1674995   7.0326905  42.5557747
  42.4506721   8.7743492  43.4679031  43.2741241   9.4015818  43.1264153
  41.5328979   9.3594999  43.4097252  42.4996910   8.3171740  44.9546928
  41.4817543   7.9703093  45.1324310  43.5518684   7.2332268  45.1833115
  43.4419785   6.9531960  46.2309799  43.3493271   6.2569499  44.7428932
  44.5807686   7.4835825  44.9248810  42.9666061   9.5223341  45.7991867
  42.8191833   9.2998085  46.8559952  44.0237923   9.7379417  45.6443558
  42.3414383  10.4055033  45.6677246  41.0717354   6.7427764  42.7065125
  39.9721451   7.2763834  42.7435379  41.3043404   5.4239707  42.8976212
  42.2826996   5.1733084  42.8887100  40.2853050   4.3978777  43.0730667
  39.5163727   4.7153831  42.3687706  40.8232155   2.9794753  42.7514687
  41.7951736   2.7519345  43.1892166  40.1160889   2.2477911  43.1422577
  40.8652802   2.7203653  41.2439651  39.9672470   3.0598381  40.7278290
  41.6428108   3.3763092  40.8524361  41.3419838   1.3035969  40.8120346
  42.1709633   0.9000648  41.3934555  40.5134659   0.5959817  40.8427238
  41.7286034   1.2761786  39.2879028  41.0567131   1.8641080  38.6626015
  42.6682739   1.8232056  39.2112160  41.9932899  -0.0930014  38.8048172
  41.2530251  -0.6984124  39.1297607  42.1612206  -0.1111327  37.8090401
  42.8679123  -0.4602638  39.1515961  39.7403564   4.4261479  44.4825935
  40.4382706   4.9689379  45.3771210  38.6048050   3.7718184  44.8581848
  38.1280098   3.2019734  44.1740494  38.1142273   3.7416489  46.2548370
  37.1097336   3.3189857  46.2760391  38.9077797   2.8431582  47.2245560
  39.8440857   3.3165739  47.5200424  38.3770638   2.7318745  48.1701012
  39.2027626   1.4148446  46.7154503  38.2472420   0.9292375  46.5172920
  39.7083435   1.4554685  45.7506523  39.9800873   0.6246278  47.7530975
  41.0142517   0.9508117  47.8636131  39.5350304   0.7164525  48.7438545
  39.9523582  -0.8809593  47.3972740  38.9320526  -1.2366747  47.5405960
  40.2891960  -1.0822414  46.3803520  40.8119545  -1.6787175  48.2430420
  40.5534134  -1.7415754  49.2173653  41.0110474  -2.5840471  47.8419876
  41.7129211  -1.2265652  48.3056374  37.9405251   5.0784183  46.9242516
  38.1929321   5.2464776  48.0882683  37.5334435   6.0626822  46.1346626
  37.2543182   5.8280678  45.1927795  37.4495239   7.4781113  46.4643707
  37.8236351   7.6719589  47.4696426  38.3357315   8.3043489  45.5502243
  39.2829590   7.7948050  45.3735237  37.8650742   8.3476887  44.5680313
  38.5563164  10.0219021  45.9751740  38.4910011  10.0165997  47.3095665
  35.9653740   8.0797319  46.4184456  35.1584206   7.5958543  45.6414032
  35.6725082   9.0783367  47.1684341  36.4754868   9.3638382  47.7104797
  34.3454704   9.7410603  47.3640480  33.6400414   9.4951372  46.5703239
  33.7210388   9.3267155  48.6999512  34.3743591   9.6724606  49.5010338
  32.3653526   9.9917603  48.9695206  31.6164703   9.9587154  48.1781998
  32.0171547   9.7006884  49.9605484  32.6642189  11.0355272  49.0661011
  33.5002403   7.7491388  48.7612000  32.5021095   7.4774737  48.4176407
  34.2574501   7.1704192  48.2322235  33.8141251   7.3321781  50.2013741
  34.6692505   7.7952237  50.6937637  33.0198669   7.6725264  50.8657646
  33.9352493   6.2647119  50.3856125  34.5702400  11.2701168  47.3107681
  35.4948807  11.8142138  47.9324112  33.6886368  12.0262880  46.5918732
  32.8535347  11.5359678  46.3050117  33.7291412  13.5063410  46.2859116
  34.6556816  13.8094759  46.7734909  33.9217453  13.6208754  44.7879410
  33.1666336  13.0442686  44.2536812  33.8670006  14.6679955  44.4902000
  35.2844772  13.1205444  44.3007660  36.0482483  13.7362432  44.7758141
  35.6249352  12.1705666  44.7127571  35.4830589  13.0039396  42.7882195
  34.8068695  12.3298140  42.2624626  35.2301483  13.9559240  42.3214607
  36.9103851  12.8442030  42.4318352  37.4663239  13.6770039  42.5640373
  37.5066490  11.8122692  41.8763275  36.9906311  10.6453266  41.7496185
  36.1316528  10.4712610  42.2515717  37.6069984   9.9362268  41.3789864
  38.7334251  12.0067005  41.4566078  39.0693130  12.9527330  41.3456802
  39.2196388  11.2084818  41.0737991  32.4787712  14.2313442  46.7135124
  31.3766441  13.6354809  46.7440338  32.6614647  15.4858150  47.1133881
  33.6000328  15.8581409  47.0895691  31.5230923  16.3620815  47.5217743
  30.5424919  15.9327984  47.3162460  31.4698391  16.6124630  49.0334473
  30.8939018  15.7645330  49.4041367  32.7436790  16.7499676  49.7771759
  33.2424698  15.7807884  49.7794342  33.3599663  17.5297203  49.3296509
  32.4968681  16.8292618  50.8358994  30.4920139  17.6996574  49.3673210
  30.0640068  17.5489578  50.3583794  31.0098610  18.6587162  49.3793144
  29.5637779  17.7673969  48.7999687  31.7270031  17.7553329  46.8093605
  32.8764877  18.2642155  46.8448830  30.5641937  18.2737923  46.2242508
  29.7753010  17.6432037  46.2141457  30.3723221  19.6272354  45.6747017
  31.3217068  20.1558247  45.7605133  30.1101112  19.5274811  44.2149429
  31.0217018  19.1550484  43.7476120  29.2687492  18.8747158  43.9823303
  29.8758659  20.8675652  43.5753365  28.9505901  21.3326130  43.9154778
  30.6724243  21.5802612  43.7890434  29.7828178  20.7048378  41.7671928
  31.5631218  20.7027245  41.3570480  31.6247730  20.8345909  40.2768135
  32.0672379  21.5079975  41.8913727  31.9660740  19.7063427  41.5386009
  29.2298889  20.3573856  46.4561844  28.0872383  20.1991463  46.1723900
  29.5128021  21.0897541  47.5090370  30.4906216  21.2975788  47.6531792
  28.5849266  21.9523849  48.2356300  27.6200562  21.4722195  48.3986435
  29.0894489  22.3081608  49.5928421  29.5530376  21.3634701  49.8769989
  29.6943855  23.2084255  49.4847336  27.9504738  22.5858192  50.5697327
  27.4533424  23.5283108  50.3402290  27.2657185  21.7485065  50.4351234
  28.5201931  22.7618141  52.3986168  28.8763161  21.0296459  52.8986855
  29.1364975  21.0081005  53.9569588  28.0800476  20.3111229  52.7043114
  29.7350578  20.6475086  52.3467407  28.3620853  23.2537117  47.4371033
  29.1065331  23.5655861  46.5014877  27.2595463  23.9763050  47.7835388
  26.5210438  23.6088486  48.3663673  26.9399300  25.3364067  47.1847153
  27.8897076  25.7740288  46.8772850  26.0068016  25.2913094  45.9701385
  25.0850849  24.9905605  46.4682388  25.8092899  26.5262489  45.1744690
  26.7743053  26.9837837  44.9565315  25.2606754  26.3498383  44.2492676
  25.2090015  27.3146400  45.6285553  26.2730045  24.1929855  45.0928993
  27.1288662  24.3648376  44.6934395  26.3580780  26.1111431  48.3781929
  25.3249149  25.7333832  48.9273415  27.0004940  27.2043324  48.7498779
  27.7475376  27.5728073  48.1786919  26.7245731  28.0358925  49.8933754
  25.8056431  27.7572365  50.4091492  27.8643322  27.9327030  50.9029427
  27.7781410  28.6079636  51.7542305  27.7460632  26.5246620  51.4960938
  26.7007465  26.4458141  51.7947540  27.8632774  25.6749039  50.8235817
  28.3052807  26.4389420  52.4277725  29.2689762  28.0816402  50.3095169
  29.9511890  28.2365894  51.1453819  29.5857906  27.1665516  49.8091736
  29.3621426  29.0200939  49.7629547  26.5394478  29.5275269  49.5851402
  27.4224014  30.1464348  48.9536057  25.5172768  30.1438046  50.2244072
  24.8081264  29.6051311  50.7008896  25.3166122  31.5695324  50.2832031
  25.5702934  32.0427132  49.3345985  23.8461170  31.9774075  50.5297585
  23.2027874  31.6059494  49.7321091  23.4635773  31.6199493  51.4857864
  23.6533031  33.5444298  50.5300941  23.7837048  33.9842415  51.5188599
  24.3555355  34.0298805  49.8523674  22.2131882  33.8109741  50.1922417
  21.7803154  34.1156197  49.0789871  21.2754841  33.7270775  51.1752815
  21.4972916  33.3181915  52.0717850  20.3197765  33.9638977  50.9502525
  26.3046036  32.1658554  51.3830910  26.3556557  31.7250576  52.5015221
  27.1153755  33.1356812  50.9050674  26.9282780  33.6758652  50.0724258
  28.2109108  33.7352448  51.6486168  27.8619385  34.2220955  52.5592766
  29.3701935  32.6724663  51.9118729  28.8865967  31.8565674  52.4490318
  30.0760536  32.2649918  50.6291962  30.8837891  32.9790535  50.4686203
  30.5268383  31.2726612  50.6161232  29.4262733  32.3518524  49.7583656
  30.4125214  33.1156998  52.8466988  30.8787842  32.2893410  52.9927521
  28.7705383  34.9930267  50.9684944  28.5568714  35.2706909  49.7970543
  29.4915638  35.8000565  51.7782707  29.6830387  35.5355301  52.7340202
  30.1333447  36.9832764  51.3981552  29.5758438  37.4473686  50.5845757
  30.1024551  37.9404564  52.6114044  30.2543926  38.9833107  52.3330688
  29.0962715  37.8565025  53.0220718  31.2358017  37.5613747  53.6291542
  31.2739182  36.3841667  54.0717545  31.9590225  38.4793243  54.0657616
  31.5418854  36.8014030  50.8115921  32.1504860  37.6982346  50.2331276
  32.0741768  35.5776215  50.9851379  31.6356812  35.0102615  51.6964226
  33.5753479  35.3043785  50.9537010  34.1033401  36.1587830  51.3771706
  33.8299065  33.9163284  51.6858139  33.2451172  33.1066589  51.2492905
  35.3750687  33.4716682  51.5664330  35.6212082  33.6010437  50.5124969
  36.0664520  34.0644455  52.1653481  35.5448570  32.4324150  51.8479118
  33.5191612  34.0665550  53.2034607  32.4840965  34.2184334  53.5095367
  33.9205856  33.1266670  53.5823631  34.1232414  34.8823013  53.6006317
  34.0771332  35.2643318  49.4425087  33.4107246  34.8445969  48.4749641
  35.3230133  35.7302856  49.0711250  36.1953964  36.5909233  49.9075127
  36.9520073  35.9538803  50.3655663  35.6438675  37.1814804  50.6390572
  36.9804916  37.4293289  48.8505745  37.9339256  37.8533783  49.1656189
  36.3812981  38.2421913  48.4403038  37.2389107  36.3354263  47.8096809
  38.0257416  35.6687355  48.1625633  37.5366020  36.6540451  46.8106995
  35.9064522  35.5823898  47.7819138  35.2141266  36.0230560  47.0645523
  36.1817398  34.1235733  47.3365021  36.5483971  33.3788948  48.2474098
  36.1091423  33.7528687  46.0367813  35.7809448  34.5054665  45.4485779
  36.1704712  32.3993454  45.4874001  35.4119720  31.7383633  45.9067841
  35.9935074  32.5662689  43.8935432  35.0325813  33.0566864  43.7378922
  36.7980728  33.1816177  43.4909019  36.1038857  31.3365440  43.0456238
  37.0914650  30.9127712  43.2278404  35.3406448  30.6157379  43.3388939
  36.1219673  31.6472454  41.5850868  37.0996094  31.9233055  40.9181290
  35.0193062  31.4944668  40.9608269  34.1924324  31.0905628  41.3770561
  35.0318756  31.6162605  39.9582748  37.5946884  31.7077312  45.7197800
  37.6813583  30.4757500  45.7250252  38.6464729  32.5079384  45.9614601
  38.4740105  33.5031013  45.9593315  40.0168953  32.0380211  46.2105751
  40.1551514  31.1248341  45.6317177  40.9582558  33.0743408  45.5953140
  42.0077629  32.7806664  45.5756721  40.7061234  33.1073341  44.5353889
  40.7922668  34.3966026  46.2402954  41.6550255  34.8235359  46.9888306
  39.6973190  35.0039406  46.1005173  40.3213539  31.7608509  47.7152023
  41.0959663  30.8285732  48.0012207  39.5937996  32.4568138  48.5589409
  38.9755173  33.1935654  48.2506752  39.5954628  32.2750816  50.0210876
  40.6062660  31.9933987  50.3160973  39.2692108  33.6019363  50.6586151
  38.2232437  33.8820686  50.5337982  39.5035477  33.4262199  51.7085228
  40.0950546  34.8296928  50.2173576  39.9179840  34.9701462  49.1510468
  39.6387062  35.7152863  50.6596069  41.6025887  34.6603394  50.5463142
  41.9234734  34.5874596  51.6889038  42.5035782  34.5899734  49.5994568
  42.1715851  34.7022705  48.6522141  43.4703941  34.6285210  49.8890724
  38.7111359  31.1820469  50.5640450  38.7809296  30.9514923  51.7924919
  37.9009819  30.5029297  49.7932968  37.8480225  30.7919636  48.8269844
  37.0869331  29.3554783  50.2013702  36.3900948  29.7192593  50.9564743
  36.1032867  29.0600414  49.0671120  36.6933479  28.5715046  48.2917023
  35.0365448  27.9586086  49.5020294  35.4857597  27.0346470  49.8661766
  34.4430923  28.3407001  50.3326454  34.3456459  27.7656593  48.6813431
  35.3771019  30.2237053  48.4131813  36.0735703  30.9321022  47.9646225
  34.8439064  29.8393135  47.5436707  34.4114571  31.0102806  49.2681198
  34.7496529  31.0774841  50.3021431  34.2292900  31.9311619  48.7141418
  33.4631348  30.4740086  49.3027649  37.9090462  28.2312336  50.8058052
  39.0357628  27.8622818  50.3108177  37.4807091  27.6817646  51.9111900
  36.5865898  27.9409790  52.3029289  38.1064110  26.4393902  52.5454292
  39.1833458  26.4352818  52.3772011  37.8929710  26.4564056  54.0468292
  36.8441162  26.5072765  54.3390961  38.2978592  25.5239735  54.4402046
  38.5935593  27.7144718  54.6419487  39.6338196  27.6218395  54.3298988
  38.1665421  28.6247425  54.2210388  38.5500488  27.7817631  56.1710167
  37.5112038  27.7894726  56.5009232  38.9775925  26.8427029  56.5224075
  39.2099762  29.0331326  56.6081657  39.3552704  29.7263451  55.8881302
  39.6022758  29.2476273  57.8376694  39.3855820  28.4197998  58.7949905
  39.7341003  28.5964622  59.7263527  38.9407463  27.5420876  58.5673027
  40.2193794  30.3263035  58.2140427  40.4902916  30.4942055  59.1724358
  40.3456001  30.9533672  57.4323997  37.6228752  25.1279831  51.9327888
  36.5992737  24.6087208  52.3542709  38.3663979  24.6165638  50.9715118
  39.1981392  25.1542492  50.7735176  38.2730598  23.2887287  50.3952904
  37.1988258  23.1181602  50.3243599  38.8882179  23.3205166  48.9263649
  39.9667282  23.4502602  48.8364677  38.5099182  22.4017429  48.4782104
  38.1906052  24.2983952  48.0394592  37.0374260  24.0483646  47.2810516
  36.6643982  25.2707729  46.9222755  35.8334846  25.3596516  46.2381058
  37.6112976  26.1806450  47.1874084  37.6063538  27.0832939  46.7343063
  38.6010818  25.5501728  47.8531189  39.5168533  25.9396248  48.2727470
  38.9316902  22.2281895  51.3179359  39.9628983  22.4895458  52.0079803
  38.5728226  20.9615746  51.2916870  37.8280754  20.6715107  50.6741791
  39.0286064  19.8658352  52.2354240  40.0038757  20.1644897  52.6198158
  38.1035194  19.6498051  53.4559593  37.0779762  19.4654713  53.1359711
  38.6016731  18.5743599  54.3894539  39.5338058  18.8008366  54.9070778
  37.8704720  18.2657719  55.1365929  38.8156166  17.6928368  53.7850990
  37.9607353  20.8289242  54.4056244  37.7067146  20.4518871  55.3962898
  38.9609032  21.2610874  54.4373207  37.2857208  21.5098495  53.8871651
  39.1931114  18.5268211  51.5036583  38.3484268  18.0563679  50.7842102
  40.4258308  17.9251480  51.7084961  41.0895157  18.2847347  52.3795547
  40.8015137  16.6328335  51.0520859  39.9515495  16.0954266  50.6315460
  41.7985115  16.9210262  49.9267387  42.6462326  17.5208836  50.2578583
  42.2610054  15.9960794  49.5822525  41.2212563  17.5313148  48.6218681
  40.7846298  18.8853741  48.5299187  40.9304810  19.5692062  49.3530273
  40.0308533  19.4153252  47.4340935  39.6259727  20.4164772  47.4210129
  39.7245178  18.4852962  46.3907089  39.0503349  18.8356495  45.2770576
  39.0022621  18.0857735  44.6795807  40.2341881  17.1604748  46.4433022
  40.1173592  16.4678421  45.6229286  40.9062119  16.7400017  47.5305939
  41.2985306  15.7355003  47.4717407  41.4219246  15.6796112  52.1439285
  42.3090630  16.2005043  52.8600235  40.8734283  14.4933147  52.4448509
  40.0412064  14.1717577  51.9714508  41.3328209  13.5986948  53.5098381
  42.1158218  14.0693855  54.1043625  40.1250420  13.2375717  54.4428444
  39.3884964  12.6742363  53.8699112  40.4001656  12.4789104  55.1755447
  39.4071236  14.3748102  55.1271210  38.8748207  15.0304689  54.4380150
  38.4460526  13.7760382  56.1347351  37.7468452  14.5389385  56.4770660
  37.8078575  12.9567909  55.8036118  39.0814209  13.3522215  56.9124146
  40.3723183  15.3031807  55.8640709  40.7217178  14.7612686  56.7429047
  41.2408104  15.6320877  55.2934265  39.7902718  16.1797867  56.1484680
  41.9802856  12.2957020  53.0078888  41.8936653  11.9308548  51.8204460
  42.6696892  11.6259031  53.9025536  42.6032715  11.9298725  54.8634338
  43.2140236  10.3149309  53.6023865  43.8135071   9.8977537  54.4115143
  42.1678276   9.2580948  53.4023056  41.6604538   9.4321651  52.4534302
  42.6569748   8.2859287  53.3412399  41.0501747   9.1683788  54.4781189
  40.4549637  10.0809698  54.4464760  40.3379173   8.3646641  54.2914886
  41.4927711   8.9506731  55.9340172  42.6818695   8.5953617  56.1884041
  40.6681099   9.0337076  56.8592262  44.2985725  10.4044962  52.4646339
  45.1878738  11.1615372  52.6461105  44.1232986   9.6781025  51.3655014
  43.3635330   9.0156946  51.3016701  44.8753853   9.7881289  50.0882416
  45.9425011   9.9217367  50.2657661  45.0003662   8.4577847  49.3371201
  44.0983009   8.2380304  48.7660828  45.8491478   8.5514975  48.6597061
  45.3604660   7.2811995  50.2225037  46.3540611   7.3256488  50.6684875
  44.7081299   7.1638551  51.0878334  45.3441200   6.0986743  49.3936272
  44.3376083   6.0789528  48.9757156  46.1707039   6.1198077  48.6834068
  45.4800072   4.9204783  50.4185982  46.4965668   4.9879189  50.8061028
  44.7793045   5.1044278  51.2330208  45.3580475   3.6035450  49.8044052
  45.4545288   2.7868311  50.3907242  44.4237480   3.5269802  49.4284706
  45.9441490   3.4400191  48.9982758  44.4363327  10.9710350  49.2322655
  45.1564903  11.2171888  48.3303757  43.2204971  11.4595871  49.3371506
  42.6331711  11.0762691  50.0639305  42.5932159  12.2645988  48.3218269
  42.6298256  11.5075665  47.5384560  41.1019859  12.5331573  48.7236786
  40.9952850  13.4548025  49.2957726  40.5217133  12.4838896  47.8022919
  40.8006935  11.7244301  49.3894768  43.3918648  13.5728569  47.9752274
  43.1800156  14.0817299  46.9089737  44.2390823  14.0883799  48.9104424
  44.3993530  13.5268669  49.7345314  45.2337799  15.1770992  48.6258888
  44.7505188  16.1449299  48.4922218  46.1893654  15.2640791  49.8452950
  46.7932587  16.1421680  49.6164322  45.3363571  15.5863447  51.0851212
  46.0531769  15.7611237  51.8874474  44.7551956  16.5084553  51.0772018
  44.8289452  14.7181196  51.5056229  46.9913559  14.0122242  50.0689278
  47.6831932  13.7656832  49.2635193  47.6243134  14.0463676  50.9556656
  46.3614082  13.1443739  50.2641296  46.0520248  14.9796934  47.3405647
  46.3620758  15.9646893  46.6752739  46.3534431  13.7785530  46.9482079
  46.2949142  13.0113993  47.6025391  47.0671387  13.5052423  45.6760826
  48.0125847  14.0359716  45.7881432  47.4345055  11.9506283  45.5955391
  47.7462196  11.7682266  46.6239662  46.2374153  11.1290941  45.1181641
  46.1397362  11.1661673  44.0331802  46.4007683  10.1353922  45.5352669
  45.3251076  11.5554886  45.5352783  48.6207008  11.8028116  44.5519371
  49.2129250  10.9350033  44.8422623  48.1874352  11.6789665  43.5594444
  49.2113724  12.7178440  44.5958176  46.4173050  14.0679998  44.3503113
  47.0741997  14.5143003  43.4295769  45.1004257  14.1776543  44.3933258
  44.6838226  13.8165817  45.2395973  44.2423172  14.8233633  43.4226875
  44.3819580  14.3696051  42.4415131  42.7428284  14.6338654  43.8386688
  42.6448441  15.1194181  44.8096161  42.0828323  15.1587553  43.1480179
  42.2873840  13.1616535  43.9269905  42.9447594  12.6529160  44.6320763
  40.8300629  12.9378309  44.2837372  40.5213890  11.8938971  44.3387299
  40.7062759  13.3767118  45.2737694  40.2581444  13.5962677  43.6299286
  42.5010452  12.4730444  42.5960960  41.9576721  12.9758358  41.7960701
  43.4890442  12.4662294  42.1357613  42.0152473  11.4988308  42.5412636
  44.5780754  16.3234749  43.1478806  44.1589279  16.8638744  42.1185150
  45.1435966  16.9821987  44.1774025  45.2142792  16.4446774  45.0295601
  45.2802010  18.4904499  44.2115784  45.0104866  19.0230904  43.2996254
  44.2544289  19.0189381  45.1965866  44.5333443  18.6764774  46.1930962
  44.3959503  20.0996475  45.1848068  42.8047523  18.6616020  44.9426308
  42.5766716  17.5967884  44.8951988  42.3537064  18.8875942  45.9088516
  42.1813011  19.4195099  43.7693062  42.6730576  18.9282322  42.9297104
  41.1248589  19.1596565  43.7022209  42.3699989  20.8809814  43.9004631
  43.3224106  21.1591434  44.0892410  41.4270668  21.7469368  44.0410690
  40.1868134  21.4395142  44.2720718  39.5297966  22.1823730  44.0807953
  39.9436722  20.4782581  44.0797958  41.6743698  23.0137119  44.0238533
  40.9010315  23.6270466  44.2380104  42.5379524  23.4160709  43.6885376
  46.7115860  19.0248909  44.5094032  46.9260292  19.3817062  45.6882210
  47.6452751  19.1168613  43.5613060  47.4388161  18.8198223  42.1980743
  46.5711212  19.2632828  41.7096558  47.4665985  17.7535744  41.9734573
  48.5943413  19.4465961  41.4230804  48.3104668  20.4793034  41.2205124
  48.7926483  18.9279919  40.4850922  49.7617798  19.4987259  42.3806686
  50.4988327  20.2333946  42.0564537  50.2263412  18.5135403  42.4218216
  49.0272026  19.7420902  43.7088432  49.4606667  19.1339340  44.5027924
  48.9694901  21.2317467  43.9738579  49.8361473  21.7276478  44.6190147
  47.9753456  21.9829674  43.4568634  47.2161636  21.5113525  42.9864006
  47.6121292  23.3643169  43.8073006  48.5340729  23.8736591  43.5267830
  46.5183716  23.9137592  42.9506721  46.5519638  24.9717464  43.2107315
  46.7980194  23.9616337  41.8982391  45.1322784  23.1760426  43.1407394
  45.1078606  21.9908886  43.5237617  44.1127777  23.6760349  42.7799835
  47.2795525  23.6674099  45.3112526  47.5524559  24.7785664  45.8070412
  46.7916565  22.6798058  46.1015358  46.3340912  21.9340897  45.5969200
  46.6380768  22.7453499  47.5885277  46.4236450  23.7738895  47.8787498
  45.3838577  21.9412193  47.9316940  45.5919838  20.9123402  47.6381111
  45.2147598  21.9481277  49.0084763  44.1497993  22.4424782  47.1041183
  44.1520042  22.2905254  46.0247574  42.8969307  21.7149448  47.4546089
  43.0051155  20.6329269  47.5296211  42.4526863  21.9567928  48.4201431
  42.2121735  21.8924294  46.6253281  43.8792725  23.8632355  47.4302673
  44.6524391  24.5637436  47.1146584  43.0069275  24.2368603  46.8940582
  43.7329712  23.8543911  48.5103683  47.8112373  22.2547855  48.3902473
  47.8730736  22.5526867  49.5764122  48.8455734  21.5824451  47.7692604
  48.7902527  21.5282631  46.7622299  50.1676598  21.4077301  48.3461609
  49.9758148  21.0326576  49.3514557  51.0218048  20.3452129  47.6168976
  50.3636398  19.4858837  47.4885559  51.2586250  20.6172733  46.5883064
  52.2380676  20.0533657  48.3686409  52.7400360  19.4242115  47.8453827
  51.0047684  22.6596794  48.5901566  51.4381104  23.3250790  47.6622887
  51.3446617  22.9031906  49.8466530  51.0449333  22.2716579  50.5756454
  52.2880821  23.9492741  50.3194275  52.1658974  23.9667263  51.4024162
  53.7704010  23.5066738  50.1511536  53.9506416  23.5087948  49.0761604
  54.4743004  24.2459030  50.5334740  54.2502823  22.1878853  50.7143898
  53.7144165  21.3213100  50.3270950  55.7724762  22.0976601  50.3624878
  55.8370476  21.9576492  49.2834473  56.3692436  22.9733448  50.6177292
  56.1809540  21.2570992  50.9234810  54.0303192  22.1379681  52.2147751
  54.4273529  21.1931496  52.5859604  54.5504723  23.0128860  52.6047211
  52.9830093  22.2607651  52.4907532  51.9761810  25.2867584  49.7751122
  52.7696381  26.1643219  49.4170761  50.6607323  25.6202068  49.7121925
  50.0553169  25.0036869  50.2351418  50.1782951  26.9566422  49.2255058
  50.7603416  27.3509121  48.3925133  48.7456818  26.6998405  48.7335014
  48.7710419  25.8645248  48.0337067  47.7870255  26.2889156  49.9005737
  48.2837143  25.4437714  50.3771553  47.5448570  27.0367603  50.6556778
  46.8682594  26.0501957  49.3648720  48.1779747  27.8573570  48.1744499
  47.4846802  27.5997200  47.5624352  50.3010674  27.9991035  50.2680206
  50.2586861  27.7989826  51.5275917  50.5229034  29.1940403  49.8381424
  50.5581055  29.1831284  48.8288155  50.8232040  30.4323292  50.5738640
  51.5583153  30.1340599  51.3213577  51.3891945  31.5116119  49.5372314
  51.9998436  30.9112148  48.8628922  50.6819305  31.8912926  48.7998581
  52.0209084  32.6973686  50.2111549  51.8161507  33.5536308  49.5685120
  51.5903625  32.8786201  51.1959801  53.5013962  32.5168953  50.4217148
  53.7307854  31.6474590  51.0378075  53.8283081  32.4217644  49.3862572
  54.0542603  33.7625008  51.1778374  53.7461777  34.6542625  50.6319923
  53.5637436  33.7888298  52.1508751  55.5296059  33.7032547  51.4561958
  56.0518494  33.6680641  50.5924072  55.8167648  34.4816704  52.0321388
  55.7695465  32.9215126  52.0489922  49.5689812  30.9164486  51.3542099
  49.6830750  31.5097122  52.4188309  48.4175034  30.7016125  50.6947021
  48.4457092  30.1635742  49.8404083  47.0637436  30.9751339  51.2291031
  47.0290489  32.0459137  51.4299202  46.0447578  30.6601524  50.1187744
  46.1236076  31.4921036  49.4189606  46.3595200  29.7312202  49.6432610
  44.5856018  30.6857700  50.5594673  44.2810211  30.9960003  51.6507339
  43.6404877  30.3582268  49.6545525  43.9238625  29.9731350  48.7648888
  42.6820984  30.6264267  49.8268051  46.8404083  30.1928520  52.5706444
  46.6721878  28.9624424  52.6472511  46.8678818  31.0325489  53.5882492
  47.0293159  32.0295029  53.5994568  46.8379211  30.5090084  54.9911194
  47.6219826  29.7532864  55.0383644  47.1581917  31.6819706  55.9600525
  47.1669617  31.2084770  56.9417992  48.5630531  32.3633118  55.8448982
  49.2706680  31.5446053  55.9756508  48.7184868  32.7717896  54.8463554
  48.7016907  33.0313950  56.6949272  46.2053604  32.6479950  55.9460793
  46.1997643  33.2367020  56.7043610  45.4985886  29.9110909  55.3962364
  45.4846077  29.2536316  56.4331474  44.3856735  30.1203346  54.7138138
  44.4332657  30.7210674  53.9032822  43.0953751  29.5848541  55.1167297
  42.9082565  29.8387165  56.1601143  41.9630089  30.0019493  54.2176437
  42.1759071  29.7424355  53.1806183  41.0163422  29.5232487  54.4681892
  41.5841827  31.5204029  54.1019325  42.4910202  32.0178185  53.7579422
  40.8256989  31.6033478  53.3235245  41.1756058  32.1585770  55.4374123
  40.0122490  31.9080086  55.8397064  41.9221840  32.8420105  56.1542244
  43.1320496  28.0156803  55.0841942  42.6159630  27.4308510  55.9804611
  43.8721504  27.5320435  54.0949364  44.6506004  28.0232792  53.6792412
  43.8618050  26.0897503  53.7514305  42.8484077  25.7052250  53.8666039
  44.1777344  25.9546223  52.2332230  45.2315102  26.2034035  52.1076851
  44.1704788  24.8680916  52.1466064  43.3455505  26.5783958  51.1571159
  43.2248955  27.6330242  51.4047089  44.1351814  26.5835419  49.9101868
  43.4984665  26.8779030  49.0758934  45.0175819  27.1959019  50.0958862
  44.6086197  25.6276360  49.6861343  41.9640541  25.9743404  50.9340401
  42.0862122  25.0622711  50.3498268  41.6009254  25.7171860  51.9290810
  41.3980789  26.8033600  50.5091858  44.7323151  25.3113976  54.7038116
  45.8545532  25.7262421  55.0570755  44.2895622  24.2069016  54.9858208
  14.7742777  36.5680161  49.8112831  14.8789158  35.9234390  50.5817795
  15.4277573  37.2863388  50.0889091  13.8692751  37.0162659  49.7993546
  15.1061878  35.8520508  48.5521851  14.3772125  35.1201401  48.2043304
  15.1038227  36.9317513  47.4425278  14.3100300  37.6735344  47.5306015
  16.0536041  37.4652672  47.4054604  14.9071770  36.3032837  46.1465187
  15.2742281  36.9954453  45.3886986  15.5196743  35.4055099  46.0631790
  13.1462355  35.9366188  45.7910233  12.7672024  36.9845085  44.3387947
  13.5244627  36.7030525  43.6070595  11.7847328  36.7612228  43.9228668
  12.8295994  37.9983521  44.7341957  16.4397621  35.1367645  48.5006561
  17.4649639  35.7704163  48.7519798  16.5077229  33.8914413  47.9859200
  15.6633978  33.3653946  47.8113022  17.7520390  33.2506866  47.6489143
  18.3117619  33.9308319  47.0068741  18.7166080  32.9597855  48.8667870
  19.7392235  32.6605110  48.6370163  18.8357639  33.7980194  49.5532761
  18.2229214  31.8570042  49.8188477  17.3246231  32.1267738  50.3741722
  17.9435520  30.9986153  49.2079277  19.4777813  31.3725700  50.9957123
  20.3406906  30.2463322  49.8600883  20.5707779  30.8656864  48.9931602
  21.1567211  29.6858616  50.3162308  19.6199570  29.4699821  49.6033287
  17.5905056  31.9467430  46.7703819  16.5594006  31.2071896  46.7780075
  18.6325340  31.5857811  45.9918594  19.4430027  32.1875572  45.9585991
  18.6823006  30.4157372  45.1759148  17.8698540  30.3999977  44.4494286
  20.0040874  30.4874115  44.3452339  20.7834759  30.5463619  45.1049576
  20.0772190  29.2340298  43.5002937  20.9176331  29.2954407  42.8088875
  20.1996517  28.3037281  44.0549545  19.2143574  29.0822716  42.8518066
  20.1111145  31.7144032  43.4185677  19.9078274  31.4454365  42.3820190
  19.4623089  32.5538712  43.6684608  21.5466270  32.2742577  43.4557495
  21.8227825  32.6821289  44.4281082  22.3180122  31.5634995  43.1592865
  21.5842190  33.0807266  42.7234344  18.6104336  29.0895691  46.0026741
  19.3263931  28.8975105  46.9660797  17.7971935  28.0843163  45.5844841
  17.0153065  28.3942242  45.0252800  17.7311516  26.7646503  46.2292709
  18.6927547  26.6245842  46.7230339  16.5865631  26.7395706  47.2446289
  15.7151594  27.0436764  46.6647377  16.5049152  25.6968651  47.5515594
  16.8321228  27.6180687  48.4416504  17.8592129  27.5884991  48.8053970
  16.5547485  28.6411686  48.1878166  15.8232479  27.3275185  49.6407242
  14.7747946  27.3358860  49.3427696  15.9203367  26.3298473  50.0688858
  16.1222992  28.2501469  50.7814941  15.4768467  29.0198250  50.8867798
  17.1788921  28.3068275  51.6057091  18.0584297  27.3637199  51.5675507
  18.9493637  27.4619522  52.0330505  17.8819904  26.6434078  50.8818970
  17.3459129  29.3202057  52.4703064  16.6232510  30.0136604  52.6006165
  18.0303688  29.1818733  53.2000237  17.6684780  25.6244183  45.2514763
  17.0882854  25.7971115  44.1904755  18.1389618  24.4190044  45.6341438
  18.4564838  24.3545856  46.5907669  17.7542248  23.1635132  44.9589691
  17.8033447  23.3197803  43.8813477  18.5052299  22.3986740  45.1567345
  16.3704739  22.6975651  45.2848473  16.0142002  22.7605419  46.4671516
  15.6398220  22.1483078  44.3133278  15.9987211  22.2281761  43.3726311
  14.4211941  21.4001408  44.4505234  14.2860317  21.1317692  45.4982872
  13.1980085  22.2137375  43.9973068  13.4721031  22.4218769  42.9630699
  11.9210825  21.4122410  44.0252800  10.9872274  21.9516964  43.8671761
  11.9705648  20.5630417  43.3437309  11.7802086  21.0256939  45.0346565
  13.0487099  23.6005535  44.7690201  13.1082878  23.5384789  45.8556175
  13.8987846  24.2136936  44.4697952  11.8424320  24.3528786  44.4404373
  11.8765678  25.4061813  44.7187996  11.5100098  24.2913170  43.4041901
  10.9825993  23.9651260  44.9867287  14.4997463  20.0305023  43.7275467
  14.7878027  19.9253731  42.5474396  14.1292009  18.9338531  44.4507370
  13.6419230  19.1683064  45.3037834  14.2179651  17.5330658  43.9665718
  14.9612017  17.5827732  43.1708107  14.8969812  16.6890812  45.0351448
  14.2148952  16.4764175  45.8583260  14.9964323  15.6778507  44.6406517
  16.2377319  17.2841625  45.4942436  16.8238945  17.4630260  44.5928459
  16.0220337  18.2197018  46.0103264  17.0462818  16.4541817  46.4549370
  17.8821678  17.0265617  46.8571510  16.4231701  16.1538715  47.2973480
  17.5016384  15.2818604  45.6485176  17.9028206  15.3760309  44.7264099
  17.4431133  14.0069399  46.0167389  17.3441563  13.6578665  47.2154198
  17.3917675  14.3413029  47.9575462  17.3272171  12.6754789  47.4493599
  17.4000645  13.0081186  45.2427368  17.1472168  13.1179314  44.2710838
  17.1687260  12.1185751  45.6614189  12.9120598  16.9982872  43.5307312
  11.8666344  17.4472809  44.0120354  12.9126873  16.0612926  42.6227646
  13.8103027  15.9411106  42.1756096  11.9099731  15.0288801  42.6949463
  11.6939011  14.8902187  43.7542801  11.0110435  15.3568277  42.1729469
  12.3825674  13.6525621  42.0927048  13.4829798  13.6281042  41.5709648
  11.5522022  12.5805302  42.0532532  10.6421127  12.5940695  42.4910355
  11.8928213  11.3620968  41.2936211  12.4160986  11.6905794  40.3956337
  12.8376045  10.4956980  42.1434746  13.7506609  11.0720778  42.2925377
  12.3882742  10.2860470  43.1141701  13.2538586   9.5926495  41.6970024
  10.6943722  10.5384855  40.7388115   9.6955318  10.5133247  41.4115181
  10.8997288   9.6592999  39.7521515  11.8679428   9.5028076  39.5109634
   9.7956562   8.7625113  39.1935654   9.1849976   8.5509338  40.0713081
   8.8067446   9.5089531  38.2828178   8.4588394  10.4204388  38.7688789
   9.3934164   9.8072119  36.8517723  10.4600277  10.0301847  36.8786888
   9.3428230   8.9615374  36.1659317   8.8793335  10.6610956  36.4105225
   7.7146864   8.5632191  38.1949272   6.9363313   9.0361671  37.8914757
  10.3758974   7.4619708  38.7061043  11.5779982   7.2907519  38.7281265
   9.5705872   6.4794869  38.3442574   8.5708532   6.6189833  38.3785095
   9.9905901   5.2325926  37.7292671  11.0465088   5.3415933  37.4817696
   9.9968433   4.1232424  38.7901802  10.2857161   3.2140133  38.2629662
  10.9608850   4.2536807  39.9244690  10.9328489   5.2211475  40.4257927
  10.6845455   3.5549269  40.7140770  11.9334660   4.0823593  39.4631310
   8.7260895   3.8550079  39.3150635   8.2586126   3.2410212  38.7440224
   9.1757269   4.7961869  36.5590553   8.1554041   5.3475661  36.2376366
   9.6767302   3.8422771  35.8446350  10.6421986   3.6218312  36.0430641
   9.0338125   3.1754549  34.7017860   7.9598980   3.3282120  34.5946732
   9.5517368   3.6729457  33.3742561   8.9978132   3.0535140  32.6688690
   9.1808662   5.1238852  32.9902344   9.7258759   5.3626919  32.0769768
   8.1158466   5.2584834  32.8012238   9.4548807   5.9275661  33.6736870
  11.0429163   3.3773913  33.2856941  11.4337654   3.2580702  34.2961845
  11.0710678   2.3790405  32.8491135  11.5782633   4.1229572  32.6977882
   9.1956043   1.6282715  34.7616615  10.1527853   1.1496452  35.3895950
   8.2758675   0.8913672  34.1422653   7.4811702   1.3131266  33.6832695
   8.3878784  -0.6518751  34.0575829   8.9889946  -1.0841210  34.8575325
   7.0603490  -1.2398143  34.2053757   6.5541177  -1.0157197  33.2664337
   7.1469707  -2.3239737  34.1332970   6.1972260  -0.7328495  35.3248291
   5.8931327   0.3041913  35.1827965   5.3680563  -1.4387527  35.2771111
   6.8302956  -0.9059368  36.6282921   7.7393651  -1.7307664  36.6726761
   6.4805436  -0.2372225  37.5889740   9.0873804  -1.1868070  32.7762985
   9.2866144  -2.3861253  32.6451912   9.4690399  -0.3220663  31.8464088
   9.2487392   0.6412093  32.0553780   9.8806953  -0.7816808  30.5321102
  10.5096807  -1.6707138  30.5779171   8.6251516  -0.9805647  29.6543102
   7.9403048  -1.6584591  30.1637669   8.0692549  -0.0490749  29.5475121
   9.1034746  -1.5965217  28.2985706   9.6121826  -0.8412552  27.6994972
   9.7979832  -2.4063632  28.5219994   7.9497995  -2.2935655  27.5304050
   8.2740889  -2.7539685  26.5971489   7.4706278  -3.0879014  28.1027031
   7.0105639  -1.1950005  27.0688400   6.4272146  -0.8096268  27.7977390
   6.7886190  -0.7075182  25.8147144   7.3910546  -1.2295339  24.7625656
   7.9343576  -2.0780017  24.6916790   7.4365349  -0.5853133  23.9860268
   6.1647391   0.4159858  25.6206608   5.6404881   0.7718754  26.4071751
   6.3234806   0.9979943  24.8106194  10.8215952   0.2714883  29.9848423
  10.5546417   1.4687796  29.8870831  11.9599771  -0.2035907  29.4447956
  12.1584826  -1.1837934  29.5858574  12.9501448   0.6428993  28.7855339
  13.0974360   1.4742723  29.4749031  14.2130899  -0.1973273  28.6805038
  14.5335207  -0.6340721  29.6263771  14.0613775  -1.0189832  27.9805222
  15.4421711   0.5981613  28.1505337  15.5142984   1.8360238  28.3171825
  16.3172493  -0.0778560  27.5953941  12.5003290   1.2560631  27.3735180
  12.7147875   0.5688661  26.3899956  11.7528238   2.3714519  27.3252544
  11.4072952   2.7825367  28.1806602  11.2922058   3.0259469  26.0474892
  12.1876497   2.9071059  25.4374428  10.0460272   2.2013378  25.5819988
  10.2638254   1.1337702  25.5509682   8.8137045   2.2684016  26.4644928
   8.0860100   1.6032891  25.9995365   8.9282312   1.9630232  27.5045528
   8.3607225   3.2587535  26.4184380   9.6942940   2.6628160  24.2893562
  10.2593288   2.2115452  23.6579361  10.9206953   4.5017271  26.2681808
  10.3680563   4.8900180  27.2985687  11.2741385   5.3345175  25.2829399
  11.6115322   4.9430027  24.4151955  10.9343138   6.7545595  25.2760372
  11.5868626   7.2540021  25.9921627  11.3779793   7.3592038  23.9546719
  11.2946939   8.4459753  23.9643307  12.3890181   6.9868426  23.7896023
  10.4856167   6.9681053  22.7840996  10.1580534   5.9316669  22.7028713
   9.5571499   7.5387816  22.7646732  11.1157885   6.9799743  21.4127026
  10.3833265   6.7055092  20.3712044  12.3424187   7.2020807  21.2403278
   9.4131107   7.0973067  25.6104832   9.2140551   8.0526867  26.3516445
   8.4357414   6.2559371  25.1476612   8.6731634   5.5672998  24.4480114
   7.0230837   6.5342197  25.5630951   6.8185806   7.5391855  25.1938782
   6.0949416   5.6564751  24.7372665   6.1685090   4.6356215  25.1121616
   5.0668402   5.8931684  25.0112915   6.2263250   5.6366515  23.2078648
   7.1830935   5.2502451  22.8566036   5.4342999   5.0277553  22.7719269
   6.1732426   6.9827690  22.4268894   5.8793855   8.0470085  23.0430641
   6.5594616   7.0015039  21.2657185   6.7351427   6.4159613  27.0472755
   5.6377378   6.8513637  27.4624634   7.6578302   5.7262502  27.8233013
   8.4958048   5.3989177  27.3642235   7.4834352   5.7021732  29.2778854
   6.5071607   6.0859571  29.5740242   7.7149143   4.3102341  29.8180523
   8.6966352   4.0018029  29.4586143   7.6913514   4.3446693  30.9072552
   6.8173113   3.2517471  29.2694473   6.8203917   3.0981114  28.1903324
   6.9792085   2.2983868  29.7724400   5.3163247   3.5751886  29.4899788
   4.4374580   3.3445699  28.5678596   4.9443893   4.1133351  30.4867649
   8.4038429   6.7057381  29.9217243   8.0129862   7.6002316  30.6893940
   9.6821184   6.6851506  29.5486870   9.9119577   5.9536028  28.8913345
  10.8147383   7.4417920  30.1972218  10.6819220   7.3471909  31.2749596
  12.1924782   6.8626313  29.7563801  12.2869577   6.8456726  28.6706161
  13.3247337   7.7916121  30.4179363  13.2971859   8.7622175  29.9226837
  13.0828209   7.9646778  31.4665661  14.2852831   7.3121624  30.2293262
  12.2978868   5.4246917  30.3533459  12.4618063   5.4392190  31.4308510
  11.3413734   4.9186502  30.2225418  13.3256817   4.5085864  29.5621452
  13.0448809   4.3932128  28.5152740  14.3346996   4.9173617  29.6158714
  13.2684441   3.5307317  30.0402985  10.6815023   8.9258661  29.9980316
  11.0420542   9.6944056  30.9592915  10.2612705   9.4613991  28.8022976
  10.1754131   8.7747812  28.0665779   9.9855070  10.9275599  28.5047836
  10.7807627  11.5114326  28.9682064   9.8771276  11.1660433  26.9334736
   9.0476656  10.5580416  26.5723248   9.5991373  12.2125082  26.8080482
  11.1324167  10.7887268  26.1599312  11.2880869   9.7112446  26.2137814
  11.0095873  11.2730770  24.7545147  10.2111130  10.7776623  24.2021561
  10.7434769  12.3264885  24.6672783  11.9400768  11.0911922  24.2167301
  12.4600039  11.3980036  26.7264099  12.6660576  10.8273802  27.6319656
  13.2967329  11.2805910  26.0377846  12.2749739  12.4493637  26.9466515
   8.6461391  11.3843002  29.1809921   8.5925913  12.3994741  29.8357983
   7.5975666  10.5663061  28.9731026   7.7255077   9.8470745  28.2756538
   6.2439613  10.8212528  29.4093075   6.1309037  11.7443037  28.8407173
   5.4005923   9.7533979  28.9362831   5.5543537   9.4865770  27.8906898
   5.7670112   8.8227549  29.3695736   3.9554760  10.0084629  29.3353233
   3.3548098   9.1491375  29.0372314   3.8641768  10.0593138  30.4203053
   3.2837222  11.2650948  28.6805973   3.0458322  12.2681980  29.2439861
   3.1161866  11.2336092  27.3892975   3.3253417  10.3976412  26.8625011
   2.8741915  12.0614338  26.8637066   6.1995730  10.9768867  30.9966087
   5.6304636  11.9722967  31.4791584   6.6167712  10.0341806  31.7438927
   7.0246649   9.2125731  31.3211842   6.5065598   9.9934931  33.2039757
   5.5118098  10.2666941  33.5560188   6.7329302   8.5908289  33.6717911
   7.6941366   8.1986656  33.3395424   6.6843057   8.5691605  34.7604904
   5.5946736   7.7008615  33.1321373   4.6303115   8.1953630  33.2486458
   5.7090559   7.5131521  32.0645294   5.3973002   6.4290462  33.8880692
   6.2573080   5.7605467  33.9280128   5.1376514   6.5821114  34.9355659
   4.1989121   5.5942388  33.4283905   3.3255823   6.2378674  33.5339241
   4.2901969   5.2958870  32.3839951   3.9201722   4.4545059  34.2472610
   4.7837157   3.9343045  34.1857529   3.8251319   4.7759743  35.2000084
   3.1910129   3.8093858  33.9784737   7.4703064  11.0056496  33.8093491
   7.1407084  11.6524000  34.8344879   8.6253815  11.3040133  33.1177025
   8.9068937  10.6945896  32.3630791   9.5341387  12.4914017  33.4004936
   9.7476311  12.4965944  34.4693718  10.8852739  12.1900930  32.6427689
  10.6280527  12.0401249  31.5942249  11.7847500  13.3763332  32.8673058
  11.4996262  14.3177147  32.3976250  12.0517607  13.6882553  33.8770142
  12.6564302  13.3097239  32.2162781  11.4960766  11.0096769  33.2007790
  11.2767944  10.2685070  32.6314087   8.9253674  13.8543892  33.0844917
   9.0388985  14.7096062  33.9917488   8.3153381  14.1837368  31.9068317
   8.1304760  13.4903507  31.1960983   7.4719620  15.3863201  31.6701622
   8.0838871  16.2883434  31.6718731   6.8704858  15.1923685  30.2467575
   7.6742725  15.2069998  29.5106773   6.3680348  14.2273951  30.3136082
   5.7408776  16.2353363  29.8851948   5.0381932  16.2583447  30.7181454
   6.1875048  17.1786060  29.5707645   4.9545212  15.6803465  28.6921005
   5.7226110  15.4876556  27.9430962   4.3736944  14.8008308  28.9699574
   4.0391436  16.7504845  28.0846004   4.7298584  17.5600872  27.8488941
   3.6963887  16.5079784  27.0787106   3.0227964  17.1532040  29.0639305
   2.3358438  17.7442856  28.6180401   2.6516330  16.3428898  29.5390434
   3.3932729  17.7871571  29.7574368   6.4283667  15.6566820  32.7452240
   6.5420303  16.6612396  33.4898605   5.5531111  14.6580572  33.0839386
   5.5611992  13.8970976  32.4198761   4.5476809  14.6904917  34.2240601
   3.8088024  15.4716129  34.0451508   3.7700343  13.4092875  34.2345963
   4.5090342  12.6106939  34.1695671   3.1201282  13.2922621  35.1017876
   2.8050981  13.1276836  33.0621033   1.9949230  13.8561573  33.0942841
   3.2489979  13.2553825  32.0748100   2.2131629  11.7287912  32.9725571
   2.5043335  10.8564682  33.7107315   1.3896055  11.4112988  31.9816170
   0.9909152  12.1025467  31.3624878   1.0908625  10.4475050  32.0258217
   5.1451263  14.9778509  35.5946274   4.4292259  15.6660404  36.3596992
   6.4389896  14.6282635  35.8573494   6.9650607  14.1473141  35.1417809
   7.1537070  14.8443537  37.1599274   6.5102983  14.5758991  37.9978180
   8.3751841  13.8441496  37.2662811   7.8981609  12.8690720  37.1674232
   8.9211130  13.9916954  36.3344574   9.2612333  14.0839558  38.5018272
   9.2974968  15.1671438  38.6179695   8.6071882  13.5706654  39.7695007
   8.4741640  12.5079212  39.5670700   9.2024870  13.6778336  40.6762695
   7.6450830  14.0096483  40.0335960  10.6966715  13.4652433  38.4164009
  10.6842604  12.4201622  38.1069641  11.2092657  14.0073414  37.6217384
  11.1914101  13.4507294  39.3875427   7.5790358  16.3343182  37.2040939
   7.3172374  17.0244541  38.2420311   8.1876774  16.8338928  36.1592751
   8.0700235  16.3402119  35.2860413   8.7443008  18.1928596  35.9852943
   9.4266758  18.4290314  36.8018074   9.5394020  18.3379879  34.6283531
   8.8925428  18.1017056  33.7834587   9.8150282  19.3862572  34.5131989
  10.7947531  17.4230824  34.5181236  10.6353245  16.4038830  34.8701363
  11.1881256  17.3363228  33.0302315  10.5035181  16.7143879  32.4535141
  11.3550148  18.3269119  32.6071701  12.1547537  16.8467751  32.9115982
  11.9540529  17.9953651  35.3748093  12.1636248  18.9918404  34.9859276
  11.6432781  18.0471821  36.4182816  12.8642912  17.4076786  35.2556839
   7.5811644  19.1881371  36.0835381   7.6570315  20.1351280  36.8734512
   6.4702015  18.8551044  35.4309120   6.5397391  17.9826450  34.9268494
   5.2488823  19.7173290  35.4093208   5.4493890  20.7429810  35.0995903
   4.2640305  19.1122818  34.4428711   4.1568813  18.0382328  34.5946503
   3.3555248  19.6018677  34.7936287   4.4712796  19.4516716  32.9544296
   5.5178566  19.3296375  32.6753540   3.8914254  18.7524719  32.3519363
   4.0521483  20.8576965  32.6095276   3.6256211  21.6221485  33.5189896
   4.1266565  21.1623096  31.4223137   4.6011448  19.8461609  36.8016891
   4.1659069  20.9275036  37.1696625   4.4420819  18.6880398  37.5110092
   4.8843808  17.8593693  37.1398201   3.9528654  18.7382030  38.8776855
   3.0049956  19.2763729  38.8818054   3.5638063  17.3009472  39.3763275
   2.8241904  16.8511486  38.7139473   4.4607377  16.6920471  39.4897041
   2.9750323  17.2848473  40.7848282   3.6711411  17.6267834  41.5507355
   2.1268377  17.9682713  40.7448463   2.4124320  15.9413862  41.1520348
   2.0006633  15.4370184  40.2778664   3.2240071  15.3901892  41.6270370
   1.3218728  15.9586124  42.2567253   1.0927322  14.9048386  42.4153328
   1.8034322  16.3784809  43.1398506   0.0755062  16.6772728  42.0485611
  -0.4238448  16.2790070  41.2661705  -0.3504582  16.5672836  42.9577141
   0.2980695  17.6423931  41.8507996   4.8356776  19.5331497  39.8746719
   4.3026538  20.1851921  40.7207527   6.1714830  19.5333786  39.7140694
   6.4474244  18.9786301  38.9164391   7.1234469  20.1629620  40.6081276
   6.9025536  20.0246716  41.6665154   8.5618935  19.6207218  40.2936516
   8.6258631  19.6764221  39.2069550   9.7063503  20.4726734  40.8300476
  10.6508522  20.2724895  40.3241425   9.6063938  21.5441761  40.6568680
   9.8840818  20.3526020  41.8987389   8.7946196  18.1902924  40.7398834
   8.9617796  18.1897545  41.8169899   7.8917427  17.5924778  40.6152306
   9.9979639  17.5431480  40.0656662   9.9670801  17.7733536  39.0006981
  10.8699980  17.9403172  40.5851974   9.9420729  16.4985352  40.3718758
   7.0539398  21.6799698  40.4170074   7.0785317  22.4695759  41.4010620
   7.0267806  22.1754379  39.1659203   7.0855794  21.4811764  38.4347267
   6.9030175  23.5940151  38.7849579   7.7173409  24.1843357  39.2050896
   7.1375809  23.6483498  37.2655869   6.6703181  22.7644501  36.8314323
   6.5181699  24.9012890  36.5770187   5.4325185  24.8658028  36.6676140
   6.7971802  25.8276405  37.0791435   6.8100138  24.8785686  35.5270615
   8.6804132  23.6506786  37.0385361   8.9972954  24.6923885  37.0888214
   9.2789707  23.1858711  37.8219795   9.1283169  23.0394020  35.7137260
   8.6876278  23.5439377  34.8538780  10.2065039  22.8858471  35.6686249
   8.7247419  22.0339642  35.5940514   5.5108652  24.1541100  39.2624931
   5.4111128  25.1689701  40.0037384   4.4354177  23.3872700  39.0833015
   4.5024586  22.5265751  38.5590706   3.0469234  23.6938534  39.5270081
   2.6530828  24.6216679  39.1120987   2.1419401  22.5067062  38.9375114
   2.1166413  22.3982639  37.8532143   2.6383355  21.5792046  39.2228699
   0.7639873  22.3735275  39.5871239   0.1692295  21.5888405  39.1195450
   0.8697743  22.1650028  40.6517525  -0.0465462  23.6473255  39.5561752
  -1.0207016  23.9002171  40.3092117   0.2578739  24.5292873  38.7404175
   2.9968283  23.7436867  41.0337105   2.3995829  24.6279049  41.6186104
   3.7131011  22.8473816  41.7822571   4.1390309  22.1471691  41.1920166
   3.7201626  22.7763023  43.2281532   2.7152140  22.9818974  43.5968132
   4.0640574  21.3613167  43.6811981   3.3883405  20.7184734  43.1170540
   5.0362659  21.0953751  43.2662430   3.9880879  20.9314480  45.1800804
   4.5652494  20.0067940  45.1796379   4.5565710  21.6623383  45.7551689
   2.6627798  20.6183891  45.7480507   2.4009037  19.6172104  46.4746323
   1.8965372  21.5968323  45.5639153   4.5411458  23.8230324  43.9003067
   4.1373777  24.4538898  44.8378754   5.7373962  24.0760841  43.3680420
   6.0097156  23.5443439  42.5536728   6.6963058  25.0309181  43.8823318
   6.3461995  25.2039337  44.8999748   8.1131916  24.3966103  43.8170204
   8.4162836  24.1060486  42.8111305   8.9477386  25.0729809  44.0018311
   8.2287855  23.1626034  44.7062912   8.5630331  23.2726994  45.8819466
   8.0907354  21.9790726  44.2181625   8.0644217  21.1811371  44.8367958
   7.8518848  21.8881798  43.2410278   6.6442876  26.3809662  43.2236443
   7.3932180  27.3351002  43.5618172   5.5517321  26.5954075  42.4214020
   4.9930859  25.8133678  42.1108742   5.1039720  27.9288368  41.9860382
   4.1689620  27.6927967  41.4779625   4.7738814  28.8073616  43.1699448
   5.7088890  29.1316338  43.6267891   4.1613708  29.5992985  42.7389221
   3.9275260  28.1701908  44.2569389   2.6229277  27.7140083  44.0782928
   2.0301051  27.7567043  43.2616920   2.2095332  27.1721230  45.2185097
   1.3044980  26.6026821  45.3703232   3.1736372  27.3046761  46.1575165
   3.2043245  26.8702374  47.0687904   4.2169147  28.0307293  45.6003113
   5.1804810  28.2574520  46.0322113   5.9829702  28.5141163  40.8850021
   5.9583569  29.7078781  40.6066132   6.8330674  27.6921864  40.2451057
   6.8588943  26.7330265  40.5604515   7.9831820  28.0591240  39.3586731
   8.5875750  28.8534184  39.7967415   8.8436203  26.7872410  39.2313766
   8.3304710  26.1336803  38.5259476  10.2360315  27.0877895  38.6671181
  10.8280239  27.7811108  39.2645683  10.8395061  26.1877193  38.5496750
  10.1879702  27.5480881  37.6802444   9.0449648  26.0658016  40.4539642
   9.5455904  26.6279831  41.0497208   7.4671040  28.5630207  38.0410805
   6.3965430  28.2655201  37.5115471   8.2573900  29.4774323  37.5882339
   9.0822725  29.7079391  38.1235237   8.1553326  29.9307003  36.1648979
   7.3603058  29.4615555  35.5853004   7.6193852  31.4338398  36.2045441
   7.4260969  31.7415066  35.1768837   6.6820245  31.2778378  36.7385063
   8.5620489  32.4132996  36.8907318   8.5040665  32.0187302  37.9051552
   9.6142540  32.3963623  36.6066856   8.0306015  33.8772583  36.7767220
   8.0958548  34.1825142  35.7323723   7.0081339  33.8965073  37.1539345
   8.8706799  34.8014107  37.6486931   9.9299698  34.6535683  37.4385757
   8.7392797  35.8640862  37.4448433   8.7918434  34.5621262  39.1114693
   7.8669243  34.5442390  39.5168152   9.3066912  33.7310905  39.3652802
   9.2296076  35.3608818  39.5478745   9.5917635  29.9044838  35.5261269
  10.5440731  30.0267105  36.2767982   9.7381182  29.7154465  34.1939774
   8.7005835  29.4831009  33.1641731   8.2054663  30.4405403  33.0020790
   7.9330463  28.8276367  33.5756989   9.3513002  28.9867210  31.8779678
   8.9732122  29.5985222  31.0589161   9.1128407  27.9379501  31.7009945
  10.8053579  29.2084808  32.0614815  11.0899324  30.0872478  31.4827919
  11.4533701  28.4307480  31.6573582  11.0630407  29.3585358  33.6056976
  11.4335537  28.4471989  34.0750427  12.2069283  30.2788029  33.9083557
  13.3307772  29.8208141  34.2729034  11.9543133  31.6195068  33.8860779
  11.0040970  31.8926430  33.6797104  12.9851961  32.6192741  34.1639442
  13.8316689  32.5279427  33.4833260  12.4765520  34.0532074  33.8250389
  12.0376053  34.1229973  32.8297729  11.7558546  34.2709351  34.6132622
  13.5626411  35.1577644  33.9585571  14.0485840  35.2099419  34.9328461
  14.3257647  34.9345589  33.2129593  12.9119101  36.4858322  33.7528992
  11.8916016  36.6008949  33.0259705  13.5294600  37.4337234  34.3101768
  13.6390705  32.5099945  35.5355339  14.7533274  32.8944435  35.7147980
  13.0341291  31.9354210  36.5440254  12.1320000  31.5280857  36.3431702
  13.5702953  31.8706284  37.9212646  14.0317669  32.8401909  38.1085892
  12.5153627  31.5582142  38.9725571  11.9658308  30.6570568  38.7004776
  13.0431242  31.4310856  39.9177628  11.5642042  32.7142525  39.1101418
  10.6022844  32.5364799  39.8681107  11.8720169  33.8560181  38.6171341
  14.8025885  30.8590717  38.0395508  15.5959015  30.8460464  38.9594765
  14.9284105  29.9761066  37.0677223  14.3830862  30.1640377  36.2386246
  15.8030767  28.7448959  37.1272736  15.8629122  28.4832058  38.1837044
  15.0765514  27.5980396  36.4043655  14.7969799  27.8841324  35.3904190
  16.0063896  26.3625374  36.2884293  16.9275837  26.5309830  35.7306442
  16.1765862  25.9374466  37.2775841  15.4635525  25.5850010  35.7509689
  13.8219004  27.1032658  37.1643219  13.2729769  26.2986660  36.6750374
  14.1570549  26.8288803  38.1645660  13.0795479  27.8886852  37.3062019
  17.2799664  29.0424595  36.7131577  17.5451584  29.4754333  35.5988770
  18.2758255  28.7756252  37.5647888  17.9342537  28.4680328  38.4641304
  19.7343655  28.7430878  37.2465172  19.9604626  29.6537743  36.6918716
  20.6172867  28.5721607  38.4972305  20.3822212  27.5891018  38.9052086
  22.1057491  28.5109425  38.3133163  22.3559113  27.7993069  37.5264931
  22.4856567  29.5151100  38.1251183  22.5418968  28.0017776  39.1727524
  20.4436913  29.6797066  39.4923706  20.9116173  29.5574512  40.4692001
  20.7393780  30.6483822  39.0894623  19.3773499  29.7231045  39.7140312
  19.9997883  27.4831104  36.3421593  20.5868568  27.6761780  35.2239647
  19.5305462  26.3437557  36.7511635  18.8923607  26.2914448  37.5322418
  19.9247837  25.1017227  36.1191788  19.8932686  25.2348442  35.0377998
  21.3787327  24.6877899  36.4859581  21.7552376  23.7774258  36.0195045
  22.0094795  25.5272827  36.1935310  21.4869022  24.4403458  38.0116158
  21.1519432  25.3013840  38.5899887  20.7843342  23.6529579  38.2845955
  22.8287315  23.8617744  38.3621559  23.8175831  23.8624516  37.5930977
  22.8889332  23.4559784  39.6032181  23.7916031  23.1876450  39.9683037
  22.0912323  23.5460854  40.2161255  18.9253502  23.8941174  36.4185295
  18.1986961  23.9848728  37.4442673  19.0375957  22.7307777  35.7163963
  19.4772129  22.8157825  34.8110733  18.2645702  21.4850845  36.0424690
  18.0241585  21.4013481  37.1023254  16.9022903  21.4552174  35.2728348
  16.5299568  22.4715462  35.1442070  17.1568851  21.0790615  34.2819824
  15.7762318  20.5600433  35.8245583  16.0552921  19.5089455  35.8981552
  15.5231991  20.9275551  36.8190536  14.3434544  20.6238003  34.7377853
  13.6154242  22.2768345  35.0216751  14.2231960  23.1457119  34.7691460
  12.6500177  22.3763123  34.5254936  13.3997240  22.3452034  36.0879326
  19.1548672  20.2556419  35.7739677  19.6981773  20.1618233  34.6755447
  19.2257710  19.3312092  36.7783661  18.7391129  19.4342899  37.6573677
  19.9891376  18.0854950  36.7226791  20.5799904  18.0472870  35.8075104
  20.8688564  17.9216061  37.9865379  20.3650284  17.5805492  38.8909378
  21.6424255  17.2116737  37.6938248  21.6968536  19.1688633  38.3189659
  20.9378414  19.9252548  38.5186539  22.5106449  18.8986835  39.5595360
  23.3471546  18.2455406  39.3110237  22.9045563  19.8991776  39.7382889
  21.8872662  18.4615993  40.3395729  22.6968899  19.5684185  37.2124138
  22.2363815  19.6071606  36.2252312  23.0239048  20.5914936  37.3980980
  23.6396236  19.0265598  37.2881889  19.0458488  17.0077057  36.5643005
  18.1122780  16.9701843  37.3874779  19.2406006  16.1371975  35.5818634
  19.9461269  16.3664150  34.8964500  18.3575420  14.9521294  35.4174957
  17.5797081  14.9460268  36.1810684  17.5252972  15.1804876  34.1687660
  18.1983433  15.0044107  33.3296547  16.8473835  14.3296089  34.2361259
  16.8144417  16.4882698  33.9555092  16.6426125  17.0482635  34.8747368
  17.5296535  17.4909077  32.9527168  18.3920155  17.9634380  33.4229774
  17.8384228  16.9811535  32.0400734  16.9481544  18.3828926  32.7196465
  15.3852081  16.0967388  33.3828049  15.5065613  15.6516542  32.3952446
  14.8229837  15.3832331  33.9852295  14.7687702  16.9943619  33.3340416
  19.2302380  13.6734619  35.5444908  20.4222660  13.6892290  35.3061562
  18.6546879  12.5141640  35.7268524  17.6910648  12.4708567  36.0262756
  19.4933796  11.2448025  35.7869530  20.1838741  11.2547522  34.9436150
  20.1468105  11.1760473  37.2498322  20.6536484  12.1303072  37.3933716
  19.3901291  11.0509663  38.0243645  21.0112820  10.0514450  37.4198647
  21.6547680  10.1862211  36.7203217  18.5948601  10.0036306  35.7299538
  17.3964710  10.1477413  36.1153946  19.0886421   8.8588715  35.1642113
  20.0866146   8.8543644  35.0088692  18.4427834   7.5616126  35.4227524
  17.7551956   7.7377615  36.2499733  17.6814156   7.2183776  34.1521759
  18.4371204   6.9291387  33.4218674  16.9075947   6.5008230  34.4249802
  17.2809486   8.1718645  33.8078079  19.4801674   6.5149851  35.8661499
  20.7109222   6.6901693  35.7368965  18.9336338   5.3234258  36.2613182
  17.9337959   5.1805849  36.2568703  19.6568832   4.0913920  36.6554451
  20.4204025   4.3810534  37.3774109  18.6737957   3.1207261  37.3330841
  18.9443951   2.0753284  37.1846962  18.5506592   3.3174956  38.8075638
  18.1816025   4.3325772  38.9542427  17.7996979   2.6066759  39.1523743
  19.4834881   3.1532912  39.3469772  17.3202629   3.1927352  36.8570328
  17.2573833   2.4842117  36.2123299  20.2949543   3.4197299  35.4853935
  19.7909927   3.4303420  34.3579292  21.3707752   2.6847422  35.6735153
  22.0697231   2.4777145  36.9410515  21.7351303   1.5377451  37.3799171
  21.8922863   3.2890239  37.6470184  23.5013237   2.2549415  36.6055069
  24.1071873   1.7041730  37.3250084  23.9086418   3.2267404  36.3265839
  23.3919430   1.4102360  35.3242683  23.2403011   0.3371674  35.4410095
  24.2042122   1.5117623  34.6045341  22.2353745   2.0127978  34.6054306
  22.5072765   2.7642055  33.8641090  21.4638176   1.0352987  33.6511040
  22.0118904   0.6297501  32.6121140  20.2712994   0.6207463  34.0840912
  19.9445076   0.9511588  34.9808273  19.3821945  -0.2941583  33.3321266
  19.9894657  -1.0471280  32.8297729  18.2842693  -0.8740236  34.2380180
  17.5367489  -1.2925808  33.5641327  18.6639977  -1.7951889  34.6800232
  17.7414551  -0.0236968  35.3519363  17.6894264   1.2244550  35.1896172
  17.5114555  -0.5756208  36.4598007  18.7751656   0.3608432  32.0854492
  18.5629501  -0.3335636  31.1203651  18.5502052   1.6494213  32.1051636
  18.9418926   2.1071870  32.9157982  17.7850418   2.3691821  31.0964680
  17.1547546   1.6497629  30.5737000  16.9302692   3.5059814  31.7983131
  17.6059837   4.1995173  32.2988281  16.4438915   4.0695009  31.0020790
  15.8299408   3.0334289  32.8237610  16.4293232   2.6773484  33.6616440
  14.8647137   4.1320562  33.2165909  14.2479515   3.7619262  34.0355568
  15.4395714   5.0221529  33.4722633  14.2291384   4.3336301  32.3543205
  15.0615063   1.8459916  32.3245544  14.2518988   1.7014320  33.0399132
  14.7593775   1.9620723  31.2837143  15.6341429   0.9282322  32.4583588
  18.7208309   2.9022503  29.9965172  19.5812435   3.7463224  30.3064651
  18.3491840   2.5114350  28.7599564  17.4525948   2.0694370  28.6154976
  19.1718197   3.0016282  27.6407413  19.7997150   3.8134668  28.0078602
  20.0847187   1.9211426  27.1460514  19.4804363   1.1444153  26.6773949
  20.7709179   2.3501177  26.4158382  20.8570061   1.2499219  28.1817188
  22.1254768   1.6121627  28.6131897  22.7121868   2.3605938  28.2730083
  22.5743637   0.7369368  29.5710583  23.5519600   0.6925025  30.0279293
  21.6950188  -0.2832174  29.6286011  21.9613247  -1.1261743  30.1170750
  20.6142883   0.0389933  28.8116474  19.6183109  -0.3783836  28.7964039
  18.3822155   3.6908050  26.5061531  18.9750938   4.1692429  25.5589027
  17.0280247   3.7263734  26.5124798  16.4766979   3.2380929  27.2036533
  16.3156910   4.2545986  25.3289909  16.5729179   3.5743523  24.5170784
  14.8359175   4.0514855  25.6180820  14.5772467   4.9194679  26.2245426
  14.2996445   3.9574199  24.6738033  14.7578354   3.1182470  26.1758213
  16.5707550   5.7053313  25.0106945  16.6353493   5.9628391  23.8497295
  16.8340359   6.5743475  25.9839249  16.7547474   6.2395811  26.9335270
  17.0293217   8.0414791  25.7015476  17.6250553   8.1840153  24.7999420
  15.5324602   8.5285282  25.5926476  15.0572319   7.9999547  24.7662888
  14.6669807   8.3975544  26.8978729  13.7828178   9.0330458  26.9478531
  14.3614149   7.3552227  26.9888420  15.3189306   8.7963772  27.6750488
  15.3810091   9.9271746  25.0724678  15.5470772  10.5782537  25.9307308
  16.0795422  10.1442051  24.2643528  14.3746939  10.0934906  24.6880589
  17.7021751   8.7970600  26.9154301  17.6507339   8.2791300  28.0638580
  18.1820087   9.9911003  26.6912994  18.1568527  10.2832069  25.7247906
  18.5556316  10.9907198  27.7710361  19.0935497  10.4098167  28.5202312
  19.5914993  11.9944410  27.1681995  19.2504215  12.4877863  26.2580471
  19.7787285  12.7298079  27.9506836  20.9756756  11.4639225  26.7719593
  21.9619675  11.1718798  27.7125416  21.7994595  11.3256187  28.7691231
  23.2044353  10.7780647  27.3548832  23.9346066  10.5938063  28.1290264
  23.5277843  10.4405575  26.0395031  24.5294666  10.2485189  25.6843262
  22.5534115  10.7399359  25.0693436  22.9009018  10.7510300  24.0468311
  21.2911701  11.2360725  25.4536591  20.6277733  11.5160818  24.6487370
  17.2706833  11.7876759  28.3399105  16.6417713  12.4032087  27.5095348
  16.9912014  11.7479153  29.6613159  17.4945965  10.7338343  30.5674438
  18.4538841  11.0421877  30.9831238  17.5238342   9.7199965  30.1682186
  16.5094757  10.8661261  31.7434940  17.0315609  10.7342339  32.6911926
  15.7552595  10.1052494  31.5426922  15.9354162  12.2063313  31.6934223
  16.6567154  12.9276705  32.0774765  14.9718895  12.3375187  32.1858711
  15.7920933  12.3852272  30.2151642  14.8861551  11.8405380  29.9492893
  15.6451464  13.8738899  29.9554348  14.4901981  14.3039694  29.9414597
  16.7424831  14.6504450  29.6959457  17.6598167  14.2288961  29.6660099
  16.6128063  16.0753689  29.2056637  16.1023102  16.6990623  29.9394913
  18.0380764  16.6259155  29.0352898  18.6214485  15.9247751  28.4384823
  17.9973850  17.5846424  28.5182953  18.6389809  16.8301773  29.9214611
  15.9118280  16.2428646  27.8947315  15.3065910  17.2850971  27.6394939
  15.7536402  15.2906170  27.0363026  16.3481178  14.4754343  27.0829372
  14.8019505  15.2811737  25.8972130  14.9922991  16.1474934  25.2636833
  15.0474882  13.9574289  25.1785374  16.1251144  13.9735975  25.0155697
  14.8191433  13.0863762  25.7927246  14.3167791  13.9595318  23.8661766
  13.3012781  13.5900869  24.0088959  14.4110708  14.9493427  23.4195404
  15.0555754  12.9673834  22.8893089  16.1252861  13.1753883  22.8657551
  14.8644934  11.9284744  23.1581154  14.4963017  13.3461485  21.5031128
  13.4624329  13.0027132  21.5387344  14.5413151  14.4227657  21.3388958
  15.2819223  12.7809963  20.3954315  14.7649593  12.8583612  19.5312138
  16.1531372  13.2284126  20.1486435  15.4029236  11.7833109  20.4958401
  13.3353090  15.5451813  26.3204613  12.6476164  16.0972004  25.4789238
  12.9373522  15.3693247  27.6004295  13.5799656  15.0006733  28.2869015
  11.5889750  15.7650738  28.0401611  10.8780231  15.5744114  27.2362347
  11.2762260  14.8498058  29.2817516  10.2388229  15.1251450  29.4717159
  11.4817667  13.8203859  28.9882412  11.8644552  15.1198435  30.1587734
  11.3191700  17.2687778  28.4017315  10.1707745  17.7233543  28.3974342
  12.2895336  18.0444107  28.8433037  13.2009192  17.6093807  28.8283386
  12.3113241  19.4445629  29.3169212  11.4538755  19.4482861  29.9898834
  13.6115818  19.9929962  30.0297756  14.4253731  20.0575943  29.3075085
  13.3097486  21.3622627  30.5201797  12.3908119  21.3399849  31.1059837
  14.1090250  21.8443298  31.0830898  13.1057806  22.0029087  29.6622334
  14.0522757  18.9971924  31.1057110  14.9814157  19.3831081  31.5250778
  13.2711029  18.9168987  31.8616352  14.3443203  18.0779667  30.5979385
  11.8000917  20.3742714  28.1782455  10.9940386  21.2997570  28.4256153
  12.1965170  20.0720997  26.9574127  12.7168617  19.2103977  26.8748207
  11.8275681  20.7126751  25.7025337  11.9472294  21.7956276  25.7340965
  12.5241079  19.9643726  24.5165119  12.4693651  18.8929787  24.7094440
  12.0050497  20.2012615  23.5877686  13.9940310  20.3995667  24.3670120
  13.8725224  21.4823074  24.3987427  14.4613400  20.1282387  25.3136387
  14.7741156  19.8748665  23.1442928  14.5063896  18.8308125  22.9818916
  14.4593048  20.4098225  22.2482872  16.2706547  19.9511909  23.3231335
  16.6562519  20.4079838  24.1372318  17.1716118  19.4226933  22.4779701
  16.7991886  18.8643818  21.3388767  15.8353710  18.5794563  21.2390022
  17.4953079  18.6421375  20.6416473  18.4315166  19.6408424  22.6309452
  19.0991039  19.4480209  21.8979759  18.8896313  19.8719673  23.5008945
  10.2780504  20.6947727  25.5046463   9.7648859  21.4507275  24.7045841
   9.5971661  19.7381878  26.1149578  10.0376520  19.0706120  26.7317352
   8.1269550  19.4375057  25.8933601   7.8987312  19.8240452  24.9000835
   7.9625816  17.8353348  25.8994274   8.2194080  17.4595661  26.8898506
   6.9563613  17.5301876  25.6121845   8.9871731  17.1532249  24.9595699
  10.0131826  17.4112148  25.2219563   9.0295267  16.0667515  25.0362415
   8.6851425  17.4720821  23.5445557   9.5824881  17.7089195  22.7034950
   7.5187173  17.4179211  23.0920563   7.2442346  20.0774364  26.9964771
   6.1095366  19.6749554  27.2054806   7.7974925  21.0579262  27.7061996
   8.7813053  21.1921196  27.5212517   7.1055150  21.9152679  28.6640530
   6.0588274  21.6361713  28.7851181   7.7465148  21.9108734  30.1167965
   8.8103943  22.1355572  30.0407810   7.2545333  22.6862488  30.7040367
   7.6090117  20.5824413  30.9382038   6.5810542  20.2214088  30.9056664
   8.7532444  19.6658459  30.6161060   9.6950817  20.1290684  30.9101429
   8.4864779  18.7705021  31.1776199   8.6720257  19.5081444  29.5406380
   7.9393468  20.9516354  32.4238129   8.9096918  21.4400406  32.5131760
   7.1888070  21.7081413  32.6529198   7.9004574  20.0464878  33.0298576
   7.1111288  23.3296890  28.0162525   8.1153326  23.5440998  27.3307590
   6.0484729  24.2100449  28.1229267   5.2790833  23.9817715  28.7361393
   5.9563870  25.4784260  27.4246216   6.2683887  25.3489704  26.3882790
   4.5035229  25.9756718  27.4355240   3.7099283  25.2715378  27.1855221
   4.3232427  26.3198109  28.4539433   4.4214063  27.0597401  26.5720787
   4.3291812  26.6271915  25.7200241   6.8573618  26.5317993  28.0377216
   6.8886657  26.7162018  29.2408047   7.6143646  27.2537537  27.1739845
   7.7173548  27.0384846  26.1925831   8.5873470  28.2431641  27.6821423
   8.9534740  28.8355179  26.8435917   8.1861391  28.9594231  28.3991566
   9.8770590  27.7367973  28.2409992  10.8841763  28.4535236  28.2624760
   9.8888025  26.5003433  28.7410355   8.9797020  26.0631409  28.6911488
  11.0333652  25.8735485  29.4182091  11.4220181  26.4727077  30.2416515
  10.4977474  24.5158978  29.9709911  10.0330877  23.8756924  29.2211056
  11.3435555  23.9290161  30.3291664   9.6516285  24.7811546  31.1673222
   8.3122816  25.0543785  31.2722340   7.5934129  25.0525284  30.4662399
   7.9947481  25.5606480  32.5014229   7.0813527  25.8557281  32.8156471
   9.1529160  25.6676884  33.2514076   9.4326792  26.1798515  34.5465279
   8.6407671  26.5986633  35.1497498  10.7100744  25.9945869  35.1041260
  10.9802809  26.4328671  36.0534935  11.6667986  25.1717892  34.4341011
  12.6187420  25.0257511  34.9228554  11.3712130  24.7129040  33.1305275
  12.1230984  24.1526756  32.5946045  10.1832228  25.0357685  32.4838638
  12.2682238  25.6899109  28.5293388  13.3709354  25.3226566  28.9776211
  12.2176075  25.8804798  27.1811810  11.3258142  26.1711445  26.8065910
  13.2587624  25.5526180  26.2020645  13.4645405  24.4931335  26.3545380
  12.7903309  25.6685257  24.7137547  13.6393909  25.4643841  24.0614319
  12.0195847  24.9153976  24.5498600  12.2483845  27.0915318  24.3352108
  11.4163322  27.3535061  24.9887848  12.9424362  27.8917885  24.5920792
  11.7573185  27.2205486  22.8834915  12.1013622  26.4694023  21.9826870
  10.7922974  28.1321583  22.7109661  10.5477467  28.7056427  23.5055790
  10.4763184  28.4214554  21.7963276  14.6197224  26.3204613  26.3687458
  15.6491537  25.7207794  26.0831890  14.6632633  27.4678707  27.0384617
  13.7965059  27.8383141  27.4012356  15.9089870  28.1986713  27.3662243
  16.6759872  28.0505695  26.6060429  15.5352192  29.7431488  27.2684555
  14.9529476  29.9870872  28.1570244  16.4395390  30.3283653  27.4352779
  14.7131777  30.1481800  26.0151882  15.3000231  30.3478298  24.7253780
  16.3435688  30.0917435  24.6166058  14.5242767  30.6543674  23.5963078
  14.8472137  30.4937801  22.5783081  13.1776342  30.8996754  23.8317451
  12.4165287  31.2461929  22.7159576  12.8947668  31.0234280  21.9139194
  12.5286779  30.8122292  25.0967941  11.4654016  30.9981232  25.1327515
  13.3154974  30.3554916  26.1744156  12.8683643  30.2492599  27.1517525
  16.4955387  27.8552742  28.7335796  17.6536808  28.3034954  28.9779034
  15.8396721  27.0830002  29.6549454  14.8861189  26.7818146  29.5130882
  16.5486832  26.7080803  30.8815002  16.9490452  27.6153660  31.3338776
  15.6505909  25.8758183  31.9244194  15.2137661  24.9897823  31.4637413
  16.4086151  25.1885738  33.1136398  15.6504135  24.6842613  33.7127151
  17.1203480  24.4310627  32.7854424  16.8551941  25.9888954  33.7036896
  14.6180248  26.8083248  32.4679565  14.1151381  26.1824493  33.2051735
  15.1165476  27.6373100  32.9703102  13.9024477  27.1965237  31.7431393
  17.7252369  25.7750893  30.4995670  17.5353756  24.9309158  29.6268482
  18.8865795  25.8709564  31.1746349  19.3582802  26.8049088  32.1586342
  18.8032780  26.6490955  33.0837288  19.1085205  27.8341522  31.9009895
  20.8838291  26.5918751  32.3078461  21.1416168  26.0962963  33.2438240
  21.3647308  27.5681686  32.3685455  21.3395882  25.8035622  31.0493507
  22.2289581  25.2358627  31.3229256  21.4867802  26.5078030  30.2305222
  20.0432434  24.9956570  30.8505592  19.9712315  24.7162552  29.7994404
  19.8603325  23.7580471  31.7047710  19.6679802  23.7270355  32.9162102
  20.0369549  22.7140045  30.9738846  20.3604355  22.8385887  30.0252323
  19.7908955  21.3718472  31.4263535  19.6150513  21.4321404  32.5003891
  18.4480972  20.7722664  30.8610325  18.3401909  19.7877560  31.3162212
  17.2230682  21.5846882  31.2193909  17.1581421  21.7342300  32.2971344
  17.3527908  22.5520935  30.7342129  16.3512535  21.0609264  30.8273277
  18.5900040  20.5519009  29.3340836  18.7384815  21.5054951  28.8274136
  19.3260956  19.8237705  28.9933548  17.6301155  20.1104164  29.0661144
  20.9958630  20.4151936  31.3127918  21.8022385  20.5593872  30.3901367
  21.0714149  19.3622894  32.1253052  20.3959808  19.3336143  32.8756828
  22.0235386  18.2182903  31.8786545  22.0490894  18.0611629  30.8003407
  23.4857559  18.6444016  32.2730904  23.8410969  19.4632511  31.6475353
  23.7690811  18.8583279  33.7283211  24.8177490  19.0978508  33.9044571
  23.1599312  19.7078037  34.0372314  23.4440174  17.9779205  34.2826881
  24.3109493  17.5442886  32.0342827  24.0367622  16.8293705  32.6133461
  21.5396099  16.9372902  32.5729752  20.9013062  17.0355854  33.6124916
  21.7838211  15.7991276  31.9138794  22.2741737  15.8908529  31.0356750
  21.6678829  14.4484091  32.4793777  20.9431210  14.3687010  33.2896042
  21.2395592  13.4044685  31.4556255  22.0945721  13.2388468  30.8001690
  20.9109859  12.5173655  31.9970932  20.0094719  14.0033188  30.2924805
  20.8359051  14.8866787  29.7254009  23.0560379  14.0256672  33.0846939
  24.1475468  14.5387821  32.6986656  22.9245548  13.0481339  33.9801178
  21.9942894  12.8105774  34.2936058  24.0605907  12.3087797  34.5982895
  24.8964005  12.2945232  33.8987808  24.5668316  12.9848919  35.9083672
  25.3963127  12.4868202  36.4103508  25.0090504  13.9231758  35.5734596
  23.5451069  13.4029417  36.9962120  22.6219807  13.8092279  36.5828476
  23.3737030  12.4278507  37.4521942  24.0643082  14.5128565  38.3898277
  24.5843124  16.0278988  37.3705406  25.0913219  16.6633778  38.0966415
  25.2713280  15.7237797  36.5808449  23.7653294  16.6537457  37.0160217
  23.6380939  10.8044729  34.9215889  22.4676590  10.5377884  35.1912575
  24.5788307   9.8600979  34.9490738  25.5527725   9.9774055  34.7087135
  24.3245583   8.5448246  35.4497299  23.4049072   8.2316446  34.9554939
  25.5065784   7.6208568  35.0218239  25.7471161   7.8267741  33.9788284
  26.3998699   7.6986876  35.6415634  25.1258831   6.1544924  35.1902924
  26.0900879   5.6502209  35.1261215  24.6243114   5.8758845  36.1170654
  24.2327728   5.7106586  34.1073341  24.6958675   5.1281610  33.1268425
  22.9031677   5.8948765  34.1886520  22.2985020   5.5694437  33.4479942
  22.4089642   6.3759570  34.9265022  24.0438652   8.5296659  36.9493713
  24.5738430   9.3128128  37.7408180  23.1955166   7.6264749  37.4599533
  22.5810776   7.1382766  36.8241653  23.1545544   7.1717820  38.8644180
  22.9774704   8.0663109  39.4615440  22.0165195   6.1297283  38.8829079
  21.1520882   6.7077131  38.5561142  22.2384644   5.2925701  38.2210884
  21.7065182   5.6394324  40.3324585  21.4127846   4.5897641  40.3366547
  22.5553875   5.9061074  40.9620705  20.5139008   6.4591093  40.8132858
  20.7949047   7.4964719  41.4816628  19.3591270   6.0341473  40.8087234
  24.4836483   6.4836187  39.2611809  25.0347557   5.7744627  38.4678688
  24.9250355   6.6800652  40.4879913  24.3143253   7.1861658  41.1132889
  25.8619213   5.7076855  41.1525764  26.6557579   5.6333079  40.4093437
  26.2629986   6.3110914  42.5071068  26.8291779   7.2209463  42.3078461
  25.4278393   6.7867942  43.0212250  27.2365627   5.6034698  43.4321442
  26.8476219   4.6351380  43.7470398  28.0059452   5.4412260  42.6772728
  27.9131699   6.5360689  44.7910156  28.5417080   5.0726562  45.6255150
  29.1615696   5.4425287  46.4422607  27.6234570   4.5661120  45.9227180
  29.0444946   4.3494229  44.9834557  25.3006935   4.2781911  41.4350014
  24.1737938   4.1945662  41.9448395  26.0544605   3.1424031  41.1235161
  27.0189514   3.1740732  40.8254318  25.5870361   1.7566131  41.3746605
  24.5362720   1.6329710  41.1125374  26.2659988   0.8402802  40.4315643
  26.0999851   1.2283467  39.4266052  27.3268318   0.7777763  40.6741028
  25.6605949  -0.5910532  40.5650063  24.4303417  -0.7784936  40.8257561
  26.3960495  -1.5710140  40.2159691  25.6674232   1.3736925  42.8298111
  26.7629013   1.3089838  43.3282928  24.5402145   1.2539870  43.4587021
  23.6395130   1.4536395  43.0476303  24.4504871   0.9382403  44.8744812
  25.4427948   0.6607160  45.2300110  24.0484371   2.2334943  45.6872063
  23.1820316   2.7653091  45.2939949  23.7478848   1.8914275  47.1151085
  22.8277054   1.3257487  47.2613182  24.5613117   1.2647538  47.4807816
  23.4444981   2.7797954  47.6690559  25.1929531   3.2358737  45.6526909
  26.1413345   2.7260070  45.8221550  25.2353382   3.5632668  44.6138840
  24.9812565   4.0015664  46.3990135  23.5608654  -0.2494130  45.0590019
  22.6038322  -0.3746279  44.3541451  23.8853931  -1.0675397  46.0743141
  24.6067562  -0.8313301  46.7406006  23.2931004  -2.3546364  46.3838081
  23.3006840  -2.9707394  45.4846611  24.1523228  -3.0444381  47.3950043
  23.7323265  -3.9625695  47.8057938  25.6174335  -3.3784757  46.9195671
  26.1184921  -2.4744089  46.5735931  26.1525612  -3.7478261  47.7943916
  25.5294647  -4.2207046  46.2332611  24.4615974  -2.1924555  48.4908142
  24.6849670  -2.8093987  49.1915932  21.8333340  -2.3439877  46.7090187
  21.1145115  -3.2474031  46.2528038  21.3828812  -1.4339242  47.5350456
  22.0667629  -0.8912404  48.0428810  19.9092674  -1.3186054  47.7653809
  19.4194355  -2.2850740  47.6466141  19.6897163  -1.1106871  48.8125992
  19.1903381  -0.3379875  46.7615700  18.0141449  -0.0760688  46.9487343
  19.9677486   0.2394176  45.8044701  20.9426346  -0.0134470  45.7286072
  19.3872910   1.3359783  44.9811516  19.0436974   2.0841107  45.6955338
  20.1497135   1.8486079  44.3946152  18.3304100   0.8793100  44.0850716
  18.4161835  -0.0593229  43.2870560  17.2251205   1.5778589  44.1457672
  17.1383572   2.3245113  44.8203659  15.9939308   1.2953700  43.4030151
  15.5885363   0.2971791  43.5684547  14.9518299   2.2933207  43.8533363
  14.8841877   2.2657747  44.9408875  15.3917074   3.2817895  43.7208939
  13.5234232   2.2040455  43.2296867  13.6420336   2.0851772  42.1526985
  12.8870287   0.9375376  43.7232895  12.7144661   0.9762766  44.7988434
  11.9501419   0.7603582  43.1951294  13.5412045   0.0899799  43.5188408
  12.6439085   3.3788400  43.4692154  11.5774403   3.1865103  43.3519402
  12.9167280   3.8094881  44.4326515  12.9014292   4.1225858  42.7151413
  16.1430016   1.3586612  41.8747749  16.3067169   2.4555247  41.2907219
  16.0467854   0.1910616  41.2160988  16.0042477  -0.5998510  41.8427963
  15.9708500  -0.0265025  39.7217216  16.9000187   0.3814959  39.3238602
  15.6882353  -1.5421339  39.4410362  14.7927198  -1.9550773  39.9053955
  15.4424906  -1.7083362  38.3921852  16.9573460  -2.3068583  39.7365608
  17.8168125  -1.8980136  39.2052727  17.0183735  -2.0715342  40.7991028
  16.8900585  -3.8326225  39.5746613  16.1083965  -4.2598648  40.2028084
  16.8287182  -4.0472212  38.5077515  18.2057648  -4.4015894  40.1243591
  18.9846859  -3.8433073  39.6050301  18.2926712  -4.1827526  41.1886253
  18.4248943  -5.8198042  39.8918114  17.7002602  -6.4575820  40.1888657
  18.5451889  -5.9488049  38.8973274  19.2800770  -6.1736951  40.2961922
  14.9279299   0.7986194  39.0082016  13.8238935   1.1118793  39.5485954
  15.2700939   1.0145142  37.7466660  16.2213135   0.8360164  37.4578438
  14.4091902   1.5779221  36.6518250  15.0213346   1.8340521  35.7870789
  13.3521786   0.6093903  36.1707726  12.6782351   0.2713131  36.9579201
  12.7709541   1.0595466  35.3660126  13.8144531  -0.6913056  35.5650482
  14.4270077  -0.4968347  34.6846733  14.4447746  -1.2504975  36.2564926
  12.6618643  -1.5896837  35.1545067  12.1119328  -1.8197385  36.0670586
  12.0547962  -1.0705819  34.4128189  13.1211996  -2.8517177  34.5023727
  12.2085485  -3.2881339  34.0965271  13.8573437  -2.6479151  33.7247772
  13.7927818  -3.7029395  35.4385605  13.3412714  -3.8009176  36.3366890
  13.7883120  -4.6638308  35.1274757  14.7629375  -3.4714179  35.5976028
  13.7308416   2.9368446  36.9659920  12.4876909   3.1260159  36.9473228
  14.5632343   3.9197295  37.3023453  15.5335569   3.7615645  37.0709190
  14.2974901   5.1213541  38.0631943  13.2385044   5.3581262  37.9603004
  14.6684809   4.9227471  39.5245323  14.0969563   4.0286574  39.7736588
  15.7285957   4.6966257  39.6391296  14.1422329   6.3714066  40.5253716
  13.1491785   6.6750808  39.6848221  14.9948387   6.3877978  37.4772148
  16.1256752   6.2445207  36.9885750  14.2685070   7.5160651  37.3822403
  13.4014874   7.4503894  37.8961105  14.6900272   8.7739439  36.9914398
  15.6809044   8.6148520  36.5660515  13.6463871   9.3778181  35.9824867
  12.7089520   9.5661745  36.5057831  14.2028446  10.7709084  35.4597130
  13.5443106  11.2718058  34.7501030  14.3952942  11.4555798  36.2857208
  15.1054449  10.5289526  34.8985786  13.4135962   8.4701166  34.7251167
  13.4657822   9.0199995  33.7854347  14.2179060   7.7360873  34.6762619
  12.1116838   7.6690445  34.7900772  12.0575409   6.9871082  35.6386795
  11.2007198   8.2667446  34.8216896  11.9390907   7.0370970  33.9188919
  14.6996412   9.6906166  38.2757263  13.7109509   9.7669449  39.0764122
  15.7885389  10.5009613  38.3285904  16.4761734  10.3387938  37.6068153
  15.9533510  11.5376282  39.4154778  15.0272617  11.4794273  39.9873810
  17.0731163  11.1908627  40.4657288  17.9545040  11.3185120  39.8372688
  16.9854050  11.8819818  41.3040352  17.0258904   9.7630243  40.8998756
  15.9861631   9.4455061  40.9790077  17.4552593   9.0921488  40.1557884
  17.6954823   9.5122051  42.2097511  18.6397896  10.0540419  42.2626343
  16.9744568   9.9373894  42.9079208  18.0641098   8.1235600  42.4191322
  18.7180634   7.7364116  41.7538834  17.6751156   7.3559237  43.3597450
  16.9795895   7.6899276  44.4124794  16.8282337   6.9372916  45.0687828
  16.9598656   8.6619415  44.6861572  17.9962769   6.0877571  43.2761917
  17.7558689   5.4712634  44.0392380  18.5324440   5.8207932  42.4629555
  16.1282139  12.9740438  38.8717537  16.7208347  13.1499186  37.8455009
  15.6219463  13.9758949  39.5380020  14.9844103  13.8056393  40.3026314
  15.7983704  15.3492270  39.0356102  16.6766109  15.4444103  38.3970680
  14.6625004  15.8731289  38.1181259  15.1232214  16.6264381  37.4790955
  14.0303869  14.8666859  37.1509743  14.6542511  14.3913317  36.3940506
  13.6020575  14.1006708  37.7973900  13.2594213  15.4285240  36.6236610
  13.5435200  16.3931351  38.9431763  13.8934927  17.1093559  39.6865807
  12.7874479  16.9345818  38.3745880  13.1444950  15.5384407  39.4894142
  16.0905399  16.3168907  40.1692619  15.5604067  16.3015480  41.3206825
  16.9336376  17.2691956  39.8555679  17.1929550  17.4176159  38.8907738
  17.2466145  18.4591465  40.7752533  16.5131550  18.4600945  41.5815620
  18.6387749  18.2446404  41.4161263  18.5882702  17.4313583  42.1400871
  19.2711201  17.9656200  40.5732803  19.3884869  19.4471931  42.1313934
  20.4506989  19.2113495  42.1960487  19.3425236  20.3351784  41.5009422
  18.7379131  19.6195412  43.7818451  19.7282925  18.3886147  44.6274185
  20.7764969  18.6620274  44.5065308  19.4621124  18.3289719  45.6827354
  19.5930519  17.3915195  44.2083626  17.2215652  19.7526627  39.9256897
  18.1285572  20.0807800  39.2433968  16.1444912  20.4407425  39.9667854
  15.5979166  20.1443481  40.7627144  15.9493141  21.8686523  39.5130920
  16.3389759  22.1844501  38.5453415  14.4694042  22.1870785  39.4517441
  13.9707584  21.4566650  38.8146019  14.0508289  22.1030502  40.4546547
  14.1998558  23.6399136  38.9833374  14.7103338  24.4234238  39.5433617
  14.6495628  23.8267040  38.0081596  12.4120388  24.0122700  38.7481575
  11.7280416  24.1283360  40.4719162  12.1922989  23.3273277  41.0471992
  12.0016575  25.0931892  40.8988762  10.6389675  24.1600819  40.5036888
  16.6844368  22.8447113  40.4964981  16.8372231  22.5405159  41.7326088
  17.1963425  23.9596081  40.0577393  17.2994995  24.1214943  39.0661507
  17.7528515  24.9958496  40.9318390  17.5759830  24.8058071  41.9904709
  19.2888756  25.0656242  40.7714424  19.6015091  25.4337349  39.7942772
  19.9586983  25.9594975  41.7980881  19.9291706  26.9818554  41.4212494
  19.4614372  26.0557804  42.7632599  20.9936085  25.6818790  41.9980583
  19.8987198  23.8098240  40.9254723  20.2338047  23.7340336  41.8218956
  17.0593090  26.3277740  40.6099701  16.8247643  26.7110825  39.4903831
  16.6234760  27.0321140  41.6891670  16.7492867  26.7053642  42.6365318
  15.6771040  28.1648960  41.5361290  15.7875977  28.6548767  40.5687561
  14.2486801  27.6842308  41.4457664  14.3456440  26.8448467  40.7571907
  13.7479172  27.3356590  42.8088303  12.8786345  26.6862946  42.7050400
  14.5246153  26.8254414  43.3784943  13.4446840  28.2162876  43.3750801
  13.2911053  28.6799774  40.8444862  12.2745390  28.3211899  40.6833534
  13.3198128  29.6449947  41.3504677  13.5790138  28.8982906  39.8161163
  15.9004984  29.3662548  42.4877014  15.8851862  29.1483040  43.6952744
  15.7059393  30.5864067  42.0170097  16.0089264  30.7972775  41.0768852
  15.4239836  31.7223854  42.9013748  16.1072865  31.6572819  43.7481079
  15.7277966  32.9912987  42.0330200  16.7373562  32.9445610  41.6247253
  14.9838820  33.0019455  41.2364082  15.6844063  34.3126793  42.8374023
  15.4580107  35.1378288  42.1621475  14.7984886  34.2854767  43.4718437
  16.9876194  34.5695229  43.6002274  17.2154179  33.9213715  44.5566750
  17.7937946  35.5289459  43.2149925  18.4865341  35.8369637  43.8823318
  17.5393620  36.2558784  42.5615883  14.0363407  31.7888107  43.5323257
  13.0015869  31.6610317  42.8171043  13.9918804  31.7910500  44.8719788
  14.8280745  31.8238659  45.4374886  12.7512941  31.7132111  45.6307907
  12.0137024  32.2683067  45.0512009  12.3110294  30.2416649  45.7946510
  12.0409613  29.8169804  44.8277969  13.2675486  29.2991180  46.5805969
  14.2852011  29.6895809  46.5758362  12.8887377  29.1636066  47.5936279
  13.1569366  28.3238869  46.1064873  11.0344248  30.3011417  46.3906250
  10.6097832  29.4452286  46.4838676  12.9139929  32.4588051  46.8951111
  13.9633474  32.3966255  47.5688858  11.8260460  33.1205559  47.2426872
  10.9998960  33.0005150  46.6742096  11.6346016  33.6927567  48.5965500
  12.5726824  34.1589699  48.8978081  10.6454344  34.8578529  48.4528923
  10.9866428  35.4767609  47.6230507   9.6850405  34.3765945  48.2681389
  10.7281837  35.6963196  49.6707153   9.6692543  36.0443192  50.2001686
  11.8561220  35.9903488  50.2018013  11.0547276  32.6695213  49.6227417
  10.8964214  32.9769096  50.8153725  10.9461441  31.3587036  49.2516403
  11.2396908  31.1443462  48.3093147  10.4623270  30.2134018  50.0563545
   9.6852932  30.6124401  50.7083435   9.8176222  29.0907249  49.1632729
  10.5716400  28.8614197  48.4102974   9.3648310  27.8477325  49.9653740
   8.9345541  27.1169128  49.2806396  10.2420282  27.3426094  50.3696938
   8.6218538  28.0179768  50.7445412   8.5395880  29.6927109  48.4057579
   8.7845592  30.4425850  47.6535721   7.9206347  28.8701630  48.0474129
   7.8285675  30.1739521  49.0772972  11.5554647  29.6181698  50.9444313
  12.5928850  29.3604736  50.3417740  11.2886419  29.2941132  52.2801666
  10.1674519  29.7274914  53.0748901   9.3951750  28.9602909  53.0192986
   9.7733774  30.7071476  52.8045425  10.6101313  29.8213463  54.4995956
   9.7230034  29.5287857  55.0613098  11.0614252  30.8133373  54.5192795
  11.6243639  28.7092838  54.5510292  11.1636705  27.7266960  54.6529236
  12.2719450  28.9416637  55.3964539  12.2865677  28.6359043  53.1846886
  13.2256861  29.1833611  53.2649841  12.6056194  27.2454529  52.7517853
  11.7427130  26.4738884  52.2901306  13.8342247  26.8113117  53.1266327
  14.3717413  27.4590950  53.6848030  14.4443197  25.5075417  52.7407112
  14.6550217  25.4359722  51.6736641  15.7153492  25.4243355  53.5482445
  16.1832180  26.4050789  53.4625626  15.5424862  25.3501759  54.6218948
  16.6546211  24.2503204  52.9953728  16.2335110  23.2529430  53.1218948
  16.6324673  24.3784962  51.9131622  18.0795212  24.2275124  53.5406761
  18.2583942  23.8262215  54.6858940  19.1430378  24.6231651  52.9098778
  20.0402794  24.7264042  53.3619843  19.1410713  24.9045753  51.9398727
  13.5428257  24.2404099  53.0295601  13.3522873  23.3505287  52.2292328
  12.9741898  24.1757946  54.2478752  13.1359081  24.9041023  54.9286957
  12.0369740  23.1024685  54.6672401  12.3468771  22.1432381  54.2525864
  12.1103697  22.9145241  56.2275467  11.3949909  22.1525764  56.5370140
  13.1276464  22.7001839  56.5551224  11.4930134  24.1547337  57.0064392
  11.9706831  25.2932682  56.7667160  10.7035522  23.8695316  57.9400177
  10.6362753  23.2151031  54.0878372   9.9263678  22.2087078  54.0697746
  10.1923428  24.3792763  53.6387024  10.7669725  25.2075787  53.7005081
   8.8375578  24.5041370  53.0317879   8.2429018  23.7511730  53.5490303
   8.2290754  25.9141903  53.1116562   8.9435081  26.5115910  52.5452652
   7.2422881  25.8255291  52.6572456   8.1359882  26.4153614  54.5598640
   7.7502427  25.6365585  55.2177162   9.1744776  26.5787067  54.8478966
   7.2370882  27.6217060  54.8588753   6.9057102  28.4534817  54.0015678
   6.8483696  27.8206348  56.0747566   7.0456104  27.1319695  56.7867546
   6.3201199  28.6576691  56.2758179   8.8152161  24.1160851  51.5167160
   7.7177386  23.9469681  50.9488182   9.9996901  23.8429146  50.9706802
  10.8641911  24.2181263  51.3339348  10.1172276  23.1037922  49.6404419
   9.6331882  23.7277145  48.8890915  11.5934315  22.9099350  49.1417313
  12.0876112  22.3170738  49.9114075  11.7148533  22.0814571  47.8333740
  11.0465117  22.6066093  47.1509933  12.7429333  21.9614620  47.4916840
  11.3067713  21.0953426  48.0550613  12.4315376  24.2079639  49.1005707
  12.6464596  24.5544548  50.1114388  13.4036808  23.9325123  48.6917114
  11.7777643  25.2715282  48.2822571  10.8696413  25.5686131  48.8068085
  12.5397329  26.0475883  48.2098923  11.4701443  24.8972683  47.3058319
   9.3604727  21.7165279  49.6815338   9.6711855  20.9247417  50.5504684
   8.4800186  21.4758549  48.7216110   8.6001711  22.1725368  48.0002937
   7.8192630  20.1858063  48.3950157   7.8402510  19.5316830  49.2666702
   6.3430648  20.4257183  47.9647217   6.3128076  20.9373474  47.0027351
   5.9845266  19.4029102  47.8488998   5.4527521  21.2308483  48.9173927
   5.7159576  22.2824497  48.8035583   4.4123716  21.1706409  48.5978851
   5.6156597  20.7364235  50.3599663   6.6516175  20.8818874  50.6661224
   4.9043474  21.3613815  50.8999290   5.1918154  19.3276062  50.4437599
   4.3439403  19.1097698  49.9400177   5.4906840  18.3071747  51.2261429
   6.2816401  18.3824825  52.3563080   6.4503026  17.5200253  52.8541260
   6.7477927  19.2067375  52.7075996   4.9671922  17.1662064  50.9384537
   5.0232153  16.3758430  51.5647812   4.5636353  17.1470013  50.0127792
   8.5930557  19.4476624  47.2598267   8.6930695  19.9784088  46.0955086
   9.0854998  18.2263069  47.5739174   8.9733887  17.7682629  48.4670753
   9.9382162  17.4081154  46.6876945  10.2642202  17.9588432  45.8053551
  11.1253881  16.8087025  47.4834976  10.8474245  16.1734104  48.3244743
  11.7751312  16.2106113  46.8445740  12.1091805  17.8760872  48.1194267
  13.1708193  18.5894890  47.4597359  13.7852993  19.2651691  48.4689255
  14.7299089  19.7662945  48.3173065  13.0461645  19.2109947  49.5986176
  13.2841177  19.6231480  50.4894676  12.0661516  18.2083130  49.4160347
  11.3144855  17.8811989  50.1191711   9.1549034  16.2397881  46.0875015
   8.6853542  15.3943405  46.8013153   8.7963171  16.2778740  44.8280678
   9.2156630  16.9597645  44.2122154   7.7374187  15.3675594  44.3058777
   6.9742141  15.2458878  45.0745277   7.0020318  15.9631500  43.0487633
   7.6088266  15.9624691  42.1432800   5.8237472  15.1674376  42.5916595
   6.0517244  14.1015511  42.5955429   4.9672194  15.3162918  43.2491570
   5.6529603  15.5572729  41.5881844   6.5562592  17.4356289  43.2743301
   5.7518888  17.4659462  44.0092926   7.3650069  18.0228310  43.7093239
   6.1362553  17.9073524  42.3859749   8.2347116  13.9443064  44.0356750
   8.9948606  13.8270922  43.0872536   7.8416977  12.8880272  44.7180672
   7.1547503  13.0912476  45.4300423   8.2056227  11.4716368  44.5158691
   8.9695787  11.3620777  43.7461472   8.7303076  10.9639988  45.8117180
   8.0476418  11.1889019  46.6311607   8.7626648   9.8832254  45.6739426
  10.1413612  11.4594965  46.0344009  10.3718996  12.6479692  46.7031479
   9.5752316  13.2232208  47.1512642  11.6762791  13.0737658  46.9529114
  11.8753471  13.9831257  47.5004845  12.7561102  12.3042459  46.4520683
  14.0641441  12.7406445  46.6733665  14.6599197  12.0142288  46.4759521
  12.5620432  11.1457939  45.7190285  13.3296862  10.4547939  45.4033661
  11.2264414  10.6680059  45.6139450  10.9386768   9.7258186  45.1713676
   6.9778733  10.7493172  44.0425949   5.9400525  10.6859493  44.7436142
   7.0122557  10.1674280  42.8369827   7.8212080  10.3815517  42.2714310
   5.8966284   9.5403347  42.0458488   5.0413489   9.4523754  42.7158203
   5.4414082  10.3844604  40.8007927   6.2621708  10.3406506  40.0848808
   4.5107985   9.9599094  40.4242020   5.0305843  11.8279753  41.0760307
   5.8736773  12.3570633  41.5202827   4.7513332  12.6927767  39.8057938
   3.7462349  12.4346380  39.4722633   4.9016790  13.7678518  39.9043274
   5.3208899  12.3439484  38.9443817   3.8189409  12.1213503  42.0373840
   3.9566102  11.3974676  42.8405952   3.9497757  13.1160221  42.4635429
   2.8428352  11.9499273  41.5835876   6.1734982   8.1035461  41.7004547
   7.2993007   7.6220589  41.7529564   5.1248708   7.3344884  41.3430138
   4.1981106   7.7320437  41.3992805   5.2444253   5.9115968  41.0006523
   4.2393827   5.4960170  40.9279137   5.8511238   5.7536230  39.5473518
   6.8980188   6.0532112  39.4987946   5.7839613   4.6864343  39.3359337
   5.1208572   6.4588847  38.4232063   4.9435663   7.5198917  38.5990829
   5.7877030   6.4712491  37.5610771   3.8120110   5.8094993  37.9728394
   2.9762111   5.3312297  38.8256073   3.4872217   5.7575932  36.7396584
   5.9739995   5.1278863  42.1415138   5.7038746   5.2932491  43.3029633
   6.7870498   4.1475873  41.7816925   7.1662345   4.2500219  40.8511963
   7.4711618   3.2861259  42.8040924   6.7540784   2.9743350  43.5634842
   8.1658335   2.0028796  42.1874352   8.8511763   2.3717558  41.4243240
   8.7460814   1.5139353  42.9699593   7.1081305   1.0325515  41.6934128
   6.5844684   0.6438464  42.5667877   6.4179192   1.5667886  41.0404968
   7.8083601  -0.1337075  41.0886421   8.3593922   0.1953311  40.2076225
   8.4464684  -0.4599391  41.9099159   6.8943806  -1.2247590  40.6931267
   6.5379491  -1.8740727  41.4927788   6.0125642  -0.6899902  40.3402367
   7.5289416  -1.9236568  39.5737762   8.3954563  -2.3864961  39.8083649
   6.7902822  -2.5274181  39.2421799   7.7020850  -1.2823191  38.8129807
   8.6128550   4.0876212  43.5811157   9.2143602   3.6280682  44.5766945
   8.9528685   5.2918534  43.0908699   8.4626341   5.7368507  42.3281479
   9.9011469   6.1607656  43.7891197  10.6701012   5.5345325  44.2414932
  10.4627838   7.1786404  42.8224487  11.0326700   7.9567242  43.3302994
  11.2056723   6.7702632  42.1372871   9.6569824   7.7625570  42.3776741
   9.2178583   6.7656531  45.0797806   9.9433107   7.4091101  45.8122215
   7.8982511   6.6482725  45.2718506   7.3584251   6.0417194  44.6711998
   7.1585054   7.2634444  46.4024010   7.2880907   8.3431168  46.3274002
   5.6382847   6.9922724  46.2923355   5.4249983   7.1948495  45.2427788
   5.2776461   5.5675607  46.6691360   4.3168559   5.2449336  46.2680244
   6.0009985   4.8509421  46.2801399   5.2370830   5.5750375  47.7583580
   4.6730728   7.9264441  47.0327988   3.6461728   7.5858345  46.9002800
   4.8978009   7.9146748  48.0993195   4.9886479   8.9337931  46.7612114
   7.7321005   6.9701338  47.7148056   7.4718451   7.7332029  48.6479111
   8.4027863   5.7728047  47.8518982   8.5853653   5.2000275  47.0402985
   9.0632782   5.2413445  49.1109047   8.3627520   5.3634815  49.9370041
   9.4708233   3.7741706  49.0546951   9.7711582   3.5045316  50.0672150
   8.2355776   3.0341468  48.6090851   8.5778513   2.0002203  48.6531868
   7.4541407   3.2520196  49.3370895   7.9110699   3.1769643  47.5783577
  10.5876837   3.4764063  48.0722466  11.5639591   3.7291005  48.4859276
  10.5717411   2.3983581  47.9120560  10.4285297   3.9666646  47.1118202
  10.2256737   6.0396113  49.5478210  10.6435871   5.8845053  50.7241440
  10.7769213   7.0398731  48.7641678  10.4608431   6.9671803  47.8076591
  11.9404573   7.8970227  49.0183296  12.6267071   7.3817091  49.6903534
  12.7628613   8.0596285  47.7300873  12.2890863   8.6971025  46.9835854
  13.6861706   8.5627651  48.0172386  13.1600800   6.7238388  46.9601898
  12.2402086   6.2025781  46.6951904  13.6419373   6.9433274  45.5395927
  13.9200363   5.9766307  45.1197586  12.8964872   7.3800983  44.8750381
  14.4885073   7.6255288  45.6171875  14.1294250   5.8373208  47.7904396
  13.7939997   5.6003637  48.8001213  14.2912264   4.9161892  47.2305870
  15.1244135   6.2726021  47.8833275  11.5794125   9.3609362  49.6125755
  12.4604101  10.2448711  49.6796989  10.2203140   9.5544605  49.8167534
   9.5624275   8.8596258  49.4935036   9.6409779  10.8780851  50.2931252
  10.0252209  11.6181984  49.5912056   8.1482840  10.9121618  50.1199875
   7.8781915  11.9579945  50.2662163   7.9032078  10.5685301  49.1150169
   7.4073510  10.0490141  51.0639191   7.8071780   9.0387135  50.9771309
   7.5299716  10.3749619  52.0967903   5.8929348  10.0033388  50.7986412
   5.4455314  10.9970093  50.8221474   5.6865578   9.5664673  49.8215790
   5.1952634   9.1510334  51.7804565   4.8555455   9.5989513  52.6195374
   4.9234738   7.8949828  51.5634384   5.4269338   7.2185783  50.5524368
   6.2205515   7.5834517  50.0453491   4.9904342   6.3275242  50.3637810
   4.1108899   7.2126269  52.3847275   3.9398074   6.2232490  52.2753181
   3.7468483   7.7305403  53.1717072  10.1381989  11.3555355  51.7172508
  10.0852976  10.5897837  52.6628914  10.7199478  12.6165695  51.8686218
  11.1468191  13.4513569  50.7394981  10.2983732  13.9673071  50.2900162
  11.6554279  12.7735291  50.0539551  12.1094503  14.4811010  51.3150482
  12.0340786  15.4290705  50.7823448  13.1741276  14.2476187  51.3081474
  11.6560717  14.5064106  52.7731209  10.9141703  15.3029375  52.8299408
  12.4733706  14.6396151  53.4819107  11.1283455  13.1538610  53.0928001
  11.9446764  12.5406237  53.4744492  10.1144266  13.1356459  54.2761421
  10.4618015  12.5683661  55.3523712   8.8907824  13.5289440  54.0400200
   8.5924759  13.9222794  53.1588821   7.8568683  13.3871756  55.0408287
   8.1841745  14.0681849  55.8264503   6.5296044  13.9939089  54.5005302
   6.2172604  13.4440937  53.6126976   5.8614321  13.7571239  55.3285255
   6.5063019  15.4825363  54.2750664   5.5304642  16.0708580  53.6637077
   7.3953395  16.1721230  54.7823868   7.6340814  12.0536070  55.6238022
   7.4218278  11.9965458  56.7800407   7.8222885  10.9466763  54.9553070
   8.1324339  11.1368208  54.0130997   7.9012618   9.5627718  55.4299240
   7.1024694   9.3809052  56.1489220   7.7317748   8.5064182  54.3334732
   6.7542853   8.6741152  53.8812637   8.5531902   8.6889076  53.6405945
   7.8942738   7.1065912  54.7631187   8.8010340   6.9572806  55.3492928
   6.9502439   6.6092854  55.8022423   7.3137932   5.6319184  56.1195564
   7.1075215   7.2441082  56.6742287   5.9174685   6.6879869  55.4627113
   7.8645945   6.1808357  53.5631790   8.7154932   6.4184070  52.9247169
   8.0285501   5.2038860  54.0179176   6.9505224   6.2062955  52.9699478
   9.1196070   9.4023209  56.3255959   9.0224552   9.1018038  57.4810257
  10.3354797   9.6936436  55.8494072  10.4138231  10.0386963  54.9034157
  11.5402069   9.4300308  56.6354904  11.5521593   8.3696823  56.8877182
  12.7528706   9.5988588  55.6707306  12.8213606   8.7209129  55.0283737
  12.6269131  10.4712639  55.0295258  13.9688959   9.6064234  56.3685303
  14.2729902  10.5169430  56.3775253  11.7172070  10.2978210  57.8341293
  12.0986624   9.8622875  58.9572678  11.4525080  11.5874262  57.7127800
  11.0733995  11.9065847  56.8327141  11.4203930  12.6150608  58.8314590
  12.4111443  12.7255812  59.2722549  10.9302635  13.9911880  58.2555428
  10.0319452  13.7804222  57.6752815  10.6627636  14.6725054  59.0632210
  11.9273996  14.7645082  57.3739700  12.2176828  14.1451588  56.5252991
  11.2528763  16.0268841  56.9210777  10.2008820  15.9278488  56.6535110
  11.3186302  16.6438332  57.8172646  11.7860126  16.5156708  56.1056328
  13.1961784  15.1097975  58.1119499  13.7372789  14.1855373  58.3145714
  13.8494129  15.5817728  57.3780403  12.9650660  15.7985353  58.9245567
  10.5419788  12.1534138  60.0107422  11.0557623  11.9864206  61.1522331
   9.2712803  11.7969627  59.7177544   8.9654703  11.8727884  58.7581520
   8.3004026  11.2088413  60.6960449   8.1144190  11.9977245  61.4248619
   6.9427266  10.8851185  60.0204315   6.9541531   9.9971905  59.3883286
   5.7964263  10.6813126  61.0305328   4.8558393  10.3775949  60.5710144
   6.0821981   9.7987595  61.6028404   5.5433702  11.4858704  61.7210045
   6.4457655  12.0387402  59.3573875   6.8167977  12.0760775  58.4727745
   8.7732792   9.9517746  61.4481773   8.7859297   9.8833609  62.6764946
   9.1644583   8.9204149  60.6154633   9.1934853   9.1709166  59.6374512
   9.7799997   7.7233200  61.1407890   9.1315536   7.1764221  61.8252792
  10.0899839   6.7544718  59.9024582   9.1824846   6.8204479  59.3022995
  10.9178848   7.1552801  59.3176231  10.1796942   5.2861953  60.3940353
  11.0797300   5.1073170  60.9822884   9.2744837   5.0393715  60.9488068
  10.3777781   4.3377628  59.1356049   9.4678869   4.3347826  58.5354500
  11.1499119   4.7484164  58.4850121  10.5817785   2.9241414  59.6351891
  10.4875736   2.3094552  58.7399864  11.6032982   2.7122536  59.9509430
   9.5467682   2.4132781  60.6368713   8.6251183   2.2903464  60.2424774
   9.8572960   1.5467091  61.0524826   9.4358473   3.1199942  61.3498573
  10.9943085   7.9251390  61.9689484  11.2379389   7.0756760  62.8259392
  11.7885838   9.0144358  61.8787880  11.5984201   9.7056589  61.1673470
  12.9546843   9.2440319  62.7316246  13.6232691   8.3837433  62.7000198
  13.7306690  10.4260530  61.9558487  13.8697071  10.1987457  60.8989143
  13.0400639  11.2676344  62.0097427  14.9880733  10.8177385  62.6306839
  15.9972229  10.1755657  62.5510292  15.0147896  12.0193377  63.2011375
  14.2124519  12.6133242  63.0477257  15.8983278  12.2195282  63.6476631
  12.5459204   9.5462923  64.1556549  13.3211660   9.2850590  65.0955963
  11.3969030  10.1690588  64.3842087  10.8362494  10.4096012  63.5792847
  11.0601597  10.6322002  65.7817078  11.7497120  10.1687613  66.4872894
  11.3234568  12.1386271  65.9712601  11.0927258  12.4169817  66.9995499
  12.7987356  12.4848862  65.8755417  13.1955414  12.2646723  64.8845062
  12.8504057  13.5545740  66.0785141  13.3208055  11.8562689  66.5969162
  10.6918211  12.9329071  64.9971237   9.8700895  13.2043257  65.4126892
   9.6886129  10.1825533  66.3470154   9.5801430  10.0953941  67.5456009
   8.6880894   9.9643612  65.4481430   9.0273809  10.0446281  64.5002365
   7.2621784   9.8669815  65.8202667   7.1503921  10.3000374  66.8142853
   6.3781147  10.6973963  64.8539124   6.3552837  10.1658993  63.9025536
   5.4347291  10.6719303  65.3993301   6.8137527  12.1364422  64.5580292
   7.6552234  12.1179285  63.8654404   6.0238070  12.6769304  64.0365372
   7.2284007  12.9485893  65.8123169   6.4036884  13.0414333  66.7722015
   8.2766981  13.7003841  65.8594818   6.7655602   8.3946371  65.8424149
   5.6942563   8.1263590  66.4699097   7.4746585   7.4802437  65.2053070
   8.3710861   7.8216619  64.8891525   7.0571032   6.1378012  65.1171799
   6.0620050   5.9360232  65.5136261   7.0234489   5.6960115  63.6112442
   8.0441017   5.7241378  63.2296906   6.8538733   4.6208787  63.6698494
   6.0944915   6.5919352  62.6519470   6.4236841   7.6264181  62.7498207
   6.2542009   6.1235766  61.2668152   7.2711101   6.2290616  60.8888359
   5.8621407   5.1194735  61.1050606   5.7303672   6.7763672  60.5685577
   4.6655226   6.4944453  63.1349640   4.1040530   7.0802741  62.4071884
   4.2956572   5.4788299  63.2757683   4.5022264   7.0270014  64.0718842
   7.9073448   5.1533246  65.9535370   9.0747700   4.9780612  65.5191879
   7.4224696   4.5311713  66.9085770  22.8938293  15.0802889  26.0121346
  22.6214600  14.1155977  25.5893898  23.6961365  15.1168194  26.7459564
  22.4314957  16.1989040  25.4710236  22.6943302  17.5295181  26.0647125
  22.2004662  18.5367222  25.6015186  23.4488716  17.6798668  27.0146866
  21.5864086  16.2819786  24.4013119  20.4193535  15.5801582  24.3630638
  20.3690395  14.8175926  25.1499271  20.1854191  15.0218916  22.9584293
  20.9854889  14.4867859  22.4514027  18.9373207  14.9367275  22.3967476
  17.7906284  15.4273882  23.0640373  16.8038445  15.2484665  22.6413784
  17.9468555  16.2394009  24.0989017  17.0965710  16.7772770  24.5127182
  19.2929688  16.5883923  24.7104359  19.6039772  17.4781799  24.1494102
  19.2742405  16.9067173  26.0955963  20.0871906  17.4142914  26.2635536
  18.7513924  14.2535133  21.1597462  19.7987194  13.9909296  20.4626999
  17.5815983  14.0897808  20.7000885  40.9213715  16.4240074  41.3702621
  41.7133942  16.2071495  40.6566734  41.0809250  17.2360115  42.0764618
  39.8557053  15.6921358  41.6109276  38.9151497  16.1168442  42.8087845
  39.1202164  17.0688572  43.4656029  37.8837738  15.4883251  43.0014153
  39.4793549  14.5840616  40.8930626  38.9450760  14.7579012  39.5682678
  38.7400627  13.7098436  39.3177986  39.9547539  15.5018578  38.7387505
  40.8344536  14.8897629  38.5516739  39.9420357  16.7973213  38.5380173
  38.8699989  17.5936165  39.0299988  39.0397949  18.6632423  38.9229164
  37.7386169  17.0608635  39.5125237  36.8929443  17.6649723  39.8341026
  37.5344658  15.5317011  39.6479301  37.0666237  15.3297167  40.6192780
  36.7325935  15.0562315  38.5420799  35.9924011  14.4892950  38.8203354
  41.1335106  17.4459705  37.9560204  42.2297401  16.8892879  37.9467316
  41.2106400  18.6365242  37.7355690  16.0326233   8.9971895  49.0323868
  15.4390507   9.8729677  49.2857933  16.1037159   8.1047840  49.6505165
  16.7797871   9.0001564  47.8995552  16.7186241  10.1126766  46.7687874
  16.0759487  11.1394930  46.9552956  17.4988422  10.0903931  45.9029694
  17.5032139   7.8894248  47.5452461  18.6572819   7.4471464  48.2701492
  19.1349277   6.7685709  47.5528030  18.2145901   6.6123319  49.4442863
  17.2022495   6.2140837  49.4538307  19.1152000   6.2893300  50.4501495
  20.4127750   6.8677273  50.4109306  21.1896152   6.4358344  51.0389290
  20.6909962   7.9267097  49.6145248  21.7194595   8.2790079  49.5736008
  19.5754166   8.5001888  48.7437325  19.0052681   9.1295729  49.4379921
  20.0930233   9.3714333  47.6809273  19.5278320   9.2349072  46.9007683
  18.7461281   5.3226008  51.5108261  19.4702721   5.0721064  52.4415169
  17.5809593   4.9350476  51.4420319  80.9314423  43.7820702  32.8086319
  18.8661003  57.5269585  40.4277496  30.5183926  50.6705666  88.5893021
  50.9167786  11.8462381  11.2340164  30.1463871  41.5500412  62.9457397
   6.4817867  15.9424858  19.5855656  42.0082207  40.0758400  56.3067551
  41.1077271  25.5906296  59.8432465  86.2238617  57.9646568  64.4794922
   0.2230598   4.2964287  50.4569130   0.7294497   5.0761285  50.2291679
  -0.6810511   4.6058216  50.5125122  13.6118670   0.1216062  77.1182327
  13.0026140   0.8485345  76.9893265  14.3660030   0.3412702  76.5711899
  85.7709351  67.8266830  61.9975739  85.0848846  67.9634705  61.3442307
  85.4964752  68.3547897  62.7472458  63.8948708  28.5979004  28.2160397
  64.0446014  28.3023815  29.1140842  63.6814079  29.5270195  28.3020859
  43.5848808  27.8050537  84.9824448  44.4254303  28.0251522  85.3840256
  43.8055649  27.5602875  84.0837708  27.9481812  48.2880898  45.5123825
  27.0644512  48.6420898  45.6120644  28.3623466  48.4349289  46.3627548
  64.0751419  48.3589211  11.7661715  63.6338196  47.8824921  11.0629768
  63.6909714  48.0093079  12.5701723  58.5169067  42.8167610  69.5147629
  58.9713364  41.9780540  69.4353943  58.7363701  43.2852402  68.7094116
  39.9626808  61.6977615  12.9258242  39.8833084  62.6132126  12.6577072
  40.9046745  61.5278740  12.9219751  65.6652908  21.6951218  50.4274559
  66.0204544  22.1799030  49.6824188  65.1795578  20.9710426  50.0324783
  75.7341919  47.7719536  72.4724579  75.4357147  48.0108452  73.3499985
  75.8934326  46.8293915  72.5219574  63.2260704  24.3660450  41.3350258
  62.5476608  23.7951374  40.9743919  63.0128326  24.4330654  42.2657661
  68.7966080  34.0165100  71.4665756  68.6010437  33.1094627  71.2315063
  69.6690750  34.1746101  71.1059570   6.6844330  63.5453644  40.3961220
   6.0175767  64.0887299  40.8159866   7.5161324  63.9215431  40.6842117
  59.8989639  42.2806778  35.3530426  60.8459625  42.4200363  35.3525734
  59.7131958  41.8950424  34.4968834   1.6854689   8.4067230  86.4276733
   0.7702254   8.6054173  86.2299805   1.6684190   7.5117788  86.7668076
  35.5278969  40.1828003  78.6868591  35.1341972  40.0011253  79.5402222
  35.1794434  39.5011063  78.1123123  28.9786987   1.5302048  20.5241833
  28.5508862   1.0585942  19.8094845  28.3272305   2.1691284  20.8133163
  77.2538757  38.9663887   9.0477200  78.1939926  39.0368271   9.2134008
  77.1455002  39.2744560   8.1479530  51.1625977  54.9349518  73.2975388
  50.5811920  55.6952286  73.2842865  52.0154877  55.2899971  73.5480576
  59.3721352  35.8413849  20.4023361  59.1707382  35.5360909  19.5177650
  59.2606392  36.7910881  20.3591270  82.0596619  62.8632011  16.7352123
  82.3129425  63.3742638  15.9665127  81.1333389  62.6656380  16.5968990
  64.1403427  31.3661766  68.6458282  63.5153465  31.5576286  69.3450851
  64.5507431  32.2093697  68.4539185   5.2856975  42.5675468  12.7394390
   5.9045181  42.4613457  12.0169334   5.8020821  42.3887291  13.5253162
   0.3593651  15.0054722  81.1097031   0.5622929  15.0785151  82.0422897
   0.7312530  15.7971754  80.7209396  73.3203888  23.0125008  17.9821243
  72.4044724  23.1170387  17.7244396  73.3581696  22.1453857  18.3857536
  24.6080418  70.6054993  52.5001678  24.4065781  71.4553223  52.8918839
  24.8446350  70.8089218  51.5952530  49.2629051  35.4576340  80.5368195
  49.0765724  35.6039124  79.6093979  49.6801872  36.2683640  80.8280563
  47.1876450  39.4931831  63.4937515  46.7249603  38.8338432  64.0108795
  48.0300980  39.5967445  63.9362183  84.2737808  40.3349876  59.5197716
  84.5467453  39.5950165  60.0621376  84.7265701  41.0888748  59.8977432
  55.5163193  39.4938812  53.2577896  55.8392296  39.7649651  52.3984451
  54.5786362  39.3523560  53.1275826  76.6009064  30.7116337  42.9935951
  77.2858963  30.0760803  43.2011833  75.7939529  30.3063240  43.3110466
  78.8359070   1.2729213  17.4037342  78.6174545   0.6286350  18.0770874
  78.9760818   2.0868676  17.8875465  64.3056107  29.9473209  23.5091400
  63.6430359  30.1348953  24.1740055  64.3630295  28.9920158  23.4910526
  66.0171356  70.8563004  13.1271515  66.7574921  70.8094177  12.5222473
  65.6908569  69.9577713  13.1764479  62.5182457  70.7994461  76.0845413
  61.6770058  70.3875656  76.2817688  62.3581619  71.7365341  76.1962585
  55.5026894  31.5407162  15.4856491  54.6778793  31.1845951  15.1553488
  55.2481651  32.0785675  16.2354259  38.1291542  31.7020187  70.2704391
  38.0763397  32.6563263  70.2181015  37.2544632  31.3999500  70.0256882
  53.4347038  47.8445702  25.3077583  53.4888992  47.4172401  24.4529572
  53.3582420  48.7769203  25.1050167  27.6946354   8.0274858  14.4095974
  27.8313751   8.7172155  13.7601309  26.9909153   7.4909816  14.0446682
  58.3523865  34.4358253  52.0042763  59.2205772  34.6126480  52.3665123
  57.7655983  35.0084572  52.4982414  85.9766617   3.1853426  67.6705246
  85.1106033   2.8231564  67.4834442  85.7992172   3.9979250  68.1442947
   3.0062933  28.6519184  23.5734882   3.0789330  28.1979465  22.7339268
   3.4634697  28.0836430  24.1933956  45.1915741  26.4043179  74.4707184
  44.9692307  27.0032158  73.7578964  45.1089706  26.9343872  75.2634583
  31.7938118  47.3710785  41.1123848  31.7727089  46.8511734  40.3089600
  31.5894413  48.2615509  40.8268700  19.0027618  59.5868912  57.9121704
  19.2661209  58.6947212  57.6865463  19.8020916  59.9959526  58.2437935
  18.0252647  53.6862030   9.3099470  18.8063946  53.6260147   8.7599945
  18.3472004  54.0191422  10.1476460   1.1779379  65.4574738  25.6759357
   1.0482163  65.3113937  26.6129875   1.3218615  66.4005966  25.5982246
  83.0811005  58.5342674  81.0607300  83.9729691  58.8769150  81.0024948
  82.5273972  59.2556190  80.7619019  42.2957878  35.6863213  11.5699043
  41.4709282  35.2280312  11.7305527  42.7278557  35.7082214  12.4237614
   7.7192802  62.3945808  18.7776432   7.3741708  61.5114975  18.9091549
   7.0254331  62.8550644  18.3056622  71.5165253  63.1800346  26.8619289
  72.1874695  62.5082703  26.9835930  70.9132309  62.8027916  26.2216549
   4.8880720  27.1844006  79.7994156   4.7322998  27.9358330  79.2273026
   4.4595485  27.4175014  80.6229858  20.9117680   7.7827873  60.9099312
  21.6385746   8.1781063  60.4285698  20.4374237   7.2741489  60.2522697
  21.1866302  48.3987694  65.6385880  20.9503307  48.6020355  64.7335587
  20.5119839  47.7856102  65.9303436  68.3513641  16.6057301  23.3595905
  67.9224472  16.0827579  22.6822701  67.6324768  16.9352341  23.8988991
  31.9426613   0.5286954   0.0933954  31.5440845  -0.3304627   0.2320200
  32.3978004   0.7168267   0.9141800  22.4881382  70.0259247  55.9251328
  23.1676865  70.6962280  55.8534203  22.7929840  69.4498444  56.6261559
  56.5840530  66.1127014  72.9915009  57.0693054  66.6093903  72.3326645
  57.2582207  65.6400681  73.4797058   3.2623215  36.5896034  74.5641861
   2.6352530  36.7010269  73.8496246   3.0112894  37.2514534  75.2085190
  57.9631577   6.1991625  66.1216583  57.9110985   5.6240926  66.8850861
  57.3813782   5.7954845  65.4776001  56.7203445  53.6165466  68.1216278
  56.9234810  54.2273598  67.4131927  56.7178841  52.7559662  67.7025452
  83.2619781  23.6996136  41.8381538  83.3294373  23.2788811  42.6952782
  84.1605988  23.7178841  41.5089264  70.5528641  36.3882217  82.0553436
  70.1559296  35.5444336  82.2714462  71.4876556  36.2618179  82.2178955
  66.0848541   5.1877527  63.6270142  67.0409698   5.1508989  63.6002655
  65.8038788   4.6631989  62.8772583  64.1658707  30.9148331  40.7908401
  64.3771362  31.2883434  41.6464615  64.9890060  30.5326519  40.4864883
  77.1301422  59.2485237  38.0308609  76.3432770  59.0924644  37.5086288
  77.6714249  58.4724312  37.8862076  32.5388680  67.6558151  30.9883423
  33.3286781  68.1130753  31.2770367  32.0795097  67.4361343  31.7988739
  69.5921707  21.6535835  63.3985481  68.6520996  21.7268982  63.2338448
  69.9414597  21.2362232  62.6111183  48.0174522   7.3347802  44.3815498
  48.3789253   8.0201082  43.8195038  48.2810936   7.5869508  45.2664986
  80.9727936  58.1524925  64.7861328  81.3151093  57.2856636  65.0044479
  80.0288467  58.0215912  64.6963577  49.3394699  52.0249062  87.0662994
  49.8499413  51.2151947  87.0705338  48.4390907  51.7396011  86.9108734
  25.1195450  46.7725487  15.4644089  24.6673107  46.8311768  16.3060017
  25.4226093  45.8657799  15.4180174  15.1489515  31.1891708  55.8647614
  15.7469206  31.9198647  55.7074318  14.3450346  31.6014023  56.1810150
  79.1819916  32.1566620  68.3888168  79.8054352  31.7895470  67.7621002
  79.0209579  33.0459747  68.0735016  71.5427704  34.4179688  47.0087433
  72.0273743  33.8224030  47.5803146  71.1179733  33.8448105  46.3705673
  52.5303612  69.4254456  69.3330536  52.9167633  68.6891403  68.8589401
  51.5896492  69.3443832  69.1758194  83.5296249  70.0819626  46.9659042
  82.9577713  69.3436203  47.1758347  83.2968826  70.3173599  46.0677681
  13.5339479  18.5605049   0.5672310  12.6253033  18.8339424   0.4414206
  13.4816303  17.8338966   1.1881466  20.7965221  29.0313854  12.6568756
  20.6223755  29.2730598  11.7472067  20.0892906  28.4276333  12.8838940
  46.5949097  42.6631012  68.1229324  46.4821014  42.0711517  68.8666382
  47.5339241  42.8478622  68.1041641  86.6276779  30.1851025  33.6035194
  86.0245056  30.1749325  32.8603363  86.2093811  29.6270390  34.2591286
  62.9709091  47.5942421  84.0952530  62.6162300  48.1780853  84.7657471
  63.8514023  47.3813248  84.4044952  54.7677422  51.0086403  76.0193939
  55.0466042  51.7600060  75.4960175  54.9191055  50.2524185  75.4524307
  76.7211914  35.4064674  19.2232113  77.0000687  34.7104797  18.6281796
  77.1550751  36.1928101  18.8920975  35.3443565   3.8323946  10.6072121
  34.8418541   4.4911332  11.0865746  34.8037910   3.0434215  10.6464987
  43.6579285  54.3677406  39.1367607  43.1862259  54.6480026  39.9210930
  42.9895744  53.9544830  38.5901756  18.5344257  36.5321922   2.8295453
  17.6184959  36.3394661   2.6291411  18.9773712  36.4983139   1.9816750
  50.7115669  26.8269024   7.6072264  50.1493568  26.1292934   7.9441133
  50.3415604  27.0400276   6.7505450  55.3950615  34.2082863  13.7086630
  55.1491928  34.5194893  12.8374968  56.2944641  34.5137062  13.8270931
  15.2618866  58.6546097  80.6763611  16.0174408  58.1839447  81.0282745
  14.9936733  58.1413155  79.9142380   8.2865667  46.1122322  46.3932686
   8.1447830  45.1663475  46.3554840   9.1764584  46.2344322  46.0625267
  19.7459068  63.3111610  52.4470940  20.5600147  62.8085899  52.4173737
  19.1176815  62.7247505  52.8686256  75.0260544  18.5418282  74.5017929
  75.7729416  17.9818211  74.2901840  75.1658783  18.7926750  75.4148941
  22.6345940  51.6680756  22.1153603  23.5492744  51.4165840  22.2432022
  22.6194725  52.0873375  21.2549992  20.0063171  58.5733757  16.8302441
  19.7506924  59.2384338  17.4694519  19.1777763  58.2519341  16.4746799
  53.4116402  67.8301010  11.3122110  53.6033516  68.7374496  11.5492697
  52.4750824  67.7306671  11.4830942  49.3208160   3.2599459   7.1080494
  48.9559250   4.1425033   7.0434046  49.6731033   3.2109208   7.9967132
  49.2720070  11.4606972  15.5555754  49.5801506  10.5567827  15.4906235
  48.3654480  11.4272289  15.2501907  80.2087250  61.3489151  21.7446785
  79.5015335  60.8834572  21.2980671  80.6422653  61.8473969  21.0520058
  31.5637074   2.7263188  32.6064224  31.7981606   2.7911944  33.5321960
  32.4007645   2.7671492  32.1439323  56.8687820  27.3510303  39.1445084
  56.2793236  28.0959892  39.2620049  56.3387680  26.6953850  38.6912460
  72.0305786  10.6265821  12.5893164  71.5524979   9.8256474  12.3744354
  71.8660660  11.2098112  11.8483639  59.3255196  61.4365158  30.7334557
  59.4185028  62.3518372  30.4693146  59.0424271  61.4783936  31.6468754
  84.5502853  69.0238419  24.7250729  85.3389816  69.0756607  25.2649822
  84.0790710  68.2617950  25.0619240  26.4869766  67.3514557  58.2120857
  25.6613350  67.7919540  58.0108185  26.7959442  67.7758255  59.0125084
  55.0487289  50.5526619   8.1713781  54.6657372  50.6362381   7.2981291
  55.3750572  51.4292488   8.3746939  58.1748238  28.5573692  78.6726456
  57.8728104  29.2861824  78.1305618  57.3901711  28.0305958  78.8245010
   3.1197908  60.7487068  67.3700027   2.5153587  60.7678528  68.1119766
   3.4514506  61.6444740  67.3080750  56.1821060  36.7247429  79.3121414
  56.2343025  37.3634300  80.0231857  55.6633263  37.1607666  78.6361389
  20.8604641  30.8135433  75.0127258  20.9174461  31.2814541  75.8458176
  19.9218769  30.7565975  74.8337173  51.9775009  67.3210144   8.6830578
  52.5743828  66.5912323   8.8485374  52.5179825  68.1028748   8.7961960
  23.4162159  58.2688255  54.3220100  23.9244919  58.9019699  53.8150406
  24.0094204  57.5274124  54.4430275  28.7093220  18.2783718  12.1314020
  28.9074154  18.8913193  12.8394165  28.6341419  18.8289242  11.3519983
  40.6397972   1.1784101  20.6176167  41.2516861   0.4892731  20.3589344
  40.5555382   1.0802662  21.5660362   1.9518944  63.5594521  77.6774597
   1.7049627  64.0658493  78.4512939   2.1152804  64.2180481  77.0023422
  72.5793076  37.2087822  73.6574860  72.8003616  36.7381248  74.4611282
  72.4480896  36.5205841  73.0052567   1.6323746  24.2299347  45.6245079
   2.5829115  24.3421154  45.6357765   1.5000242  23.2931099  45.7696762
  47.1372108  66.2988510  40.0338402  46.7558441  65.9674606  39.2208405
  46.6578178  67.1082306  40.2108002  85.8973541  45.4068146  85.3962402
  85.7057343  45.7670593  84.5303650  85.5542297  44.5137634  85.3653946
  29.1033401   2.6641762  87.1708832  28.2614555   2.6920621  87.6255035
  28.8774910   2.4762328  86.2598953  69.9229660  60.4995232  43.2406578
  69.4307480  61.2494621  42.9066734  70.7961502  60.8474693  43.4214973
  77.5471115  58.0233078  27.6302376  77.4523239  58.8469391  27.1518288
  78.4307404  57.7230492  27.4174500  21.9317074  33.2535744   1.1524885
  21.0230541  33.4458771   0.9209679  21.9646702  32.2993813   1.2207923
  80.4461670  17.2132664   3.0080864  80.8312149  16.7521172   2.2628939
  79.6327896  17.5841732   2.6659300  12.0288248  47.6797562  14.4670877
  12.7275486  48.2141380  14.0896549  12.2230272  46.7895737  14.1736803
   1.0769159  36.9756775  72.7866211   1.3463432  36.2125549  72.2754669
   0.2880339  36.6892700  73.2469101   3.3366492  35.6289482  17.5937386
   2.5489662  35.9463768  17.1521187   3.7773626  36.4225922  17.8972664
  27.5407887  36.6461220  29.6864395  28.3595638  37.0073967  29.3468552
  27.0913792  36.3037567  28.9137516   1.1476007  23.5192127  48.5034523
   1.2204624  23.1577492  47.6201248   0.2058840  23.6132469  48.6468391
   5.6221886  12.1806307  79.4839783   5.8693786  12.9597635  79.9820557
   6.4524403  11.7425156  79.2969818  84.5375214  60.8692093  20.0494957
  85.4035187  60.6265678  20.3772392  83.9285507  60.5184708  20.6993942
  65.8583298  65.9704590  82.1531372  66.4839783  65.3723450  82.5618591
  66.2288895  66.1510468  81.2892532  64.9815521  23.8977871  62.5550308
  65.7737503  24.3725109  62.3034477  64.3818588  24.0261154  61.8200951
  59.0476799  45.9872856  59.7201920  59.5812225  45.1935539  59.7595711
  58.5473328  45.8995399  58.9089050  63.3401146  15.1555166  20.6777477
  62.7099724  14.5167837  21.0111752  64.0042419  14.6277657  20.2343063
  33.8592529  51.7055092  70.8910141  34.3052750  52.2197456  70.2180634
  33.1281624  52.2573662  71.1688461  46.0534210  40.3989639  28.6680222
  46.3694611  40.7389832  27.8309212  45.1127930  40.5760498  28.6586971
  55.3592262  36.2936592  84.4547958  56.0091515  35.8077011  83.9471741
  55.7837944  37.1289597  84.6503677  65.7047882  40.6959381  28.9029751
  65.6374435  40.8962479  27.9693947  65.7192535  39.7396545  28.9423218
  38.1514359  26.0484257   9.2290468  37.5542564  25.4604912   8.7665100
  37.8130264  26.9251518   9.0472174  72.5778961  28.6868973  76.5794449
  72.3147125  27.9397545  77.1167908  73.3291779  28.3689766  76.0787125
  50.1242332  30.4018974  14.4957733  49.6007690  30.0849915  15.2318354
  50.3388138  29.6133461  13.9974022  78.4526215  63.2857056  64.8854675
  77.9943542  62.4561958  65.0201035  77.9757462  63.7097359  64.1720123
  60.4811058   9.1097202  17.2703648  61.3098412   9.3088617  17.7059937
  60.6638489   9.2350168  16.3391628  11.5672655  71.1391830  39.4334755
  12.1698275  71.8714142  39.3031273  11.0697517  71.0901794  38.6171989
   8.5438576  43.9975967  35.3006897   9.2791872  44.0653572  35.9097328
   7.8136725  44.4128189  35.7596588  30.8453484  44.0268669  30.7029362
  30.6287003  43.7925797  29.8004913  30.2567902  44.7528381  30.9098034
  15.8216896  23.3057384  11.6572790  15.5136614  23.0804729  10.7794371
  15.3127661  24.0797462  11.8984013  45.5339890  50.7545395  19.8032417
  46.3591385  50.4167938  19.4549751  44.9205093  50.6891899  19.0713921
  84.1645737   5.0445704  49.5269318  83.4701004   4.6631646  50.0640297
  84.2509766   4.4448447  48.7859192  37.9905014  30.8519821  77.3956070
  38.4958611  30.5180779  78.1367874  38.4277229  30.4897366  76.6249924
   1.4293027   1.1716685  12.4102736   1.1951144   1.2480829  13.3352327
   0.6488122   0.8046289  11.9951258  14.7305250  17.2939873  80.3778229
  15.0155573  17.3249054  81.2910767  14.3233643  18.1466866  80.2249908
  35.4467850  51.4161491   8.9156952  35.4447174  50.8534164   8.1413822
  34.9712830  50.9143295   9.5777435  32.8291054  22.4497585  78.0209885
  33.5619850  23.0608635  77.9456940  32.3550568  22.7391682  78.8005753
  58.5972443  50.5399475  22.9338264  57.8030090  50.2288742  23.3681755
  58.3999977  51.4453087  22.6937313  16.6716766  37.3525047  41.2929993
  16.9246731  36.8899574  40.4940758  15.7598715  37.6038055  41.1457253
  59.7186890  30.4855022  14.4060478  58.9973755  30.2232456  14.9780283
  59.7362862  31.4406986  14.4653864  80.1218643  63.6382942  72.6548615
  80.3123627  64.5520859  72.8668365  79.4244156  63.3918724  73.2623672
   7.8991990  43.8705063  30.4372253   7.3124566  44.5719528  30.1544895
   8.2607813  44.1807556  31.2674274  79.2778549   8.6632471   8.0774612
  79.3368759   7.8889456   8.6371078  79.0869293   9.3811150   8.6811533
  86.6207123  66.4580688  81.0866623  86.7144775  67.2420578  81.6277695
  85.6802597  66.2798080  81.0842209  83.3235474   6.0376911   6.6643243
  82.9217682   6.3585172   7.4717135  84.2596970   6.1987872   6.7822104
  16.1572132   4.8018389  68.8902740  15.4245815   5.1733570  68.3988876
  15.7638388   4.1066699  69.4177475  49.4164314  10.3026133  85.5993118
  50.1567345  10.8914700  85.7456970  49.8087502   9.5123310  85.2281342
  42.3368874  15.0787897   5.2248454  42.8543282  14.6319437   4.5549064
  41.4306488  14.8471375   5.0216188  74.2145462  17.5986328  56.8365517
  74.1252975  18.1887474  56.0881996  75.1593246  17.5219555  56.9697685
  48.6517982  30.6016407  33.9492722  48.1441231  30.2105980  33.2382278
  49.3802719  31.0406437  33.5101433  80.9856796  33.9012337   8.7191086
  81.1365967  33.0086136   8.4081707  80.0646133  33.9116707   8.9794292
  81.5313034  10.4352407  19.3251820  82.3494644  10.9037695  19.1598930
  81.7802048   9.7161236  19.9058285  67.3474503  10.3090820  61.6044960
  66.7564926   9.5626736  61.7038841  67.1450806  10.6610270  60.7376518
  78.4175873  53.4770279  40.3110237  79.1258698  53.0758743  40.8146439
  78.4328766  54.3988152  40.5685310  54.2474556  51.2061844  25.0748768
  54.6230736  51.9943352  24.6824970  54.0022545  51.4731979  25.9607735
  62.4479446  45.8181000  60.9875374  62.5374680  45.7764740  60.0354424
  61.6912613  45.2648430  61.1813698  61.2390022  43.0851288  17.5661049
  60.3558502  42.8430367  17.8447819  61.3563309  43.9778900  17.8908234
  80.0364990  65.2555313  69.7576447  80.4994354  65.9837036  69.3432999
  80.7292480  64.6485443  70.0182190  48.4702377  54.6393929   9.1728134
  48.3525085  53.7266083   8.9097681  48.8980865  54.5890465  10.0275898
  72.9400024   4.4918280  77.7491150  72.4483032   5.2838888  77.5320892
  73.0388641   4.0348849  76.9138565  20.4076233   8.3116989  75.1705780
  20.0474014   7.8799872  75.9452362  19.9208813   9.1333876  75.1062088
  21.9327641   2.8362620  86.8531570  21.7114697   3.6259990  86.3596191
  21.8148403   2.1217484  86.2272186  36.5514030  32.1929626  20.1668396
  35.9424782  32.7975883  19.7427216  37.1674652  32.7597885  20.6309566
  78.1494064  70.0017776  36.2159500  78.6547318  69.1939545  36.3070755
  78.7881012  70.7008820  36.3557854   3.2160497  70.4118576  67.5739441
   2.4696107  70.3718109  66.9760742   3.7108052  71.1798630  67.2882690
  76.1983490  28.1336861  63.6010284  76.3616409  28.4047012  64.5044174
  77.0355225  28.2660236  63.1562233  47.2846184  55.7900124  71.1024246
  47.3912849  55.8569489  70.1535492  46.3392982  55.8464394  71.2417526
  11.7571793   9.4854145  74.3441162  12.3607731   9.7648954  73.6557922
  10.8899965   9.5544872  73.9448013  71.4331131  52.6424103  16.9503765
  71.9082260  53.0623245  16.2333183  71.4689026  51.7078514  16.7465305
  23.1063194  65.9551926  50.2353363  22.4567451  65.9777527  50.9380264
  23.6652527  66.7143097  50.4013863  64.8346100  34.2330093  86.6036224
  64.7891693  33.2768898  86.6062851  64.1322021  34.5045204  86.0127335
  21.4493256  29.1423645  66.4012985  20.9379234  29.8719769  66.0514908
  22.2109756  29.5565147  66.8070068  20.3323631  65.3179092  76.2458115
  20.0403919  65.8386078  76.9940491  20.1563301  65.8718109  75.4852600
  42.8343163  66.8916473  26.7535419  42.1342392  67.3686981  26.3079510
  42.4715843  66.0185776  26.9032383  85.5079575  69.0124207  34.7654572
  86.1314926  68.3660049  35.0964851  84.6501236  68.6638641  35.0080910
   5.3143911   8.3755150  19.2788963   5.6723847   8.0714111  18.4448738
   5.8513145   7.9420881  19.9422855  82.6700821  13.7823200  53.4636002
  83.3618851  14.4263296  53.3122787  82.4501801  13.8802414  54.3900375
  10.7836199  59.5236702  75.8597107  10.3722725  59.6113853  74.9998627
  10.2426863  60.0595169  76.4397888  50.7067986  45.9950294  22.3897362
  50.3454056  45.2718048  22.9021549  50.1906662  46.7567940  22.6534653
   4.5498924  57.1183586  80.0258179   4.0532379  56.8738136  80.8066940
   5.4637394  56.9638252  80.2650604  52.6737137  18.5345058  41.4598389
  52.8948174  17.7264805  41.9229126  53.2391701  19.1987705  41.8538551
  77.0954971  11.6028099  43.8544655  77.1816635  10.6511831  43.9111633
  77.6925507  11.9376440  44.5235329  66.3305817  23.1362343  34.0237160
  66.1892014  22.1907806  34.0723267  66.0976562  23.4583244  34.8944817
  48.3555679  60.1074066  33.0606499  48.9322739  60.5981140  33.6461792
  47.7092056  59.7064476  33.6417542  42.2767639  22.8148232  53.5020447
  42.6292534  23.6371422  53.8423004  41.4989052  23.0738754  53.0080185
  81.7696457  69.5304413  13.2710199  82.2173309  69.9542542  14.0032749
  81.4692307  68.6937408  13.6258583  46.0318985  53.3916664  74.6842651
  46.6002922  52.6632538  74.4341125  46.6315804  54.0615730  75.0126495
  64.8090515  25.4544201  29.6164379  65.0844879  26.2844658  30.0055275
  65.3597488  24.7965240  30.0408688  70.5391464  32.0502739  13.5132122
  71.4595108  32.0125198  13.7734823  70.2447815  32.9151764  13.7987347
  73.9690628  58.5504036  54.9340553  73.7282410  59.0505600  55.7138481
  74.9092865  58.6997948  54.8345985  61.6605606  30.6684856   6.6256142
  60.9889183  30.0509930   6.3360753  62.4881172  30.2544651   6.3807216
  82.7061386  62.1793518   3.9840295  82.8187180  61.2601776   4.2262573
  82.6294479  62.6396255   4.8197923  46.0768242  36.7051659  32.5817032
  46.4879265  37.1659851  31.8503551  45.2274971  37.1336746  32.6877632
   5.2831826  26.4441338  33.2430153   4.6786656  25.7781487  32.9155197
   4.8358812  26.8220482  34.0002022  16.0984802  28.7115021  12.7145939
  15.3981724  29.3089027  12.4520798  15.8078470  28.3561268  13.5545177
  63.2003288  13.6337652  32.3820648  62.6980133  14.4034948  32.6493263
  62.5417099  12.9516983  32.2507782  78.5288315  46.2860260  11.7497473
  77.8611984  46.5904198  12.3644390  79.1739807  45.8399391  12.2983952
  56.1470261  44.9467430  50.5617905  56.8512230  44.6533813  51.1399574
  56.0083427  44.2136154  49.9621849  27.6683426  60.2670021  57.6874275
  27.2280674  61.1134415  57.7644577  27.7252655  60.1115570  56.7446518
  60.4140320  44.0556145  61.0348091  59.7217827  43.3987656  61.1094627
  61.1362381  43.5949669  60.6076660  23.2194500  16.5238514  68.7358551
  23.3440533  16.9150810  69.6005173  24.0927048  16.5260677  68.3438644
  75.3958893  55.1093826  36.2983208  75.0696259  54.2421494  36.5385170
  74.6073456  55.6427193  36.1983795  30.7789936  63.5998878  87.7701721
  31.3125248  64.0645828  87.1254730  29.9751968  63.3775902  87.3003540
  34.5878067  44.7260857  82.1265717  35.3300934  45.1871910  82.5172424
  34.1111031  45.4031296  81.6463699  51.9943047  19.4061852  26.4023418
  51.4122696  18.7777328  25.9751225  51.5356178  19.6490479  27.2066154
  69.6100311   4.5054860  10.3720942  70.4602814   4.4033146   9.9444551
  69.7891693   5.0591626  11.1320829  39.9905510  38.6923676  56.4714699
  39.3278847  38.3112793  55.8953819  39.9578056  38.1547356  57.2627411
  47.4414673  10.6917601   8.4436836  46.6063156  10.3845730   8.7963800
  47.5115242  11.5966845   8.7477150  60.0621872  57.3733521  27.4725513
  60.8971519  57.6060753  27.8786354  59.4269981  57.9660912  27.8743267
  11.7572374   6.4403586  52.9702759  11.2729168   6.2621441  52.1641083
  12.5624685   6.8665495  52.6766853  76.8133926   4.4545326  66.2439194
  77.6586075   4.8887095  66.3593826  76.9669495   3.5526752  66.5255280
  16.8706474  54.7877693  82.0452194  17.5849094  54.1648521  82.1795273
  16.0798397  54.2484665  82.0425797  52.7018700  28.4314747  15.1265821
  52.9534492  29.3534451  15.0726538  52.3789864  28.3232422  16.0211563
  30.9233093  60.1772995  23.9331436  31.4250584  60.9063835  23.5685711
  31.5415154  59.7240562  24.5064030   3.0539448  27.2989063  21.2791405
   2.1668293  27.4056606  20.9358311   3.2424307  26.3668098  21.1700439
  32.8504868  26.7896996  76.4540100  33.1745911  25.8917046  76.3847656
  32.4004745  26.8174686  77.2983780  56.4706764   5.7232704  19.2518234
  55.8078842   5.2403455  18.7581406  57.3029709   5.4503818  18.8657570
  58.8171349  55.9640083  36.7401390  59.1445084  55.2566566  37.2957573
  57.8817787  56.0106621  36.9380302  12.0491228  67.6120453   8.4032984
  12.5310736  66.8450012   8.0940914  12.3016205  68.3122101   7.8014297
  33.9466782   9.6600018   7.4455371  34.5603790   9.5466833   6.7197537
  33.3277321   8.9359703   7.3511019  50.8270340   4.1515336   3.6953425
  50.0683632   4.7218328   3.8194711  50.9045639   3.6730230   4.5207205
   0.9370062   6.7399116  46.8724709   1.4639373   6.9788361  46.1099167
   0.0418433   6.6862755  46.5377502  19.2453079  52.6920433  54.5529366
  19.0834255  51.8132439  54.8960686  18.4691868  52.8914757  54.0293961
  -0.1247324   3.0825238   8.5071106  -0.4951008   3.3920674   9.3336954
   0.7467445   2.7624137   8.7401114  31.2145042  50.0494537  13.6597548
  30.3342686  49.9883919  14.0308142  31.2926655  49.2768097  13.1001625
  43.2337303  12.8594837  67.1672134  42.3940277  12.4130545  67.2759933
  43.0071678  13.7045755  66.7789841  83.7269669   8.9651928  50.3287811
  84.6227798   8.6293106  50.2980194  83.5344849   9.0488605  51.2626877
  84.2354736  -0.0098553   4.5964546  85.1795197   0.1300765   4.5227346
  83.9230652   0.7321835   5.1141500  46.9189644  67.1859665  83.5282669
  46.4468002  66.8356094  82.7729187  47.2743797  66.4135361  83.9678955
  12.0381212   7.8608723  76.5778809  11.9239626   8.4377880  75.8226471
  12.4125843   8.4241791  77.2551498  57.3212547  53.9600182  32.6747322
  57.3307762  54.9152832  32.7348366  56.9262657  53.7776031  31.8221245
  80.8034744  57.6753883  31.1725235  81.3405533  57.7344513  30.3824005
  80.0012131  58.1490021  30.9527550  52.0915871  30.1239910  64.6623383
  51.3596992  29.5894699  64.9703293  52.4844398  29.6089325  63.9576263
  41.6312828  37.1389847  79.9660568  42.1714172  36.4634781  80.3761444
  42.1033630  37.9553795  80.1299896  85.7383041  26.9286404  10.1436100
  85.9186554  27.0287628   9.2089005  86.4804916  27.3498154  10.5772018
  55.7696724  36.4655571  52.7908020  55.6581001  37.4050598  52.6454887
  55.1061020  36.2437668  53.4440346  23.3194237  18.8911171  86.7573242
  24.1588154  18.8390999  86.3002167  22.8221054  19.5485535  86.2708206
  45.3804779  70.2053757   7.0716119  46.0697289  70.6667404   7.5494313
  44.8708572  70.9006653   6.6555786  28.4505863  62.2363815  25.5423241
  28.9236984  61.4219398  25.7128582  27.6519680  62.1633835  26.0649242
  36.7351952  57.0436859  69.0149612  37.4967651  57.5495682  68.7315292
  35.9912109  57.6273880  68.8665924  12.6191483  51.0819817  48.6519775
  11.6888103  51.2581253  48.5117035  12.7335749  50.1705284  48.3829193
  68.3376541   6.8247805  39.6503029  68.9468155   6.1701665  39.9918175
  68.8250275   7.6477847  39.6871910  63.1412392  38.2069054  42.1300278
  63.3674622  37.6346512  41.3968277  63.6884193  37.8984375  42.8522949
  69.7880249  35.7862549  38.9615936  69.8057785  34.8983688  39.3187752
  70.0003510  35.6758690  38.0347900  49.0436401  47.6670761  71.5116806
  48.3327713  48.2824516  71.3322067  48.9718437  47.4848442  72.4486237
  53.7456589  63.2914047  30.2469444  53.8904533  63.9796715  29.5976753
  54.6136360  62.9164658  30.3961601  25.1604710  43.9240532  49.8981133
  24.5541916  44.2798347  49.2484398  26.0149155  44.2734413  49.6449623
  79.6158981  20.7834778  85.5899429  80.5354462  20.5313320  85.5057602
  79.4133072  20.6449909  86.5151520  53.4035568  22.1085701  55.6818047
  53.3440857  22.9614906  56.1121788  54.3321152  21.8809166  55.7285843
   3.3572581  16.6912422   8.9711924   2.5432460  17.1258678   8.7167959
   3.0949044  15.7947493   9.1802425  46.9123840  19.9584084  55.0284195
  46.7814636  20.8564987  54.7242393  46.2414398  19.4507332  54.5719872
  36.4935112  13.0271473  86.3960190  36.6043358  13.9439011  86.1440048
  35.7766724  12.7123365  85.8453217  72.5940628  31.8445225  39.8479271
  72.9226990  32.7191658  40.0558472  71.6453247  31.9541340  39.7837715
  24.6263428  29.7986698  85.0647736  23.7565823  29.4117641  84.9645233
  24.4579277  30.6927090  85.3623657  63.6922417  65.1413803  31.9738617
  62.7899857  64.8307800  31.8983898  64.1865311  64.5913162  31.3661289
  66.2252350  28.2354031  30.2254333  66.5506668  28.9974918  30.7045403
  66.3269424  28.4708958  29.3032455  42.1885605  19.0801506  53.8578033
  42.4719315  18.2661133  54.2740669  42.1766739  19.7211227  54.5686073
  47.5944328  53.6878891  54.1345177  47.0502815  54.4202080  53.8449593
  47.2509995  53.4613800  54.9987984  74.7311401  55.5349693  45.4822006
  74.4533310  56.0252037  46.2559776  74.0455017  55.7002449  44.8350372
  78.6690140  43.0378571  57.2106209  77.7906799  43.3607140  57.4119148
  78.9469681  42.5868759  58.0078583   9.0845089  17.0789032  15.8632431
   8.9909201  17.1568604  16.8126621   8.1984425  17.2055836  15.5240221
   5.3285480  54.8006325  18.9356899   5.1679282  54.2419624  19.6961632
   6.1063313  55.3068123  19.1703529  85.6011810   3.7824879  34.8798828
  85.8694611   3.9494681  33.9763489  85.8801727   4.5618482  35.3604965
  17.3007145   9.3933363  84.3447495  17.1397743  10.1797104  83.8232651
  16.4278278   9.0819283  84.5841827  75.0242767  27.3007069  77.2925110
  75.2271500  27.4404240  78.2174683  75.5776215  27.9289093  76.8283920
  16.3345776  38.1183586  16.2990570  15.5579796  38.6775970  16.2795086
  16.7713299  38.3436279  17.1204777  27.1074753  53.5236435  86.1531754
  26.6792583  53.6253662  85.3031616  26.3868675  53.4019737  86.7713547
  77.1169128  19.9148254  85.6917343  77.2929230  19.3875580  86.4709930
  77.9834213  20.1647224  85.3708954  17.3338585  37.6247330   0.5402928
  17.1470585  38.5595894   0.6261772  18.2893791  37.5724297   0.5184780
  15.1893606  21.0269451  13.3145170  15.2213697  21.7203789  12.6554604
  14.6829414  20.3273869  12.9017334  51.6485901  40.5005684  22.7906742
  51.8566246  39.5727463  22.9006653  52.4731636  40.9534836  22.9672546
  59.0532684  48.9192963  27.7931232  59.5605965  49.6999664  28.0153980
  58.1454468  49.2219429  27.7708054  17.0361366  59.2497253  83.8808899
  17.1434364  58.7148857  83.0943375  17.8245506  59.0788612  84.3961029
  82.2932205  64.9285507  31.2108955  81.4656219  65.1715546  31.6259365
  82.8639603  65.6834335  31.3545780  12.9392300  43.5277367   0.5914277
  12.6637716  43.3352852  -0.3048512  13.7749205  43.0711784   0.6884165
  25.0676365   7.7318139   8.1405935  24.6384430   8.2856970   7.4884896
  25.8525963   8.2196054   8.3898506  12.6947765  30.5165634   4.2426386
  13.5315056  30.6549072   4.6864586  12.6986017  31.1469707   3.5223582
  40.2601280  34.0187149   9.2850132  39.9314995  33.8946953  10.1754379
  41.2117958  34.0494423   9.3830490  40.1099129  57.3373756  84.4863586
  40.1632919  56.3817177  84.4763794  39.1767578  57.5240746  84.5892944
  11.7903271  28.0488453  69.9021912  12.1762600  27.2295589  70.2121201
  11.2178669  27.7863274  69.1813583   4.3884001  46.5958176  11.1474915
   3.5435712  46.6703110  10.7037048   4.7720881  47.4701881  11.0804386
  44.7255745  63.5374069  38.0660286  45.5407791  63.9788895  37.8277702
  44.6256638  62.8482018  37.4093361  15.5356312   0.5349439  12.3051491
  16.0638866   0.9602680  12.9806318  15.6312380  -0.4012012  12.4804306
  70.2931061  42.6011238  42.5508461  71.1534195  42.5184669  42.9622498
  69.7222137  42.9175453  43.2509842  23.9941559  49.0076103  54.8164902
  24.2260361  49.8402138  54.4051056  24.3927364  48.3434105  54.2541695
  32.0645332  59.1894875  88.5387878  32.1184883  58.5153732  87.8613739
  32.8393135  59.0455780  89.0821381  63.2729568  15.8469458  59.0471191
  63.8554230  15.0891590  59.0992966  63.0145607  16.0132923  59.9536438
  36.2721977  44.8214111  84.9051285  36.1974373  45.5801620  84.3263931
  36.8376770  44.2125549  84.4299850   0.3646113  23.1702881  12.1258001
   0.8067214  22.3304501  12.2500734  -0.4537376  23.0848484  12.6149187
  41.4493752  55.9889641  50.8451004  42.2523232  56.0619316  51.3610268
  41.3535995  55.0505486  50.6825066  61.2412376  33.2082176   0.7232760
  61.8595924  33.8897438   0.4598600  61.5432663  32.4219971   0.2684492
   9.9893026  61.4866486  62.9407616  10.4459524  61.8585548  63.6953392
   9.4149380  60.8180695  63.3140450  52.1930847  37.1298370  67.0620956
  52.0805016  38.0658226  67.2278976  53.1409416  36.9969063  67.0734024
  49.5434875   7.7176828  28.5483227  49.0025902   8.0140762  29.2803173
  50.4129448   8.0723705  28.7339802  21.6732750   7.5201783   0.4290657
  21.7939339   8.0299196   1.2302127  22.0362759   6.6590285   0.6361477
  63.1689873  58.1351089  19.8826942  62.8056717  58.4287567  20.7181625
  63.7144508  57.3821335  20.1101379  10.2310715  46.6065483  23.1501713
   9.9216318  45.8701591  23.6776276  10.0553589  46.3444252  22.2464848
  29.7802277  70.4391937  80.5090485  30.5451469  70.0811234  80.0585861
  29.4776821  71.1477432  79.9410248  57.4423409  40.3677254  72.4144440
  57.9868126  39.7655602  72.9215698  56.6060219  39.9119720  72.3191071
  46.3781586   2.3438938  29.2156391  46.1932907   2.0404394  28.3268356
  46.1473656   3.2727859  29.2044449  41.9072647  16.2415276  60.5949326
  41.9305420  17.0505390  61.1059990  41.1260071  15.7841797  60.9058952
  24.0278397  39.5269547  20.3471603  24.1202850  40.4658585  20.5088520
  23.1574020  39.4352074  19.9596653  54.5976524  27.0129108  32.6991997
  55.3700371  27.0497494  32.1350174  54.9510612  27.0025444  33.5887108
  49.5159721  67.9764481  30.5483627  49.3490906  67.9517517  31.4905796
  50.2195511  68.6174011  30.4464607  62.3407173  14.8720961  24.8474979
  63.1118660  15.1912031  25.3162518  61.7048454  15.5838919  24.9199295
  35.1243324  52.3513107  77.1704483  34.6096840  52.4517670  76.3696518
  35.8709183  51.8121986  76.9093094  83.6287231  32.2955055  84.7874069
  82.6846313  32.4531174  84.7957535  83.9640579  32.8106918  85.5211411
   2.3660436   9.0795336  57.1004219   3.0389152   9.7410574  57.2612419
   1.8288928   9.4496326  56.3999023  74.8426514  19.0635433  48.6799049
  75.4975128  19.1152191  49.3761215  75.1630707  18.3722496  48.1005325
  61.0577087  63.0186234  69.4541321  60.3410606  62.4573822  69.1580658
  61.8512764  62.5371742  69.2202759  86.1742249  10.9338551  20.6288891
  86.5246887  11.8102722  20.4698334  86.9337463  10.4174786  20.8985252
  59.6247215  53.6247864  43.7720604  60.3942184  53.0566177  43.7361221
  58.8809891  53.0232620  43.7365532  79.4668579  58.6854210  41.2961807
  80.2116928  59.2434158  41.0723648  79.7293472  58.2493248  42.1068268
   6.5926514  68.9700089  85.6261673   6.9843259  68.5525818  86.3933563
   6.4353523  69.8737946  85.8993912  69.0887985  21.8929214  48.6381645
  68.7233124  21.1358242  48.1805000  68.3412704  22.4755440  48.7722626
  67.6599121  36.6889229  25.5533829  66.9709549  36.9030952  26.1824284
  67.9359970  37.5358086  25.2029667  67.1190262  58.1719017  41.0556488
  66.1626968  58.1966553  41.0231247  67.3762131  57.7614403  40.2300568
  78.2063522  62.1399193  45.9626808  78.4918823  62.2117424  45.0518837
  77.2597275  62.2776489  45.9284935  84.0241547  41.2966118   7.7736430
  84.8009262  41.3951340   7.2230520  84.1427689  41.9398766   8.4724798
  11.2921095  59.7715912  44.3515282  10.9722633  60.5082512  44.8723564
  11.6781654  60.1769562  43.5750771  32.3750343  38.9505310  14.1090803
  31.5063858  38.8213577  13.7282906  32.9495087  38.3855896  13.5923128
  66.9289780  66.5580292  87.7225876  66.2204971  65.9781570  87.4432220
  67.6564178  65.9686356  87.9217987  29.4877148  46.2264595  59.1695061
  29.3366241  45.6276360  59.9008179  29.1185875  45.7752647  58.4102974
  53.0975876  54.0379333  32.1461143  53.1447144  54.5703239  31.3520279
  52.2089653  53.6821594  32.1435623  22.9944611  67.2562256  19.4502869
  23.5606384  67.3699265  18.6869087  22.9020863  66.3078003  19.5408344
  15.4418964   3.0558531   5.1027040  14.5117092   2.8307211   5.1200294
  15.7356119   2.7934935   4.2302761  63.2396202  42.5100555  53.0145683
  63.2970924  41.5608406  53.1237411  62.7889023  42.6281242  52.1784210
  17.8119316   2.4784217  56.7386246  17.6855698   2.8299563  57.6199226
  17.0213852   2.7338996  56.2632294  44.7872810  60.7215767  55.4076767
  44.7478561  61.0716591  54.5176659  45.3380814  61.3421059  55.8849564
  31.1135731   7.4358029  75.6848297  31.8610420   8.0177383  75.8222122
  31.3872643   6.6007204  76.0642471  15.1522198   3.0275118  49.5475006
  16.0859299   2.9108236  49.7229996  14.7467613   2.2189879  49.8607483
  78.1851959  26.5191231  41.4020271  77.4106140  26.0156269  41.1515388
  78.7719421  26.4462948  40.6492615   8.7418051  49.8994942  72.2896652
   8.8585892  50.7607040  72.6907959   8.3198338  49.3739319  72.9693375
  64.5421600  58.5348663  38.0247498  64.0886917  58.7416534  37.2075348
  64.0739594  57.7761307  38.3730965  66.0836945  42.3074646  59.2548027
  66.3527527  41.8131981  58.4805069  66.3700714  41.7701569  59.9933929
  31.5344181   4.0905685  87.1062012  31.0466499   4.8523707  86.7931976
  30.8692131   3.4126868  87.2254181  79.9780579  39.2980385   9.3240175
  80.2551651  40.0502548   9.8470964  80.3658142  39.4497566   8.4621277
  56.2521935   5.9001546  85.8165665  56.1778603   5.1634016  85.2100143
  56.7048759   5.5384231  86.5784454  12.9754200  52.1929092  26.3786564
  13.3859949  52.6497803  25.6445389  12.5891008  52.8900452  26.9087448
   1.4124849   6.8108029  72.4500656   2.1524060   6.7618804  73.0553436
   1.7962183   6.6456370  71.5888519  75.5331802   6.4700794  17.8490047
  75.6180115   6.6085720  16.9056816  75.6709595   5.5301542  17.9664345
  34.5283852  69.1273270  22.3117008  34.0298805  69.9360504  22.4287281
  35.1651688  69.3353043  21.6279736  64.8614655  25.9279537   3.0635879
  65.2451324  26.2748165   2.2581601  64.6474304  26.7044945   3.5807009
  46.5193901  22.3704548   0.6447643  46.2455711  21.4739876   0.4508506
  46.7109299  22.3648281   1.5825881  38.1574821  45.9793701  71.0298309
  38.1869621  46.5093269  71.8263931  38.8063507  45.2910080  71.1759720
  38.4549255  13.9366417  67.3859482  37.7435570  13.5527544  67.8986053
  38.1978073  14.8509035  67.2665863  10.5780954  26.0403652  75.6868439
  10.9199762  25.4972553  74.9766464  11.0533066  26.8673306  75.6060104
  75.4689331  10.5597048  21.9999294  75.6814880   9.9699965  21.2765369
  74.5219498  10.4730444  22.1092453  62.5407372  69.3705597  73.6984482
  62.6336060  69.7881393  74.5547485  62.3989143  70.0972137  73.0917435
  59.7552757  61.0557632  47.6166573  59.5777626  61.5204544  46.7988663
  60.5624313  61.4508324  47.9462814  70.4774780  60.5586815  34.2843132
  69.8106155  59.9429283  33.9803772  71.2534103  60.3468056  33.7654037
  12.4573221  63.1613274   9.0663624  13.0935383  63.8758354   9.0356989
  12.5991564  62.7507744   9.9193335  16.4356403   9.0803242  81.4615555
  16.5139637   8.4107933  82.1411285  16.5089111   9.9100342  81.9331970
  31.0495052  24.0435810  84.3491364  30.2216568  24.4137650  84.0427704
  31.3340378  24.6363106  85.0447998   6.9684134  31.0663853  12.5596771
   6.4206738  30.3566895  12.2241993   6.7192025  31.1465416  13.4803839
  73.3120193  50.7665939  28.5681477  72.7898254  49.9675789  28.4966335
  73.0964508  51.1170578  29.4324017  36.5508232  21.9044170  20.4074116
  36.8115616  22.1441936  19.5181675  37.1815605  22.3525009  20.9709892
  19.1714954   0.3269758  66.9747849  19.1024094  -0.2258639  67.7531357
  18.2851028   0.6620080  66.8395233  12.6673517  30.8682308  79.2389069
  12.4690971  30.2931423  79.9779587  12.9883461  30.2789764  78.5562820
   1.5232980  28.8296337  67.2517548   2.2298086  28.2618942  67.5595627
   1.8967154  29.7106857  67.2748947  40.2972488  50.1405106  75.3453598
  40.2664566  49.2406807  75.6703033  40.9869995  50.5580025  75.8612823
  49.1096115  46.7220573   1.0922519  49.2702904  47.6451302   1.2880809
  49.7351418  46.5119057   0.3988668  73.2782669  56.4635048  32.4722137
  73.9826355  55.9958420  32.9209747  72.4981003  55.9326172  32.6326256
  40.6898346  36.8765297  75.2073517  41.5028725  37.2972450  75.4869919
  40.0056763  37.3210030  75.7079468  71.8845062  14.5612650  50.3021736
  71.6660995  13.6794481  50.0006294  72.2316437  15.0007248  49.5259018
  80.4135742  46.9484215  41.2152748  81.1965485  46.7621689  40.6971130
  80.6249619  47.7536163  41.6877213  13.3499022  45.1030960  62.8552666
  13.7403545  44.8288116  62.0254784  12.9163637  44.3169899  63.1874008
   1.7622985   0.0243901  83.8262024   1.9490410   0.9349608  83.5976868
   2.4198346  -0.1967188  84.4857407  20.2914143  55.2985420  85.0906448
  20.3222847  56.2158699  85.3622818  19.5049248  54.9506378  85.5109100
  61.7508278  58.4337349  33.4105568  61.1105042  58.3677444  34.1189804
  62.0382271  57.5327377  33.2627792   9.1600418  49.7842255  62.5457916
   9.4324141  50.1067543  63.4048729   8.2243261  49.9810143  62.5017128
  80.3909454  40.0201111  41.1595993  79.5572510  39.8700294  40.7138977
  80.1553497  40.1160164  42.0823822  32.6979179  61.6313553  77.4127579
  32.9348946  62.0730629  78.2282104  32.3116951  62.3195648  76.8710632
  59.9650764  67.7708740   3.4810710  60.4128647  66.9261475   3.5275865
  59.2616158  67.7049255   4.1268463  75.9066467   4.2689381  49.0509377
  76.5711670   3.6610935  48.7266502  75.7888641   4.8973813  48.3386040
   3.1361649  34.6309204  50.1195335   2.9868531  35.4007454  50.6684494
   3.6595929  34.9567184  49.3873367  42.2152557  63.0674438  35.4134903
  42.4442825  62.2823753  35.9109268  42.9854126  63.2412376  34.8722992
  60.2931519   0.2677973  85.1581573  61.1293221   0.7114022  85.3005142
  60.0389099   0.5154865  84.2692032  15.3599205  13.4011316  60.0320320
  16.2864666  13.5934830  59.8880005  15.0387020  14.1417084  60.5464211
  47.4426804  31.5786858  87.4924088  47.8211365  30.7341366  87.2479935
  48.0743141  32.2246857  87.1762466  47.7637444   0.8905684  86.1014557
  47.1164513   1.5729280  86.2793045  48.1774635   0.7261788  86.9488297
  17.2289734  57.9829636  77.9331665  16.5111542  58.6160316  77.9471970
  18.0133343  58.5065613  78.0970535  64.4210739   9.3593979  79.6355591
  64.0400391   9.4022551  78.7585144  63.8816948   8.7194128  80.1000214
  59.4632874  58.1651077  56.8142166  59.1800652  58.3360291  57.7124367
  59.0697746  57.3203506  56.5956459  49.9341774  40.0121193  34.9993324
  49.0834846  40.2077560  34.6065521  50.3410797  39.3929100  34.3933258
  26.8298721   0.9816821  33.5176697  26.9073238   1.1441021  34.4578056
  27.5450974   1.4845270  33.1280174  33.6874924   4.0365705  71.5765076
  33.8924599   3.8662891  70.6571426  33.0526161   4.7524996  71.5517273
  83.2914581  69.1936493  44.1346970  83.8801117  69.6614990  43.5423775
  83.8400879  68.5182343  44.5335007  50.8723221  12.3688545  40.0591812
  51.8180084  12.4869289  40.1484642  50.5067863  13.2404833  40.2104340
  30.1945858  43.5936089   4.6044626  29.5691547  43.1354904   5.1658821
  30.0988216  43.1758919   3.7485588  81.1801682  63.3761292  24.6753120
  82.0115128  63.2625999  24.2146549  80.5700531  63.6709900  23.9992561
  72.7639313  60.4098892   7.0931926  73.5077515  60.4951286   6.4967914
  72.8177261  61.1828842   7.6551666   2.8017595   5.1936851  60.8259583
   2.8491769   5.9732862  60.2725983   3.4894154   5.3216038  61.4794083
  41.5731125  31.8998108  18.8725758  42.0841293  31.1477356  18.5734482
  40.9968529  31.5440426  19.5490265  44.0345993  38.9328842   9.8837433
  44.3361130  39.6783905   9.3645658  44.3222389  38.1650658   9.3898335
  66.7328033  31.8067265  27.9722004  67.0466461  32.0697899  27.1070213
  67.1746750  32.4014015  28.5782890  15.2995577  36.1389198  54.3380241
  14.6093569  36.4407082  53.7474480  16.1115589  36.4434052  53.9328384
  12.1298285  16.0456448  64.4884186  11.9527702  15.1216478  64.6648102
  13.0805979  16.1261063  64.5645447  24.7028675  52.9867554  77.7860947
  23.9340820  53.3520088  78.2240372  24.6565151  52.0474892  77.9646072
  29.6326141  40.4980507  17.6472626  30.4862213  40.7542915  17.9964466
  29.5641556  39.5637245  17.8436871   1.2243905  22.6004391  21.8094139
   0.9350457  21.9150829  22.4117413   1.4309940  22.1352768  20.9987526
  48.0119667  17.4697609  62.1409569  47.8237953  18.1371441  61.4810905
  47.8556137  16.6387138  61.6924667  72.9638824  41.9512405  84.6319656
  73.6204376  42.6471786  84.6608124  72.9783707  41.5717278  85.5105972
  77.4307861   9.5087624   2.7991221  77.2533035   9.0144854   3.5993860
  78.1116943   9.0054169   2.3527651  71.9193192  24.1676788  12.6468430
  72.0533981  23.5455627  11.9318409  72.1768723  23.6873379  13.4337196
  30.8688450  47.4823341  48.4754524  30.3933754  48.2451019  48.1462975
  30.4570713  46.7366676  48.0388107  56.7057800  50.6899986  32.4616928
  55.7674980  50.6275215  32.2829437  57.0235825  51.3498955  31.8454418
  50.3342705  25.7515831  60.0373039  51.1225052  26.2857075  60.1353989
  50.5647926  25.1046047  59.3705864  34.2370987  42.6603012  38.3190536
  34.1866417  43.1581764  37.5030823  35.1043892  42.8626823  38.6698799
  85.8912659  57.0735054  15.2799807  86.2218018  56.1752396  15.2897081
  86.6518173  57.6060715  15.0472460  40.1352463  30.9957085  63.2141724
  40.3014717  31.6665611  63.8764114  40.4887886  30.1913795  63.5940361
  45.6236687   1.3888853  36.4054718  46.0704613   1.1964643  35.5811043
  45.1747131   0.5739919  36.6304588  51.3240929  55.0483055  67.3759460
  51.0814056  55.8150635  66.8569031  52.2537193  55.1728897  67.5670242
  50.2953300  64.5128784  64.7191620  50.9602814  64.8646545  65.3110504
  49.5626793  65.1246262  64.7913284  38.0491333  37.0814896   4.8050089
  38.8713303  36.5928459   4.7668705  38.3115578  37.9749107   5.0267439
  34.1380196  56.6377754  36.3746262  34.0543633  55.6887703  36.4674835
  33.2357483  56.9559479  36.3445511  57.8326187  17.4798222  19.3825760
  57.1518364  17.1624260  18.7892570  58.6196136  17.5285511  18.8399010
  38.0803146  25.8227787  88.6032867  37.3066139  26.0851116  88.1044846
  38.7931862  26.3409023  88.2296600  38.5292053  67.2026749  83.9413605
  38.3861237  68.0148697  83.4554596  39.0228920  66.6467285  83.3385086
  61.0106697  23.1022625  47.2345238  61.0116539  24.0554390  47.3222008
  60.2978630  22.8102112  47.8027153  57.3490829  70.2870331  63.6374779
  57.6877632  71.0616760  63.1886368  58.1069603  69.7084274  63.7215309
  -0.0563665  30.5242310  79.6507797   0.4269344  30.7593079  78.8586960
   0.6220185  30.3675518  80.3076477  23.6006203   5.4590378   8.9734592
  23.4838200   6.1751776   8.3491726  23.1655560   5.7625241   9.7702322
  46.2439957  59.9339828  65.0661163  46.9436913  59.2916870  64.9473190
  45.7092857  59.8545265  64.2761765  12.1889629  17.1872482  22.8926544
  12.2400084  16.9512882  23.8189087  11.2625160  17.3769417  22.7445202
   3.5764389  66.9952164  11.2253389   4.0221343  67.8414459  11.1868114
   3.8583841  66.5396881  10.4320984  78.4392624  37.7647057  18.4794559
  79.0511551  37.4698982  17.8049831  77.9621048  38.4869003  18.0708141
   5.9720192  60.5720787  33.4857292   6.7291346  60.1971359  33.0358086
   5.2157269  60.1782608  33.0508003  85.1940536   0.7255085  80.1154404
  85.9198151   1.3485885  80.0797272  85.2395935   0.3550292  80.9968567
  37.6114769  61.8976707  37.9721107  37.8778687  61.3123627  37.2631073
  38.1247520  61.6089134  38.7266960  48.0700493  64.9513016  49.2655869
  47.3446846  65.4302673  48.8647537  48.2147102  65.3923187  50.1027336
  30.4008961  30.1474571   6.6599727  30.6760254  29.2916164   6.9887166
  31.2192745  30.6203651   6.5088277  65.5374908  69.8908691  17.9663448
  66.1023254  69.3915024  17.3765812  65.4010544  69.3108826  18.7154999
  81.6231766  47.0893135  29.3604240  81.1212692  47.6838951  28.8029404
  81.9925613  47.6529312  30.0402260  79.4704895  27.0669556  66.1003113
  79.8179855  26.2558155  66.4711685  80.2146454  27.4598083  65.6440964
  37.6874313   0.2285328   3.2519667  36.8940315   0.7468049   3.1172764
  37.7286377  -0.3488593   2.4896333  86.2730026  26.1230412  75.6020203
  86.9770279  26.3895321  76.1932526  86.4727631  25.2119350  75.3870544
  75.9334335  12.1823616  54.4953651  75.5677338  13.0382710  54.2719421
  76.1318359  12.2431974  55.4297981  74.6486435  69.4131088  66.6798019
  74.1591110  69.9719391  66.0762329  75.1130142  70.0256882  67.2501831
  36.9749107  16.1093483  72.2913055  36.7836685  15.1716604  72.2713318
  37.9149590  16.1657677  72.1199417   4.7003031  35.8339081  24.3393459
   3.9893906  35.2955551  23.9914780   4.9384427  36.4130745  23.6154079
  43.1875954  50.7414742  40.8980293  42.3755836  50.7535210  41.4047050
  43.6152725  51.5708542  41.1112328  53.3069496  43.9970436  43.8821449
  53.0531616  44.4104118  44.7073402  54.2568092  44.1079330  43.8408966
  79.2361603  14.2317533  51.7688866  79.8972549  13.9687643  51.1285553
  79.1125031  13.4571142  52.3174095  58.9640694  28.2636070  12.9842196
  58.8024101  27.5179424  13.5622187  59.4090309  28.9044666  13.5387831
  69.8217163  58.9479866  16.4928856  70.3452301  58.8491173  17.2881126
  69.4218674  58.0883675  16.3609409  83.5051651  24.4393711  18.4051361
  84.2349854  25.0587120  18.4085732  83.5709305  23.9870434  19.2461510
  73.6220245  43.2827644  70.9014435  73.2608643  43.6257210  70.0840225
  74.0661316  44.0313263  71.2997589  57.1578712  68.3288269  17.8847370
  56.2730598  68.1151733  17.5886097  57.1337967  69.2711716  18.0509834
  85.1585846  54.9486847   5.1547108  85.6132736  55.7259331   5.4793301
  85.7188339  54.6195297   4.4518528  63.7265053  59.2951126  88.8601685
  63.4857101  59.0486488  87.9671326  64.5512848  59.7710953  88.7631302
  48.0186958  11.2949076  37.5230827  47.5697365  11.2069330  36.6822891
  48.6173172  12.0314522  37.3990402  21.3366871  14.0019760  87.1327133
  21.5915699  14.7984610  86.6670151  20.8321915  14.3146639  87.8836746
  43.1629486  60.3865318  82.5942688  43.2571564  59.5499992  82.1386795
  43.9070435  60.4168816  83.1956329  59.4063377  37.1186295  77.4458389
  59.4135857  37.4512444  78.3433609  59.5394554  36.1753120  77.5389099
  10.6926403  40.7231979  26.9568310  10.3703423  39.8242226  26.8920536
  11.4022207  40.6776505  27.5976543  16.8335953  44.7093468  84.3130188
  17.5942516  44.1720085  84.5341568  16.4454899  44.2741966  83.5539093
  80.0159760  45.8593636  36.3063622  79.3256760  46.4560204  36.0170174
  80.2320709  45.3472290  35.5270958  11.9182796  68.7012177  45.7501831
  11.4816742  68.1120834  46.3654366  12.8168583  68.3748245  45.7026863
  65.7291031  34.3132935  48.8161621  65.7641220  33.4523544  48.3992805
  65.7671280  34.9336357  48.0881767  25.9716415  65.4182968   6.8214712
  26.6635704  64.9725418   6.3328295  25.2156944  65.4026260   6.2345023
  39.5935745  20.7828102  83.7279053  39.2389412  21.1048050  84.5566330
  39.2631454  21.3961868  83.0715408  13.3542767  61.9074593  34.0160141
  13.5593214  62.3365288  34.8467293  12.4144163  62.0468788  33.9000053
  68.1652298  24.8819180  66.7684555  68.7186508  24.1147366  66.9147339
  67.3414612  24.6702442  67.2075806  17.5554733  20.2362881  25.9145203
  17.7039394  19.3033047  26.0685806  16.8538456  20.4706745  26.5219860
  77.5446167  45.6466789  22.6293201  78.0513077  46.2611198  22.0983162
  77.9310837  44.7915878  22.4403877  21.4745579  53.2808952  11.5422859
  22.3923321  53.5502625  11.5053473  21.3118992  52.8677025  10.6943197
  29.4314499  51.1371422  43.0827827  29.8128681  50.4883232  43.6742134
  29.5258751  50.7518997  42.2116318  59.7192955   3.1539834  58.3613548
  59.5093422   2.4176826  58.9358215  59.0387688   3.8018763  58.5439644
  56.9983406  24.8605480  30.0037766  56.9430313  24.3738365  30.8261414
  57.4535866  24.2684021  29.4051571  85.2463303  62.3923836  63.9285698
  86.0054016  62.0910797  64.4278259  85.5763168  63.1267700  63.4108620
  71.3812103  18.8168011  31.6791401  71.3720932  18.7884426  30.7224045
  71.6398239  19.7140255  31.8897095  11.5445080   1.9903151  79.3090515
  11.9346991   1.8454540  80.1710281  11.7727346   2.8941321  79.0916595
  61.5983276  66.3661957  83.4159622  62.3691063  65.8788300  83.7068481
  61.7927513  66.6028137  82.5090790  58.9164238  68.4216003  32.6531296
  59.5621452  67.7462769  32.8609962  58.6660156  68.2426682  31.7467575
  62.7007866  51.6573524  24.3957424  63.2870712  51.2811661  23.7392464
  62.3381310  52.4366455  23.9745350  73.4955368  11.7505398  48.4826851
  72.6452637  11.9923944  48.8498077  74.0593033  11.6257715  49.2461205
  84.4816818  20.7824669  21.6288681  84.4264908  19.9439125  22.0871353
  84.0493240  21.4042435  22.2142677  84.0640945  56.0000916  58.8540993
  84.9892349  55.7702980  58.9409256  83.8317490  55.7270126  57.9665871
  72.7725449  30.8287411  15.2243528  73.4412308  31.0940208  14.5929060
  73.1178436  31.1105232  16.0714645  55.5226669  42.9236183  84.1758728
  55.7416954  42.5180283  85.0147705  56.2324867  43.5461464  84.0182343
  84.7798080  34.8644218  86.8656006  84.1597061  35.2421799  86.2418976
  84.7307587  35.4387360  87.6297913  35.6947403  56.3753738  34.1681213
  35.2211609  56.3577881  34.9997749  35.0207596  56.2242012  33.5054588
  65.8008957  45.5043373   9.3171606  66.2861862  46.0808868   9.9073458
  65.9476700  44.6253929   9.6666546  57.0355988   2.5454030  81.2729645
  57.7696877   3.1573925  81.3260040  57.2644844   1.8434439  81.8821411
  16.0452194  43.5748787  65.2390976  16.3262215  44.1082840  64.4956284
  15.0889969  43.5971603  65.2020340  54.9713669  46.9718170  11.4472761
  55.6727104  47.6211967  11.3957729  54.6951599  46.9897537  12.3635845
  54.7729111   1.6846759  54.3290634  54.6538086   0.9071679  54.8745232
  55.0860023   2.3565011  54.9347496   2.4099565  56.2684288  52.0781364
   1.6128734  55.9967346  51.6230850   2.6449091  55.5152283  52.6200981
  46.4703865   1.1725423  64.0317612  47.0436249   0.7287083  64.6567688
  45.7371445   0.5695639  63.9092674  32.7196045  44.5392723  85.6016006
  33.1929398  43.7086182  85.6484985  32.1280670  44.4361076  84.8561707
   0.3573302  35.3954544  75.7141266   1.2407149  35.7123489  75.5258713
  -0.1759479  36.1887207  75.7648773  52.3074684  27.8628597  84.3218536
  52.7639465  28.5560913  84.7986069  52.9982719  27.2493172  84.0716782
  14.3874750  50.5091858  40.8813057  14.0087719  49.6313744  40.9288750
  13.6621752  51.0950127  41.0980530  75.7594147  49.2670364  40.8200645
  75.5655289  49.8659286  40.0989761  76.2060699  49.8104591  41.4692383
  26.7010536  67.2756195  82.0933456  25.8658848  67.1957550  81.6325378
  27.0056152  66.3739014  82.1951675  10.8421812   6.0912471   4.0724506
  11.3417854   5.4876938   4.6223145  10.4928122   6.7392516   4.6842217
  35.9472122  55.3116226  75.9132843  35.8004837  55.4013824  76.8549042
  35.6890602  54.4113846  75.7154007  37.7836723  41.7891808   5.0793948
  38.6934395  42.0775070   5.0057502  37.3320656  42.2361641   4.3635120
  41.0973892  10.9714746  63.6214905  41.5366669  10.9429312  62.7715187
  41.0597000  11.9025259  63.8404732   2.1822920  49.1910744  42.7781143
   2.7127271  48.3946800  42.7531128   2.3386142  49.6096382  41.9315910
  71.9182205  59.1931572  46.7613258  72.6312103  58.5585938  46.6891632
  71.2599182  58.8856468  46.1381836   5.8289447  35.1068802   7.9146276
   5.4547758  35.8477783   7.4378691   6.7755179  35.2322311   7.8474135
  38.5612602  16.6579113  68.7266769  38.2854156  17.0106373  69.5726776
  39.1355705  15.9249821  68.9485168   4.5505791  51.4828529  13.8827152
   5.0650578  51.9829025  13.2490797   4.3840008  52.0993156  14.5957775
  32.2717743  45.7950172   3.6751180  31.4228745  46.0596390   4.0294862
  32.3428459  44.8655434   3.8925014  70.8786392  58.5519981  -0.0142397
  71.5096588  57.9636612   0.4003682  71.2082138  59.4300499   0.1771716
  47.8322525   4.0265765  72.9865036  48.3584366   4.6056685  73.5378799
  46.9764404   4.0008187  73.4144669  41.7375908  49.0275040   4.8117447
  41.5271568  48.8483429   5.7281785  40.9152412  48.8813667   4.3441792
  -0.1083208  37.4838943  36.5146828   0.3772400  37.2290878  37.2992439
  -0.1169792  38.4407539  36.5385895  17.4947510  17.2452164  17.2422676
  16.7579746  17.1655502  16.6364231  17.1744003  16.8650723  18.0602512
  54.2597275  38.3668671  50.6385880  54.5442162  38.9883385  49.9684601
  53.4259300  38.7174225  50.9518318  36.8881531  28.1073933   7.5850854
  36.2277145  28.7801952   7.4195809  37.7031441  28.4853840   7.2547178
  63.9665718  43.7799644  28.5615864  63.0644913  44.0176849  28.7760029
  63.9136353  42.8656197  28.2833748  75.1127853  23.1920052  52.3622971
  75.9575119  23.0263329  51.9436989  75.1071930  24.1351891  52.5254021
  51.5585785  21.8164654  12.2690163  51.8320351  22.7321663  12.3232994
  52.0628052  21.3750057  12.9524612  50.5901909  48.2600784   8.8532200
  51.0478973  48.4532394   9.6714058  49.7994270  47.7943726   9.1253242
  58.6172409   9.3216000   6.7672200  59.2510605   8.9473686   6.1552925
  57.7835693   9.2895575   6.2979712  42.4925041  52.5444908   0.7624044
  41.9902763  53.3588676   0.7904553  42.4491730  52.2054558   1.6565013
  43.0386848  71.1171570  26.2498474  42.4440613  70.6240082  26.8150520
  42.8992844  72.0317230  26.4955425  48.2977791  12.5733805  70.3509064
  48.1178398  12.0587568  71.1376877  48.9335861  13.2302694  70.6345978
  50.6911011  54.1113472  70.5786514  50.5477371  54.3111572  71.5037155
  51.5219955  54.5371513  70.3676147  83.3802795  11.3001213  57.9510307
  82.4886627  11.4002237  57.6175117  83.8253860  10.7704630  57.2895355
  53.9015846  51.5194702  59.8587646  53.1406212  50.9698448  59.6714821
  54.5331306  51.2950706  59.1753731  83.1734314  68.0757675  57.2068062
  82.6511841  68.0442352  56.4052467  83.8489456  68.7296600  57.0269775
  14.5015039  49.7737694   0.6903142  15.4090204  49.5020714   0.5531038
  14.2441835  49.3457069   1.5068811  82.0385132  23.3885498  37.5899658
  81.5076752  22.6160793  37.3957291  81.6040039  24.1016026  37.1220055
  70.7163315  56.0382919  56.0640755  70.9695740  56.1011124  56.9850235
  71.5343094  56.1594543  55.5819397  79.5393906  38.8913727  62.6817017
  78.6311264  39.1077156  62.8926239  79.9265442  38.6396103  63.5201263
  23.9347382  39.3167992  44.9695702  24.5062675  39.8858414  45.4851112
  24.5284653  38.8512878  44.3804855  20.4895401  49.1723824  55.0256958
  21.0978966  49.8938026  55.1859665  19.6427994  49.5016708  55.3270798
  49.5837936  38.5043716  78.1496124  49.4060020  37.7522697  77.5848389
  50.5361404  38.5986519  78.1301880  50.0559998  58.2873764  37.9736786
  49.6112061  59.0164261  38.4059753  50.3935356  57.7527199  38.6923180
  47.6660576  66.6430359  15.9303322  47.7757378  65.8912354  15.3480959
  46.8298569  67.0285339  15.6688032   6.0392570  31.9580688  45.3615913
   6.9569063  31.8448849  45.1139221   5.5962563  32.1825485  44.5433083
  31.0750427   1.4207182  78.4131775  31.8436699   1.7980447  78.8410416
  30.3474846   1.6316795  78.9983139  52.1467743  21.7095451  29.8941345
  51.6446419  22.0014992  29.1333084  52.4710159  20.8429565  29.6489315
  59.8195686  60.5769501  68.7773285  60.5854034  60.0929985  69.0863876
  59.2752495  59.9160233  68.3493958  43.6156197  58.7934914  15.5552559
  44.3583908  59.0050354  14.9897718  43.3817787  57.8961678  15.3178425
  72.0997009  15.5179186  82.8590927  72.7866821  15.9962530  83.3232803
  72.1892853  14.6147699  83.1632767  51.1169586  70.6057129   4.0699277
  51.0697632  71.1055756   4.8848763  51.6040649  71.1707840   3.4702187
  36.9278412  36.3287506  84.9501724  36.5895233  35.7408257  84.2748108
  37.0801163  37.1559563  84.4932480  15.4506454  37.0683556  86.0444565
  15.3023930  36.4330826  85.3439713  14.7123680  36.9439087  86.6408539
  56.9899101  31.4223709  78.5873489  57.8054657  31.5614471  79.0687637
  57.2689247  31.0870113  77.7353363  38.2485542  13.8286018  80.3885727
  38.6652946  13.3853006  81.1275177  38.7553177  14.6326513  80.2748795
  43.2436485  39.1410484  35.3076401  42.7353096  39.3270378  36.0970917
  44.0941277  38.8472061  35.6340942  52.8876457  19.6496258  71.4710846
  52.4385300  20.4822254  71.3251343  53.2747116  19.4343128  70.6225204
  77.0777740  56.9295998  73.2940216  76.7339630  57.0368309  74.1808777
  77.7758560  56.2809753  73.3845673  75.4838104   3.8139246  15.6078739
  75.7596359   3.7144680  16.5190620  74.5392914   3.9608364  15.6582136
  61.8663368  26.3872356  50.1638031  61.5917778  25.6996899  50.7705421
  61.2259102  26.3495178  49.4534035  21.5155716  47.7534332   2.6426237
  20.6135769  48.0642052   2.7204461  21.9246502  48.3580742   2.0235159
  76.6870270  38.8940811  44.2576828  76.7960205  38.2049179  44.9129715
  77.1233978  38.5533142  43.4768562  84.3655167  28.8536167  88.4762802
  85.2210541  28.4318466  88.5563049  84.2839813  29.0549011  87.5440369
  11.2802887  65.7630615  42.3562927  11.5798216  66.6442337  42.5800056
  12.0800838  65.2885971  42.1294823  36.5791397  40.8883324  83.5110168
  37.1532326  40.2484512  83.9319763  37.1108322  41.6817245  83.4472885
  56.4028625  50.4268227   1.2433032  55.9752846  51.2764587   1.3506746
  56.9227257  50.3179741   2.0396230  46.3441238  25.2487755   7.8686700
  45.8058510  24.6671276   7.3318458  47.2164955  24.8554096   7.8472266
  59.7516289   5.5987000   1.5602301  60.5772781   5.1934085   1.8253157
  60.0134315   6.3454971   1.0217282  54.2516785  43.6658287   6.8577209
  54.4368973  43.9416313   7.7554169  53.5240479  43.0496178   6.9417844
  51.4067459  12.2267456  13.6680288  51.1159248  13.1129465  13.4528446
  50.9100723  11.9956541  14.4529791  58.7795448  32.3191147  36.7843781
  59.2636909  32.4540482  35.9697456  57.9941368  31.8402424  36.5197067
   7.3909049  34.4865417  49.8235741   6.9176402  34.6436768  50.6406212
   8.1269760  35.0977974  49.8517838  59.3676453  39.0294647  16.7663784
  59.9925156  38.8083572  17.4569435  59.8953629  39.0661774  15.9686317
  35.7533417  30.2867737  57.0476837  36.5177956  30.8510876  57.1634026
  35.7917252  29.6773529  57.7848129  46.4335480  37.4942207  48.0539780
  45.5799446  37.8884735  47.8746605  46.4841118  37.4566154  49.0091019
  47.4759369  64.1625137  88.6066589  47.1012077  64.7626495  89.2513733
  48.3960266  64.4195251  88.5466080  41.8617287  59.2932167  22.6290550
  42.6154289  59.8574066  22.8018570  41.2709923  59.8359642  22.1068592
  45.5371361  31.5916729  19.5120773  46.3877525  31.5823765  19.0732212
  44.9067230  31.4044380  18.8165493  10.7966833  24.8576984  10.4004250
  11.6070414  25.1839447  10.0091267  10.2575922  24.5979576   9.6533327
  24.9002571  61.0262108  50.5291100  24.2741718  60.7666779  49.8531723
  25.6885033  60.5199890  50.3325386  50.4353523  32.3265076  32.4455605
  51.0310593  33.0463142  32.2376099  50.8165436  31.5658398  32.0070305
  64.9283524  60.1789970   3.6720304  64.6088486  60.4685631   4.5266080
  65.7774353  59.7777290   3.8571699  72.5295486  43.2819557  89.0847702
  72.8269043  42.4681168  89.4915619  73.2862625  43.5912514  88.5868301
  65.2118378   7.8350768  88.4506607  65.2767715   8.6916056  88.0283203
  64.4885025   7.3997898  87.9995041  49.4554291  42.9577637  67.5155945
  49.9816093  43.7573662  67.5133820  50.0343437  42.2911148  67.8852844
  61.9891052  66.6363602  63.3530197  61.5134201  66.1666183  62.6679688
  62.3648186  67.3951111  62.9065094  38.3642197  68.5368958  42.7192574
  38.1748505  69.0176620  41.9135094  38.4399300  67.6240616  42.4413376
  57.3759727  23.9113960  17.6321583  56.9159431  23.8471680  16.7952137
  58.2619972  24.1876392  17.3978786   3.1358104  67.5633621  22.0469837
   2.8467846  68.4073257  22.3940067   3.7108183  67.7892609  21.3158436
  21.7466087  42.2630653  68.0912933  22.5563087  42.2007675  68.5979919
  22.0375710  42.4232635  67.1935730  49.0779915   7.7912316  51.7623520
  49.0455894   8.2221117  52.6164703  48.5991402   8.3798294  51.1788368
  22.4577084  40.2319717  42.9137344  22.0502949  41.0504112  43.1972885
  22.9109154  39.9078102  43.6920357  24.6710129  23.8075848  64.3362350
  25.4199581  23.9846344  63.7670555  24.0744724  23.2918510  63.7936554
  67.2718124  47.7357864   4.7705193  67.8663940  48.2824326   5.2842150
  67.3056107  46.8792839   5.1965404  34.9814186  36.2369576  80.8281555
  34.9601974  35.7948532  81.6768723  35.8164635  36.7048264  80.8226242
   9.9732666  15.6809196   3.4106174   9.2841635  16.3397217   3.4963388
   9.5427036  14.8542233   3.6283789  56.8247604   8.8128242  33.1781273
  56.3491135   9.1516037  32.4196930  56.2337761   8.1647997  33.5615768
  64.5736389  53.0567513  49.3175850  64.2990875  53.8926659  48.9406281
  65.0775452  52.6343117  48.6219902  37.8015633  39.9253960  88.6344528
  38.2727547  39.1228828  88.8584747  38.2887497  40.2910004  87.8960724
  36.4764137  39.8649368  41.3648987  36.4402962  40.2342949  40.4825706
  35.8105888  39.1772537  41.3641167  52.7286186  26.7979431  22.8805428
  52.6491051  25.8784122  22.6268196  53.1542397  26.7739849  23.7375736
  75.1202774  55.8278809   3.9597037  75.2243195  55.0290756   4.4767351
  75.3336258  56.5359993   4.5673866  46.4442177  51.1148758  77.5271912
  46.7287636  50.2974434  77.9359360  47.1585922  51.7289276  77.6970139
  73.1586075  18.4065094  54.2024307  73.4548645  17.6008205  53.7789612
  72.9071426  18.9793663  53.4779778  72.0349731   3.7613487  25.3293018
  72.7208328   3.4704430  25.9303036  71.3772583   4.1665134  25.8945332
  34.3757439  12.1960020  17.0334473  34.7619667  12.3446884  16.1703396
  35.1263237  12.1334467  17.6241627  55.5452957  47.6819229   8.1767302
  55.4562874  48.5809822   8.4929590  55.2590523  47.1399765   8.9119778
  78.5732574  51.1601372  52.9060402  78.0485458  51.9342041  52.7017670
  78.3476334  50.5303535  52.2214241  15.2356348  64.5043793  34.3037834
  15.6879797  63.7513771  33.9235153  14.6478577  64.8056259  33.6109619
  13.4794025  25.6198845  70.4948349  13.0369873  25.1240654  69.8058777
  14.3045464  25.1546841  70.6325226  58.4143486  51.3329887  75.0013885
  58.0342674  52.2108879  74.9688110  59.2317924  51.4074783  74.5089798
  40.3078575  23.9617939   0.5961164  39.7225037  24.5418606   0.1091700
  40.9216957  24.5524483   1.0326455  14.8955717  62.5193977  77.0336227
  14.1512804  63.0960770  77.2059708  15.0480232  62.5999985  76.0920868
  22.7048397  36.3239555   4.0653057  23.1751156  35.7114906   4.6309543
  22.0277805  36.6987114   4.6286731  77.3593216  67.3955231  41.4363632
  77.1493149  68.2516556  41.8094177  77.2699432  66.7864227  42.1693306
  46.1048431  40.4951630  15.6614189  45.9162636  41.3807259  15.3508568
  46.4371681  40.0364494  14.8898153   2.1479869   4.9451423  74.4719849
   2.7746189   4.9457107  75.1955643   1.3830601   5.4055014  74.8172226
  60.8368149  35.2711372  41.2322273  60.7352333  35.3589783  40.2844963
  61.5066338  34.5958481  41.3397484  65.3214951  51.2259941  70.0214081
  64.5354767  51.2866554  69.4785309  65.0519104  50.7016106  70.7754517
  65.1655655  16.7065010  12.5480471  64.5621719  16.0232258  12.8400774
  64.5986481  17.3897781  12.1903172  10.5590792  60.8205910  35.1674423
  10.0467415  60.1188354  35.5690346   9.9056091  61.4010811  34.7772598
  49.8932037  59.6241646  50.1647110  50.3699951  59.2427940  49.4275169
  48.9723854  59.5672722  49.9095802   7.5807691  16.8351135   3.7806978
   7.0723691  17.5979900   3.5054181   6.9865823  16.3430786   4.3473344
  20.9642124  20.0525608  23.9818115  21.6698017  20.3239155  23.3946629
  21.3804302  19.4420395  24.5902977  38.0349503  54.5503044  64.9787292
  38.8334274  54.7759781  65.4559555  37.8372345  55.3302803  64.4602966
  79.4363022  31.4710732  76.1728363  79.7373047  30.5665894  76.0859985
  80.1624832  31.9251766  76.6002502  68.5270996  59.4892159  11.2917032
  69.1486282  60.0778046  11.7200642  67.8935089  59.2712593  11.9752893
  40.2905235  64.9558105  35.6199303  39.7269287  64.7723389  36.3715477
  41.0662460  64.4139175  35.7642975  65.8761139  53.4564629  85.8404465
  65.3917084  54.0654945  86.3978195  66.7850342  53.7512703  85.8969193
  54.9651833  41.9314499  16.5339260  55.9018250  41.7411079  16.4819050
  54.9217186  42.8627319  16.7508564  85.0906754  67.6856613  18.3865414
  85.5457153  67.6363602  19.2272167  84.1876984  67.9057541  18.6155052
  14.3204021   8.3236723  18.8182163  14.3641500   7.6558924  19.5026054
  13.3964710   8.3516884  18.5696278  48.6140442  19.1024513   1.0742931
  49.0454025  19.7031517   1.6820099  47.7546082  18.9432030   1.4644821
  56.4707756  65.0147781  24.9068508  56.6311760  65.9583130  24.8911591
  55.5746994  64.9187622  24.5842724  82.8626404  31.7952347  73.3843765
  83.7764740  31.9848690  73.1718140  82.8471222  31.7314701  74.3393250
  78.6758575  26.5139217  49.1394424  78.3851547  27.4258595  49.1490822
  78.8159409  26.3169670  48.2132568  40.8787384  49.7037773  10.6395483
  41.1532059  49.0776596   9.9695673  40.1408806  49.2787018  11.0767078
  16.6878242  34.5041847  34.9386749  17.2328014  34.2619705  35.6873817
  15.8483458  34.0753250  35.1047745  15.2058821  44.6045265  46.4209747
  14.2531214  44.6589890  46.4952202  15.4889154  44.2171822  47.2492790
  63.8036308   6.1461992  73.2717972  63.2185860   6.8911476  73.1339340
  64.4551239   6.2210622  72.5745316  81.0725403  54.2070618  79.4802704
  81.2806549  55.0569153  79.8684311  81.0511169  54.3730011  78.5378036
  63.4614677  13.3922501  56.5973701  63.1973686  13.1872225  57.4942818
  62.8711929  12.8747482  56.0496521  75.3140259  20.0031738  88.6350861
  75.4955444  19.1965714  88.1527176  74.7405930  20.5048580  88.0556717
   6.3972983  41.7780037  44.2285118   5.7216306  41.8210983  43.5518684
   6.2538304  40.9340973  44.6568451  78.9266739  68.4467163  68.9442444
  79.2247543  68.0484467  69.7620239  79.1316757  67.7964020  68.2724609
   1.1426032  41.3107681  30.0036125   1.1010090  40.6645432  30.7085209
   1.9137318  41.8395119  30.2086048  70.1260529  45.7433739   5.7625871
  70.0147476  45.7305527   4.8119674  70.9117355  46.2713509   5.9046421
  47.0538712  65.4835587   9.7230186  47.7262726  65.9089050  10.2551756
  47.0241699  64.5839844  10.0487566  60.2407227  27.7746983  68.6991501
  60.5723915  27.4338455  67.8684616  60.1229477  28.7118034  68.5435944
  72.8557968  52.8516693  20.9353313  73.2187500  52.7361984  21.8134899
  73.1477280  52.0787735  20.4519711  81.9620438  48.4568329  14.3573675
  82.3937759  47.6028137  14.3352995  81.1673889  48.3102951  14.8704748
  38.0797195  27.2407646  70.6283875  37.3514862  27.7623596  70.9658051
  38.7979736  27.8661594  70.5323486  34.0438271  40.4654198  47.3126526
  34.3467064  40.4933777  48.2202377  33.3652687  41.1389084  47.2657471
  52.8769989  56.2371178  48.6334419  53.6927185  55.7910652  48.4056892
  52.3343353  55.5559196  49.0305748  39.8872261  42.5696602  78.0401840
  39.2037086  42.0256081  78.4313965  39.6973343  43.4542847  78.3526154
  32.3201599  22.2354717  85.8512497  31.6314068  22.6336517  85.3189850
  33.1360703  22.5330296  85.4487839  22.9904079  67.5924072  52.8141327
  22.4398212  66.9113922  53.2005424  23.1392231  68.2133560  53.5272331
  34.9486084  64.6891022  53.9972992  34.3311768  65.1148834  53.4025536
  34.9861450  63.7818909  53.6943245  69.7595673  67.5062866   9.9255638
  69.0295715  67.0071487   9.5592260  70.4343338  67.4765549   9.2472982
  66.8076096  40.7686501  89.0431824  67.5222015  40.1684914  89.2562637
  66.7700424  40.7663383  88.0867233  63.0747185  56.7501450  65.3000565
  63.1550636  56.0394440  65.9362030  62.2663879  56.5564613  64.8253784
  59.2207489  57.2533989  79.2675476  59.9359856  56.6201096  79.3276825
  59.5556602  58.0353394  79.7064514  24.4242954  54.4046669  34.3473587
  24.5952854  54.1678391  33.4358177  24.2529240  55.3460617  34.3221359
  68.7734528  43.3488617  26.7195930  69.2623825  42.9653435  25.9915199
  69.4216385  43.4496422  27.4166775  10.0208788  16.3396854  82.6077652
   9.5026875  16.1649532  81.8221588  10.9087210  16.0687008  82.3742371
  79.9164810  42.8681221  48.9094849  79.1541519  43.3795547  49.1806221
  80.2651825  42.5074348  49.7246857  69.3643417  57.3937416   8.1270533
  69.0301208  57.1677589   8.9950752  70.2503204  57.7180824   8.2885094
  35.1287422  54.5840759  30.4583244  35.0760307  55.2646904  29.7873440
  34.4110832  54.7841225  31.0593033  68.1963882  12.6180220  78.3486252
  69.0209274  12.9782686  78.0221481  67.6562424  13.3861475  78.5342560
  26.0436859  57.4897766  23.0714340  26.3073711  57.5059586  22.1514130
  25.1419888  57.1689110  23.0565491  56.0705528   0.5736496  15.1239491
  56.2369156  -0.3615465  15.0057869  56.1595955   0.7155609  16.0663738
   0.8409526  62.8433304  51.9983101  -0.0876271  62.6499748  52.1270943
   1.2949804  62.2412758  52.5879059  18.1229610  24.5496788  73.2672195
  18.0254917  23.9908600  74.0382309  18.9417858  25.0225334  73.4161072
  70.5301132  42.9312019  86.4151764  70.3890686  42.0152054  86.1758270
  71.2509766  42.9060631  87.0444336  72.6212769   2.1172042  65.8835449
  72.6157684   1.9672327  66.8289032  73.2621460   2.8166180  65.7557220
  19.8371696  10.7420902  88.2294464  19.6159992  11.1266270  87.3812485
  20.7203274  10.3924847  88.1109543  80.5279465  25.5663929  54.7955627
  80.5466003  25.4073029  55.7392654  79.9058838  24.9227734  54.4564171
  34.8621826  49.3888092  36.4660912  35.6490860  49.2746277  36.9989853
  34.3894882  48.5614014  36.5565910  12.9064722   5.1702662  88.7092972
  12.4166803   5.7300467  88.1068192  13.6162682   5.7267523  89.0298386
  19.9186573  56.9600449  80.4551086  19.8646049  56.3580780  79.7128525
  20.4441109  56.4928474  81.1046066  75.1819763  55.1559486   9.0456343
  74.4390106  54.8823051   9.5835552  75.9198456  55.1873817   9.6545591
  22.1674118  42.2963486  82.4492493  21.7200413  41.5290718  82.8061447
  22.4045601  42.0420494  81.5574417  60.1815224   3.7859981  28.5918446
  59.7288589   4.3769217  29.1936245  59.4939613   3.4662359  28.0076828
  13.5249910  63.4391251  29.3854065  12.8804846  63.7328911  30.0292568
  13.9704752  64.2402420  29.1097450  75.0773392  26.2092514  47.5757484
  75.7435608  25.7018375  48.0393333  75.5553818  26.6429310  46.8689003
  52.7328568  41.2610703  34.0430069  51.8623962  40.9513626  33.7927818
  52.7732658  41.1231537  34.9893570  12.1366453  48.0789375  83.5822449
  11.3822021  47.5576859  83.8567276  11.9763975  48.9463844  83.9538498
  27.5676041   3.8750806  72.0752411  27.3052692   4.7770491  72.2592697
  28.4068794   3.9573967  71.6223907  83.4129257  36.8074837  82.1754761
  84.0006409  36.4326172  81.5195160  82.5693741  36.3865433  82.0097427
  55.3311958  67.7195435   0.6436960  54.3937645  67.7858734   0.8255150
  55.5344276  68.5093002   0.1424902   4.1607490  69.8717346  46.7637787
   4.6846695  69.2111435  47.2169342   3.4816091  69.3705063  46.3123741
  19.5179062  15.8793421  53.3760109  19.6804295  16.4912701  54.0938988
  19.6903076  16.3882408  52.5838394  57.0503578  40.2135773  78.6924515
  57.7915306  40.7975540  78.5316238  56.7825851  40.4081955  79.5905914
  42.3734818   6.6115742  57.9557076  42.6974792   5.8775697  57.4336967
  42.5827866   7.3868179  57.4347267  76.3318863  42.3139915   1.3897541
  76.5666428  41.4237671   1.1278007  75.3759689  42.3328934   1.3440381
  57.8342133  66.9046936  81.5279083  58.1788445  66.1311874  81.0816498
  58.0981026  66.7918320  82.4410706  53.7848320  52.9200249  87.7411346
  53.4528046  52.0307541  87.6178970  53.1590919  53.4758339  87.2766418
  26.8245602  46.2658958  18.6211987  26.6916733  45.3262062  18.4964733
  27.6552563  46.3298492  19.0924606  41.3450279  65.0261536  86.6109772
  42.0349731  64.4012451  86.3880615  41.8132324  65.7887268  86.9508286
  59.0472145   3.6951907  63.4251137  59.8680840   3.4681814  62.9882317
  58.7898140   4.5294719  63.0327454   7.8456640  36.3340340  17.5147781
   8.2524261  36.1967850  18.3703117   7.3923602  35.5113945  17.3303528
  54.8213310  64.0089569  65.3049698  53.9941292  64.1004562  64.8321075
  54.6218414  64.2993774  66.1949692   0.8344802  69.3035965  77.3955612
   0.9928281  69.4320374  78.3307953   0.5006499  68.4089050  77.3298187
  81.9882278  38.6722603  46.5588799  82.2848358  39.4213943  46.0421066
  81.4163132  39.0525818  47.2255859  69.5757904  40.9763451  80.0152130
  69.4151917  41.6501579  80.6758347  70.1385269  40.3390503  80.4550095
  28.8118649  11.7271538  88.3116379  29.6850319  11.8933220  87.9563904
  28.2262573  11.8175049  87.5598907  14.4438248  44.0044975   7.0720568
  14.2845335  43.2101669   6.5622511  13.5721951  44.3685150   7.2269292
   4.4679427  17.1622486  83.4925308   3.7096713  17.1612701  82.9083633
   4.0928178  17.2107048  84.3718338  24.0557194  64.3057098  65.0430069
  24.9648037  64.5689850  65.1861267  23.5404491  65.0629196  65.3211517
  78.9685974   6.6963577  28.2101898  79.6935883   6.5964723  28.8271618
  78.5176086   5.8523417  28.2319069  56.5418816  15.2195549  76.0317154
  56.4161263  16.0782566  75.6279221  56.4953384  14.6023912  75.3015289
  17.1914330   0.2037451   3.7873511  17.8708458   0.0009077   3.1443229
  17.6485329   0.1990109   4.6283436  53.2099190  11.4136877  67.0429840
  52.9313164  11.6615553  66.1614075  54.1650124  11.3772383  66.9909515
  40.0127335  38.6321487  27.8252258  39.1316528  38.6947975  28.1940155
  40.2022591  39.5145874  27.5064583  18.6409111  37.0182190  61.7555695
  19.3509598  36.4507256  61.4555473  18.2685604  36.5584984  62.5080605
  17.7228870  60.0234642  49.0743866  18.1021004  60.2538147  48.2262306
  17.5148163  60.8650322  49.4802208   0.4459944   0.4926480  67.9530411
   1.0773351  -0.0333662  67.4621735   0.9834906   1.1061985  68.4539261
  81.9364777  38.6479263  21.8881683  82.7935181  38.2862663  22.1138248
  81.3280945  38.2128258  22.4854870  16.6865387  61.0944977  29.7770367
  17.4780502  61.6271324  29.8547516  16.1153717  61.4107018  30.4770489
  17.4965305  46.8696785  82.4717941  16.6262493  46.4767227  82.5383530
  17.9974022  46.2533226  81.9375076  38.0272942  43.9803238  22.7815895
  38.2056122  44.0175667  21.8418846  37.7771645  43.0704193  22.9420357
   3.6665452  38.5708275  37.3663139   2.7740567  38.2607460  37.5197639
   4.1227732  38.4053345  38.1913605  86.7394714  59.0107422  66.7262726
  86.8899231  58.1105347  67.0147629  86.0914764  59.3542366  67.3413696
  30.8400517  47.0621033  70.9465790  30.5332108  47.6411934  71.6442413
  30.6783562  47.5519409  70.1402588  79.9077225  20.3096523  69.1863708
  79.4348907  21.1398563  69.1278992  80.0757599  20.1950798  70.1217194
  44.5990028  49.4420357  76.1983719  43.8650818  49.5054932  76.8095703
  45.1772804  50.1646423  76.4426346  35.3011322  18.2450600  69.2902298
  34.6436920  18.1574841  69.9804001  35.3957672  17.3608685  68.9359970
  54.1485672  36.4052277  87.0141296  54.4584160  35.7407303  87.6294861
  54.5752220  36.1828766  86.1866302   5.5348816  11.6800175  68.7387619
   4.5956764  11.6349125  68.5596237   5.8992257  12.1514893  67.9896317
  43.7832642  14.2508659  11.8028297  44.4560928  14.3858967  12.4701385
  43.8469429  15.0218019  11.2390623  50.7805367  10.0404253  71.7974319
  51.4316750  10.0189009  71.0961609  51.0660477  10.7543583  72.3675385
  65.8513031  26.6046619  17.7117176  65.2551651  27.3534584  17.6992683
  65.3998871  25.9306602  17.2036018  67.5317688  46.9140053  10.9219580
  68.3225784  46.3796730  10.9950552  67.7833099  47.6366768  10.3468866
  10.2413235  66.9920120  87.9765320   9.4723558  67.5443497  88.1174011
   9.9517336  66.1121979  88.2179642  10.8553209   1.2908776  22.1423512
  11.1677237   1.6551883  21.3141518  11.3062830   0.4500899  22.2194271
  30.9134197  67.0115738   1.1474203  30.1861839  66.8713684   1.7538049
  31.5375652  66.3168488   1.3572406  36.8244438  66.5693130  61.4869347
  36.9853516  67.3547974  62.0097733  36.2283669  66.0441360  62.0208893
  37.1987877   0.4390246  82.6796875  37.8519440   1.0637777  82.3645630
  37.4113693  -0.3778591  82.2283096  46.7213860  37.6245422  16.4786930
  46.1087418  36.9922829  16.8543949  46.4505463  37.7061996  15.5642481
  31.6979275  46.9701614  82.5494690  32.1671600  47.5662231  83.1332092
  31.4150753  47.5221748  81.8204269  76.2655106  52.8871765  88.2057800
  75.4757614  52.3700562  88.0472946  76.9478683  52.4425507  87.7028656
  55.2267990   3.6955283  44.6619301  55.1087799   4.3451271  45.3549881
  54.4048386   3.7161405  44.1718445  67.6021957  13.1671104  38.7459335
  67.7260132  12.7086353  37.9148483  67.0634079  13.9261522  38.5227890
  61.3000107  35.0197983  16.1081524  61.6546936  35.0711403  15.2205734
  62.0040436  35.3491058  16.6668358  57.8769302   1.2674267  56.6554070
  58.7905502   1.5098969  56.8061943  57.9202118   0.3794703  56.3005943
   2.9448836  34.6195145  63.0263939   3.5615838  35.3270836  62.8386230
   2.5862155  34.3812447  62.1715126  10.9350939  50.7284775  22.6049690
  11.8436098  50.5088158  22.8113213  10.4645443  50.5996284  23.4285069
  52.7727470  69.1740112   5.9345422  52.7267456  69.4117584   6.8606067
  51.9266815  69.4421997   5.5760999   8.0932131  47.3793144  33.0116959
   8.6316299  46.7607651  32.5179939   7.1959629  47.1854858  32.7403908
  83.7256393  27.3475800  56.4701347  83.5819702  27.9122028  57.2296028
  82.8988876  26.8776283  56.3612480  56.6435318  67.1539841  48.1032448
  57.0869141  67.8789520  47.6627197  57.3366318  66.7116699  48.5933495
  68.1656494  22.6145725  15.9241467  68.5566101  22.3475761  15.0922251
  67.8660812  23.5107517  15.7713242  42.5785713  57.4844208  77.1780930
  42.0173111  56.7625580  76.8950272  43.2616425  57.0655746  77.7017517
  28.8559437  55.3845100   6.8641706  29.1029224  56.1503220   6.3457475
  29.6888237  55.0153885   7.1579237  66.5038986  35.0499573  45.4283791
  66.8135071  35.5950317  44.7050056  66.3776779  35.6626015  46.1529236
  28.6295147  36.4056053  60.6981316  28.1122742  36.7153702  59.9546661
  28.5712872  37.1120720  61.3413582  66.3723679  37.1960106  76.2504730
  65.4985886  37.1620483  75.8611374  66.8349686  37.8628387  75.7429581
  31.6297703  43.3134003  55.9716949  32.3178558  42.9768829  55.3976479
  32.0568123  43.4173203  56.8220291  59.5901108  30.5255795  80.0600433
  60.4978409  30.3947010  79.7859421  59.1630592  29.6875591  79.8823395
  28.4584026  65.3675156  57.3329887  27.9879322  64.5459137  57.4739151
  27.7712879  66.0324783  57.2889938  26.3082829  62.6628990  38.2142334
  26.1224842  63.4810143  38.6750984  26.6037865  62.9385796  37.3465271
  82.4620132  59.9597816  66.0076218  82.2919617  60.8596535  65.7291489
  81.8198395  59.4355583  65.5290451   0.4363112  53.3092728  66.9381866
   1.0989867  52.9511681  66.3475494  -0.1543412  52.5755501  67.1085129
  70.7028885  33.5883942  80.3607178  71.0636749  32.9095650  79.7904053
  70.5457535  34.3317490  79.7785110  27.8730431   6.8006287  22.4169884
  27.2932606   6.9391980  23.1659107  27.4004536   7.1782098  21.6751499
   2.8366294  10.9512711  12.8968983   3.4608231  10.4870615  13.4546833
   2.3823645  11.5484648  13.4912348  44.4659233  57.3349152  59.7315712
  44.0037079  57.2003059  58.9042435  43.7704391  57.4115524  60.3847656
  75.8047562  61.5084534  53.4875145  76.5268631  61.5829010  52.8636055
  75.0414352  61.3045006  52.9471741   5.0043187  42.9655533  37.8231697
   5.7932701  42.4251785  37.7809677   4.9565725  43.3871155  36.9651260
  80.5622864   6.5249629  45.6239281  80.9658356   6.5486307  46.4915771
  80.2543030   5.6238036  45.5275192  69.9547272  14.3390503  77.3880157
  70.4206009  14.3283653  76.5519028  69.8357468  15.2683773  77.5840454
   2.6960728  12.9012327   0.1493662   2.6185608  12.2656441   0.8608795
   3.3490360  13.5289268   0.4589975   2.4771984  21.5495968  68.6075439
   2.4599416  20.6581402  68.9557419   3.3331494  21.6254978  68.1858597
  57.7802925  57.9399376  12.2938404  58.5715485  58.4641037  12.4179296
  57.9631157  57.1185646  12.7500820  80.6248932  42.9308968  45.9543495
  79.7918625  42.9486656  45.4832115  80.4687653  42.3448792  46.6949120
  86.0148087  29.3047848  29.2060280  85.6480026  28.4439487  29.4076481
  85.8818283  29.4070473  28.2636414  59.8870125  69.0228043  61.5781403
  59.9393959  68.0752487  61.4531593  59.8279190  69.1363678  62.5267410
  60.6746674  50.4955330  29.6942883  61.5513535  50.1275291  29.8048325
  60.1479492  50.0662498  30.3684673  29.5196266  62.8632660  79.4099808
  29.0678883  63.6457939  79.0940475  30.4423485  63.1158485  79.4419022
  10.5884991  63.3098869  86.1182632  11.3867683  63.3907814  86.6402359
  10.8571606  63.5487900  85.2311401  80.3287201  16.2148228  39.1365662
  81.0276337  16.1962204  39.7903252  79.6590271  15.6263618  39.4850845
  65.7584991  15.2199583  28.8549423  66.1228027  15.9700832  29.3248615
  65.2047958  15.6077747  28.1772671  18.8129368  14.4514141  11.4513025
  19.1830826  14.6418324  10.5893478  19.5328751  14.0497484  11.9377050
  48.3444977  61.3087463   8.0828381  48.0944290  61.1380806   7.1747794
  49.2867203  61.1418495   8.1072006  17.2783661  38.4049187  20.6740112
  17.3821144  37.6388130  21.2384167  16.3747253  38.3524513  20.3627033
  -0.0162099  68.3793335  66.7808914   0.3938041  67.6056976  66.3941116
   0.4530030  68.5125885  67.6044922  56.4680634  69.4752808  14.1537676
  57.1583977  68.9452820  13.7553110  55.8559990  68.8362274  14.5187578
  37.4149857  53.5934143   8.9367332  38.0811081  52.9758148   9.2385302
  36.5952721  53.1009178   8.9784908  56.6616783  16.3135815  42.9933968
  55.9011230  16.2499733  43.5710983  57.3761673  16.5894127  43.5675545
  31.4838524   9.5659828  88.6879196  30.7367496   9.8248005  89.2274399
  31.6383705   8.6494427  88.9166336  35.3360405  51.6611977  54.2749176
  36.1983948  51.2786331  54.4368439  34.7373238  51.1353531  54.8052521
  47.2609863  41.0168991  12.9894342  48.1163025  40.7677994  13.3396072
  47.4630241  41.5644646  12.2307587  81.9762192  40.9414978  23.5626926
  82.0594254  40.1315117  23.0594692  82.2800827  40.7104149  24.4404716
  85.0788498   7.3318830  60.0635414  85.2355728   7.5697322  60.9773788
  84.9281464   6.3868527  60.0844803  30.1865692  66.1840286   7.1376586
  30.2793331  67.0602036   6.7635808  30.4799385  66.2782211   8.0439110
  24.6032085  17.4688053   4.6420016  23.7750931  17.2751713   4.2027249
  24.3966522  18.1914368   5.2347646  37.6859894  21.9916611  42.4502373
  38.2742462  22.6973896  42.1816597  38.1656380  21.1890373  42.2453804
  59.0020676   2.0248325  44.1242027  59.7893295   1.5027570  43.9696426
  59.2817268   2.9286733  43.9789619  75.1184769   3.4464002  21.0199604
  75.6064606   2.7121780  21.3928165  74.4142075   3.6092224  21.6474361
  11.7714787   3.9605768  17.4622345  11.1539307   4.5707874  17.0591087
  11.5472317   3.1094282  17.0860806  68.7977219  39.4595375  27.9557095
  67.9615173  39.6553421  27.5330257  69.4133835  39.3526497  27.2306118
  84.8333435  40.4154091   2.4817088  84.4596710  39.9237556   3.2130620
  84.2607880  40.2153168   1.7411849  67.5437622   4.9038334  45.0845833
  68.4398651   5.1778831  44.8893089  67.0475922   5.1288605  44.2975578
  22.4515629   1.5694201  81.9170303  21.9903545   2.3995752  81.7971954
  23.3435402   1.8230543  82.1542664  13.5567999  30.6178589  20.1537895
  13.2067604  30.4700794  19.2752304  14.4983549  30.7278557  20.0211010
  30.7165909  42.7441216   8.4212294  30.9103832  42.3209343   9.2576418
  30.5826569  43.6652985   8.6442375  58.3789978   9.6413689  52.2648888
  57.6165924   9.0919714  52.0828705  59.0043297   9.0514345  52.6858063
  31.5806561  39.5904465  79.1863708  31.6741409  39.9096909  80.0839081
  32.1812019  38.8470001  79.1328201  71.3228607  55.9745216  38.7371330
  70.5872498  56.4082451  38.3047142  72.0842667  56.5063133  38.5054359
  69.6776505  67.9720764  27.4073219  69.3662033  67.4638977  26.6583347
  69.8294220  68.8491364  27.0552273  65.9674530   8.2836227  56.8890762
  66.7373734   8.4066525  57.4443398  65.4135437   7.6757832  57.3789177
  48.6288681  54.6051903  38.5667915  49.3874397  54.4326897  39.1245079
  48.1566772  53.7729759  38.5405655  71.1659241  37.7259369  79.6703110
  70.3543472  37.8280945  79.1731796  70.9113312  37.2226639  80.4436951
  82.3383636  68.1206284   0.6249682  83.0477371  68.4875717   1.1525816
  82.1378784  68.8036118  -0.0150061  49.4777603  64.4011307  24.9239063
  49.5701065  63.6771278  25.5432053  48.5962219  64.2985916  24.5652905
  80.4879532  26.1790390  43.9299889  80.8273773  25.4154911  44.3969154
  80.3012085  25.8570118  43.0481415  31.4242058  54.9050789  87.2587738
  31.0239487  55.2143555  86.4461441  30.7992802  55.1490402  87.9415512
   5.3895679  45.6562462  31.7865086   5.4772120  45.2006340  32.6237488
   4.4887338  45.4833946  31.5129166  53.6449547  33.1079445  41.8028259
  53.8984680  32.2784958  41.3978882  52.8773575  32.8913536  42.3320808
  71.2056961  56.0492706  16.0601635  71.1563644  55.8962440  17.0037632
  71.9766235  55.5572128  15.7777081   0.9223043  53.8690910   8.5508890
   1.3862841  54.1571312   9.3370104   1.6157762  53.5988617   7.9489713
  23.5976200  57.1992645  51.1568413  23.2117844  57.0690117  50.2905884
  22.9319477  57.6836853  51.6451569   1.1554822  61.5831795  79.3545151
   1.6087213  62.0457153  78.6496277   1.7363348  60.8551750  79.5755386
  23.1642799  70.3804245  11.2155857  22.2287292  70.2611771  11.0520153
  23.2178440  70.6103058  12.1432266  51.1201744  19.7641640  34.8017807
  51.4310379  19.3835125  33.9803772  51.9135017  19.8919296  35.3219147
  39.5599899  28.9300537   6.8284850  40.2598114  29.2127132   7.4172006
  39.9557610  28.9536743   5.9572563  36.0234261  28.9639206  71.4366302
  35.2974243  28.8167419  72.0428467  35.6357918  29.4578629  70.7141418
  80.4137344  35.2238426  65.5286942  80.7738876  36.1107025  65.5266113
  80.0355072  35.1168823  64.6559219   2.5085959  10.0548897  46.7093735
   1.8373646  10.6883516  46.4555893   2.3249400   9.2835436  46.1731606
  20.6193275  60.2355843  44.3894348  20.4934177  61.0234833  44.9181976
  21.5521088  60.0376434  44.4729156  72.4109421  27.4316292  47.7175789
  73.1667328  26.8804150  47.5146675  72.0071030  27.0138245  48.4782257
  39.8935051  18.8646145  65.5753479  39.4950104  19.7205906  65.7326355
  39.1572342  18.2529755  65.5809860  29.4249611  12.6110353  77.9300232
  28.9805603  12.4163342  78.7551498  30.2040539  12.0550365  77.9405823
  83.0112228  64.7440262  14.9069014  82.6469879  65.3829651  14.2942667
  83.7826385  65.1763077  15.2733393  75.4446335  70.0244980  28.4415588
  75.8132095  70.8446121  28.7698936  74.6754074  69.8710175  28.9901638
  82.9949417  65.6110153  70.1146164  83.3939209  66.2833633  69.5623627
  83.7314224  65.2170258  70.5821609  85.2033081   6.7498927  51.8791122
  85.6300354   7.1699414  51.1323242  85.4053268   7.3190875  52.6217003
  57.3606262  60.5187378  37.5627480  56.4317284  60.5695419  37.7881317
  57.7868195  60.2255898  38.3681412  55.6619339   9.6409130   1.7186856
  56.5873795   9.4224224   1.8284432  55.1939392   8.8750095   2.0512526
  69.9376678  48.5509300  53.2073936  69.7890167  49.2133522  52.5326118
  69.5258636  48.9120750  53.9923935  42.3920174   9.0596428  14.8858471
  43.2732773   8.8473892  15.1933546  41.8128471   8.5325594  15.4362822
  79.9356079  65.8025208  32.1895065  79.2721176  66.4339752  31.9115105
  79.4558945  65.1718063  32.7264557  59.5315704  64.5603714   2.6086483
  60.3423805  64.1175537   2.8591025  58.9190483  64.3562469   3.3153183
  16.2127132  21.5441055   0.6988698  16.1294594  22.3543854   0.1961312
  17.0657692  21.6146355   1.1273019  80.7392197  19.1520309  82.5184631
  80.3682861  18.4923134  83.1044769  81.6855850  19.0751915  82.6397781
  77.7153549  28.5903168  24.8947544  78.0652847  28.0262775  25.5844231
  78.0488815  29.4622574  25.1062164   5.0054121  43.1556358  23.9755592
   4.9790463  44.0935173  24.1650887   4.0945311  42.8707657  24.0488853
  63.7131958  65.2942657  68.6209030  62.7581787  65.2686234  68.5615997
  63.9976425  65.6177750  67.7661133  32.9522362  27.9743137  70.2461395
  33.6223183  27.2910633  70.2263336  32.8454819  28.1782188  71.1752548
  68.4276428  65.1528473  82.8635788  68.7148666  65.3723679  81.9772644
  68.2313995  65.9979477  83.2679596   3.6534412  12.4732828  74.2342224
   3.8047907  13.3598461  73.9066086   4.0230455  12.4778709  75.1171722
  32.6330719  65.9073257  59.9792366  32.1085434  66.2583160  59.2595787
  31.9945793  65.6973190  60.6607513  18.3555889  63.6856155  74.8272324
  18.8309193  64.2900620  74.2571945  19.0410099  63.1925163  75.2780991
  32.9085350  24.5151558   5.0584564  33.5864220  24.6477547   4.3957968
  32.1750107  25.0538502   4.7618403  19.1919479  57.1827660  69.9571762
  19.0021114  57.8575439  70.6089935  19.6289883  56.4889526  70.4509888
  26.1025486  66.2292786  54.6460152  25.7213860  66.0267639  53.7916489
  25.7353210  67.0828247  54.8758698  13.2779179  46.0600128  59.3599968
  14.0011292  45.5722237  58.9659691  13.6931734  46.8267937  59.7547684
  53.0295601  35.6060333  78.8349915  52.9034882  34.8250313  78.2961273
  53.7493019  35.3775482  79.4232025  15.7503595  69.9297791  50.2198105
  16.2745247  70.6356277  50.5983086  15.6540051  69.2955704  50.9302483
  55.7360878  29.0266533  27.1801739  55.7901268  28.1023521  27.4230309
  55.8824806  29.4986420  27.9999466  67.8174438  70.4560699  11.0579481
  68.3737411  69.9144440  10.4981194  67.9814987  71.3520203  10.7636728
  63.5332413  59.8808784   6.7232833  63.3101463  59.9071732   7.6537509
  62.6907768  59.7934265   6.2773690  66.9124832  36.1552162  70.7027740
  67.6271591  35.5619774  70.9341507  66.1237183  35.7149277  71.0193787
  11.2925215  28.2732506   8.9925060  11.8862791  28.9625874   9.2899904
  10.5261173  28.3559151   9.5599766  74.5255280  62.7918625  62.6308174
  75.2389526  63.3937073  62.8430519  74.1213379  63.1661110  61.8480034
  44.0128021  55.2656288   1.8707658  44.3595543  56.1482201   2.0012474
  43.8208084  54.9507179   2.7540550  20.0880222  50.2424049   0.8700247
  19.4609070  50.1145325   0.1582624  20.9448948  50.1887703   0.4467940
   0.0752556  20.2360134  59.8250237  -0.2059952  19.3215237  59.8539391
   0.5076503  20.3803444  60.6667099  83.4718552  50.7372437   2.5899336
  83.1473694  51.6223755   2.4241679  83.1454315  50.2205925   1.8532161
  54.9833908  56.1758614  52.3287392  54.5932121  57.0078926  52.5965385
  55.3068504  56.3372765  51.4424248  76.6449814  69.7635117  42.4791527
  77.2571259  70.1879349  43.0803032  76.2288895  70.4870987  42.0106201
  84.1059647  14.5017786  50.0579948  83.2190094  14.2489977  49.8018036
  84.6668854  13.8254786  49.6782265  82.6268158   7.6921158  15.2460861
  81.6716232   7.7347350  15.2909851  82.9255981   8.2660007  15.9515076
  39.4965210  39.5621147   5.1073856  39.3452034  39.4276962   6.0429420
  38.9013329  40.2725716   4.8681459  52.6124458  62.2818031   4.2171726
  52.9870224  61.4983177   3.8145862  51.7321968  62.3441277   3.8463500
  42.0211182  33.5718193  60.1649628  41.2240067  33.7239189  59.6573143
  42.5874405  33.0715027  59.5774269  79.6487198  25.3836308  75.5815887
  79.5193710  24.9727955  76.4364090  78.7999725  25.7736416  75.3724060
   4.5381527  48.7806435   3.9576800   4.6761398  47.8505249   4.1367545
   4.0148849  48.7952118   3.1562994  19.2861176  64.0461121  49.7692146
  19.0183010  63.3170128  50.3286057  19.6140995  64.7075272  50.3784714
  60.0341034  51.7985153  72.4675217  60.4038925  52.6631279  72.2888184
  59.6339378  51.5333443  71.6394043  60.6645966  14.2886343  48.6754875
  61.2531548  15.0372324  48.5783730  60.0202484  14.5730648  49.3236771
  65.4184647  35.9638596  66.0710220  65.8881226  36.6043243  65.5367432
  65.1644058  36.4477539  66.8568573   3.9875896  29.8900166  71.6357498
   4.2446642  30.5985508  71.0457306   3.9037089  30.3098106  72.4918900
  68.1075211  42.2904510  33.5924873  68.6293488  43.0837479  33.4716034
  67.8015594  42.3407097  34.4980774  26.5935860  59.9670868  83.8507996
  25.7020741  59.6467247  83.9879456  26.9720573  59.3580437  83.2167206
  25.0029602  49.5749168  25.2999096  24.9273376  50.5281448  25.2566738
  24.1226597  49.2748413  25.5263100  40.1191330  33.6344643  58.2765503
  39.1694145  33.7526016  58.2590027  40.3083458  33.1003265  57.5051041
  80.5090408  39.2875366  76.4329910  81.1653976  39.7612648  75.9221039
  80.3573303  38.4815331  75.9394531  30.3956032  21.2644215   8.3933287
  29.8576469  21.7093792   9.0481930  30.7012730  20.4711933   8.8333120
  78.9859924  28.8604603  81.2027054  78.1620712  28.8872604  80.7162094
  78.7352829  28.5807552  82.0831299  10.0352144  50.0018845  11.6065187
   9.1155281  49.8190193  11.4142456  10.1085939  50.9541016  11.5422716
  18.5240345  65.5551682  79.6911697  17.8502617  64.9502563  80.0015564
  18.7780972  66.0506668  80.4697342  48.4226494  27.0956097  44.1970863
  48.5537224  26.1719227  43.9829559  47.4736099  27.2163754  44.1658669
  41.0164375  33.6765862  31.9423008  41.4609604  34.5031891  31.7542648
  41.3275146  33.4300842  32.8133354  19.0703373  61.6069107   5.4471488
  19.0588932  62.5639954   5.4567022  18.2156391  61.3536682   5.7958465
  13.3986502  53.5048752  46.8309708  13.8549442  53.4871025  47.6722260
  12.9596758  52.6558800  46.7786102  14.8236799   5.0243745  60.1900139
  14.2733126   5.5637469  59.6222076  15.2547407   5.6509910  60.7711945
  52.3330231   9.7551575  69.3077393  51.4561501   9.8152742  68.9286423
  52.8210793  10.4686794  68.8967361  77.5520401   9.0833168  27.6040096
  77.2195206   8.8554659  26.7358227  77.9689178   8.2812672  27.9189072
  16.6571808  70.1268997  53.6448898  16.6886673  70.3994751  54.5619202
  17.0465221  70.8574753  53.1643639  45.5853882  45.8380928  46.6620941
  45.5238953  44.9867516  47.0952988  44.7003632  46.0068283  46.3388481
   4.3446774  20.4979897   3.7165191   4.8654475  19.9220753   3.1567402
   4.9917374  20.9881573   4.2237477  13.8701687  52.8184547  43.3256531
  13.2035799  52.7150726  42.6465340  13.5018635  52.3783569  44.0917435
  19.1775246  18.0542603  68.0734634  19.0906067  17.5732613  67.2504730
  20.0418186  18.4624252  68.0222015  78.4037476  28.6732807  84.1099548
  78.5300980  28.2424622  84.9553299  77.6352844  29.2296257  84.2371368
  77.7895355  50.9183197  82.0356598  77.1745071  51.6235619  81.8341522
  77.2419510  50.1366577  82.1090240  16.3842640  25.5247803   8.6831589
  16.4905090  25.9030762   7.8103266  15.7554541  26.1002331   9.1186876
  16.6997204  16.3812218  63.0070992  17.2074108  16.7964592  62.3099174
  16.2345715  15.6668491  62.5717392   3.7722859  59.2179489  46.7158432
   3.7393696  59.1114006  47.6665230   4.3583217  58.5225983  46.4170456
  36.4011383  64.6280365  24.2121067  35.7246094  65.2872162  24.3670807
  36.4386063  64.5426636  23.2594585  76.4538422  42.2259064  11.0071936
  77.2441559  42.7257996  10.8028784  75.8110657  42.8877411  11.2622261
  62.1085854   3.7703357  34.4211197  62.8551941   3.3129423  34.0343399
  61.4798050   3.8516192  33.7040024  32.5470963  11.4341755   9.3843355
  32.7365417  10.8524799   8.6481476  32.5219727  10.8555832  10.1464577
  79.8511887  32.3882523  33.7443237  79.5405121  31.8355255  34.4614029
  79.2882919  33.1617546  33.7769470   7.7631111  37.9282341  60.9185257
   8.0500870  37.1276207  60.4793282   6.8162079  37.9509735  60.7803574
  78.1401215  13.4351892  84.8482971  78.3824387  13.1561804  83.9653091
  77.8975296  14.3559504  84.7504196  49.4041405  35.6457787  55.9183426
  48.8120232  35.9339447  55.2236519  48.8602638  35.6311836  56.7058792
   5.2042356  17.5360489  80.0860138   4.4176631  17.9287243  80.4646225
   5.9257946  18.0551167  80.4412003  69.3210449  38.5665512   3.7324889
  69.0093079  38.0212097   3.0102332  69.1626129  38.0399132   4.5159330
   7.4982400  52.2912025  65.3644638   6.6684933  52.0483398  65.7752762
   8.0828514  52.4796715  66.0985870  23.9785404  39.9869957  65.2818604
  24.5265198  40.5351677  65.8435211  23.4012108  39.5239258  65.8888931
   2.1945968  22.5120544  87.9607010   1.3356662  22.2694855  88.3065796
   2.4918869  23.2198009  88.5324936  63.9396362  21.6022110  37.4646873
  64.3652267  22.0416012  38.2009201  64.6616592  21.2322369  36.9567146
  53.5509262  52.9984818  10.2403841  54.2517357  53.4254265   9.7476263
  52.8340797  52.9127769   9.6118755  49.0275879  42.6167488  70.8914185
  48.2363510  42.2474594  71.2835922  48.7407379  43.4460144  70.5089722
  85.8720245  58.5036545  81.1499863  85.9968185  59.3199425  81.6340714
  86.4652634  57.8820076  81.5717087  61.6739922  49.0991592  86.2210922
  60.9906425  48.8980942  86.8604965  62.3141289  49.6168098  86.7094498
  36.6687660  57.1935120  26.0446072  37.5233688  57.2490845  25.6170597
  36.5216026  58.0697937  26.4005661  14.7155085  21.7743797  50.2855415
  15.3835011  21.3509693  50.8247452  14.0180378  21.9995422  50.9012260
  25.0844116  16.1164417  83.8377609  24.3241348  15.7792187  83.3639526
  24.9265480  15.8712397  84.7494507  13.8374910  62.9785461  22.8537636
  14.4650354  63.6980324  22.7847691  13.1804218  63.1688004  22.1842155
  34.3971863  44.4061165  47.0966988  35.0986557  43.8727798  47.4704933
  33.7217484  44.4228249  47.7747421  47.4979477  58.2648315  20.1632729
  47.0397873  57.9048615  19.4038372  47.3541107  57.6211929  20.8570137
  78.3946686  62.1995392  59.5441284  79.1709518  61.6446419  59.6196671
  78.1699524  62.4213295  60.4477539  74.1421890  29.9170113  63.6670952
  74.0902863  30.2729454  64.5541382  74.5922241  29.0786648  63.7713661
  51.4463463  45.6794815  46.4555244  52.3825455  45.5523415  46.3019028
  51.2590446  46.5443649  46.0906639  81.7995605  29.5818691  88.3831482
  81.2233658  28.8709908  88.6640167  82.6796951  29.2080822  88.4264069
  26.0526562  60.3479881  22.5314083  27.0038548  60.2871780  22.4433479
  25.7860394  60.9516754  21.8380737  48.4404945   3.8164546  48.8120651
  48.9501076   4.3033905  49.4596901  48.5613174   4.3033838  47.9968758
  49.0967712  54.7063599  14.7984295  48.7498932  54.7392006  13.9068975
  48.3852386  54.3331299  15.3186760   2.3054106  69.1754837  44.2142601
   1.6561784  69.3965683  44.8819847   2.2530432  69.8927002  43.5825272
  17.3755474   0.3903089  51.4506416  18.2069016  -0.0824585  51.4109726
  17.5704269   1.2493607  51.0760956  54.7075882  47.1287994  44.3874969
  54.1585236  47.2669830  43.6157036  55.1939659  46.3271675  44.1950073
  27.2442780  46.1583710  80.8725586  27.2510929  45.2086639  80.7532196
  27.2240715  46.2803574  81.8217392  80.6359100  10.3966236  68.3783875
  80.4573135  11.3090219  68.6061249  81.4110718  10.1689539  68.8917389
   9.2255421  22.9760647   0.3979834   8.4446363  23.0200443  -0.1538167
   9.7573414  22.2835979   0.0056695  17.6694851  56.0600243  14.6448069
  17.6299000  56.8986549  14.1850653  16.9138641  55.5717659  14.3178930
  75.4983978  58.7019958  78.0654297  75.4005890  59.2425842  77.2815704
  75.3232498  59.2999039  78.7921066  25.7504292  53.6695251  37.5543938
  25.8131866  53.7716866  36.6047325  26.2997322  52.9105415  37.7504539
  58.0606461  55.0853004  70.6309052  57.7457466  55.9794197  70.4981537
  57.6516304  54.5804787  69.9279861  42.3361931  57.8057785  32.5547256
  42.6544304  56.9432793  32.8212814  43.1289406  58.3322220  32.4516068
  57.9411964  21.7811565  76.1345291  57.5059967  21.3467731  75.4009399
  58.7751656  21.3201809  76.2252502  54.5285225  65.7219543   7.7035279
  55.1165733  66.4520111   7.8970356  55.1107903  64.9735260   7.5729380
   6.5934033  43.0935097   1.4460939   6.7709069  43.1205254   2.3863037
   5.6404123  43.1545601   1.3804163  51.1935654   8.2266674  20.7591248
  50.7580528   9.0790520  20.7611694  51.9288864   8.3348503  20.1559391
  63.0694199   0.6829272  81.1120453  62.8469772  -0.0073870  81.7367172
  62.2711601   1.2060477  81.0388718   0.2450579  45.1743546  87.8634796
   0.8763750  44.5192871  87.5658951  -0.2278652  45.4285469  87.0710373
  81.0935669  66.2615509   4.4205360  80.8229446  65.8008957   5.2147593
  82.0433731  66.1470642   4.3891087  81.9845276  11.1130190  15.1927977
  81.4800797  10.3334465  15.4252472  81.3389893  11.7138405  14.8206053
   5.0589857  44.7268562  53.2963600   4.5317287  44.1275826  53.8246613
   5.8757434  44.2528801  53.1398888  27.0494232  53.7083092  77.4379883
  26.1091576  53.5698662  77.5518570  27.2586384  53.2664948  76.6150284
  41.3693352  35.9729767  57.0353279  41.5487709  36.1230240  57.9635086
  40.8818779  35.1494293  57.0156975  46.8969803   3.4180114  81.3270950
  46.6661987   2.5109777  81.1264420  46.0730286   3.8983705  81.2459106
  40.2164803  70.8420105  11.5869665  39.3104668  70.5522003  11.4802980
  40.4988708  71.0757294  10.7027340  83.5869141  54.8604012  16.5028057
  83.9735184  54.6363678  15.6562977  83.9694901  54.2316170  17.1147709
  45.5518951   3.3779478  77.0075378  46.2133522   2.8365221  77.4383087
  44.7823334   3.3109589  77.5727921  12.6607733  38.6146240  71.5005646
  13.0771360  37.9270744  70.9808044  12.1054544  39.0829735  70.8772659
  21.3381615  45.3341179  36.6869278  21.7654114  45.8895111  36.0348320
  20.6780033  44.8484993  36.1923637   0.9366927  63.3712730  66.0616760
   0.4529493  64.0007706  66.5964203   1.6530682  63.8800964  65.6820145
  57.3189659  42.9572334   0.2200318  58.0339203  42.7221794   0.8114872
  56.6953926  43.4277725   0.7731895  33.1517334  10.2359295  66.0979004
  32.3871422   9.6616364  66.0552368  32.9177589  10.9871387  65.5527649
   3.2079124  64.1481628  44.0212631   2.5296869  63.7121811  44.5371742
   3.6417572  63.4385185  43.5475311  54.1843414  58.6931381  49.2095909
  53.5391922  57.9913254  49.2960701  54.9111214  58.2928925  48.7322845
   9.1366615  14.5098190  61.7264824   8.7194643  14.9187803  62.4847221
  10.0625229  14.7377024  61.8106346  38.9165916  32.3368416  83.2725525
  39.2141151  31.5975761  82.7422714  38.0086441  32.1256256  83.4899292
  18.6149883  55.1409378  68.1890030  18.8858547  55.8380890  68.7863693
  18.7137909  55.5215034  67.3162842  41.9515724  36.2720490  59.6016617
  41.9894714  35.3600960  59.8899918  42.8245926  36.6182251  59.7866898
  39.6040115  62.8391304  45.2299843  39.4276276  63.7073441  44.8675919
  40.5569649  62.8031197  45.3125191   0.5120400  10.9481945  82.1809616
   1.4047472  11.2876043  82.2450409  -0.0452114  11.7014141  82.3768234
  62.2437553  58.6389809  48.7622604  62.6058350  58.5342903  49.6421318
  62.9586372  59.0207787  48.2529411  65.6447754   0.8943880  65.6549149
  65.4465714   0.3011236  66.3794708  66.0344543   1.6619296  66.0735626
   5.2023377  25.8137856   5.7996125   5.5590758  26.4940033   5.2284083
   5.3859510  24.9944820   5.3399830  63.8471603  20.3107319   1.9194659
  64.3366165  19.8251228   2.5834320  63.5862160  19.6469631   1.2810698
  23.1814060  37.3832703  23.3878250  22.3670826  37.6209869  22.9444256
  23.0128593  36.5123825  23.7475166  70.7541809  44.2369728  61.2934799
  70.4403000  45.0158882  61.7528381  71.4776993  44.5532608  60.7524529
  55.1922417   5.0811553   4.2995996  56.1101151   5.0246739   4.0339856
  55.0354233   4.2755198   4.7921352  12.8651066  29.8004436  64.9551773
  12.2409658  30.4085083  65.3513336  12.7110262  28.9708290  65.4070969
   9.7527494  12.7682581  75.3204193   8.8145905  12.6980877  75.1438828
  10.1647549  12.6922884  74.4597702  11.7148533  49.8691978  70.7590714
  11.6920347  50.7647858  71.0961685  12.2972374  49.4024544  71.3584061
  19.3843098   4.7708526  78.5339661  19.5399265   4.5884628  77.6072845
  19.5648689   5.7061944  78.6275940  12.8881426  53.3956528  33.5360909
  12.5844164  53.9497414  32.8170853  13.6775236  52.9739761  33.1965332
  65.1996155   8.0033236  66.1959534  66.1283340   8.2166710  66.1054306
  64.7779312   8.8426113  66.3803787   5.8331194  21.8297691  73.8615494
   5.6886239  20.9353638  74.1704025   5.0395513  22.0450897  73.3715286
  38.0914345   4.7650900  38.4610519  37.8096123   4.1020355  39.0912628
  37.7891273   4.4351130  37.6149101  17.3454971   2.9675167   7.0427446
  16.7080708   2.9127450   6.3307614  17.0691414   2.2937870   7.6639919
  41.9354744  70.4367447  19.9299965  42.7677879  70.5155258  19.4638653
  41.5280838  69.6526794  19.5618916  85.9247437  32.9433212  13.4965916
  85.8348312  33.2594986  14.3955793  86.3605347  33.6587830  13.0335255
  68.6887054  34.2230415  66.3165970  68.7618256  35.0322800  65.8106155
  69.3014374  34.3384743  67.0428619  83.6112213  41.1012459  54.4091492
  83.2001038  41.7741470  53.8665466  84.5439377  41.3155746  54.3907623
  36.5568237  18.8202534  81.8579254  36.3004456  18.3334541  81.0746460
  37.3249474  18.3545704  82.1886139  10.1362324  54.2666931  35.3446045
  10.6237698  53.7364502  35.9749870   9.6493368  53.6297226  34.8216972
  46.4340286  27.7642460  12.9064999  47.1722107  28.3687363  12.8296375
  45.8313522  28.1977749  13.5107098  66.4871445  68.3486938  47.0903816
  66.3510590  68.6953354  47.9721718  65.8004456  67.6905441  46.9831352
  37.7504349  49.6400948  26.1041126  37.3521614  48.8709831  25.6965847
  37.4937630  50.3698235  25.5403328  68.3726425  62.5726814  42.9968185
  67.8344803  63.1949272  43.4861298  68.3267670  62.8772430  42.0905266
  59.8097191  67.6455612  68.1304016  60.4664993  68.3347321  68.2299881
  60.3182220  66.8533401  67.9570694   2.8392875  27.4944763   6.0484061
   3.4444072  26.7794704   5.8513575   3.4009230  28.2633133   6.1468263
  52.2624588  41.0441971  75.2686157  52.3554153  40.1408844  74.9659348
  53.1520386  41.3968887  75.2466736   7.1538162  25.9742908  81.4930954
   6.3949385  25.5087070  81.8446198   6.7796416  26.6473465  80.9245758
  82.5107040  14.5294237  46.1574059  81.8304291  14.3146915  46.7956467
  82.0656509  14.4907942  45.3108406  84.4680710  71.4917374  67.6711273
  85.3976593  71.5383835  67.4476929  84.2067642  70.6044540  67.4248047
  18.6165733  25.2413216  16.5065041  17.7617073  25.6592026  16.4025326
  18.4153671  24.3578892  16.8152046  64.5304565  70.6116638  52.9608955
  63.6127892  70.6461182  52.6908340  65.0162506  70.9288025  52.1995430
   8.1642485  61.2040443  21.6088791   8.7084846  60.5015831  21.9646721
   7.8673272  60.8713684  20.7618847  62.9234352  37.6998100   1.1390846
  62.7117004  38.2177124   1.9157296  63.7184944  38.1037331   0.7912916
  84.2733307  11.6204433  81.2630310  84.9493790  11.8152437  80.6139984
  84.6022415  12.0066195  82.0747757  38.2353897  24.9322090  80.4193726
  38.3197708  25.7926064  80.0084915  37.3072281  24.7151012  80.3320999
  63.6525230   4.3485560  53.3137321  64.0858154   4.3350997  54.1671410
  63.0792542   5.1143274  53.3482246  80.6769562  54.9606819  32.7786331
  79.7733459  54.6786079  32.6366463  80.6656494  55.9006119  32.5979729
  31.8397827  38.0269737  85.9549942  31.6645889  37.7509575  86.8546371
  32.7714043  38.2466965  85.9489899  18.5323811  55.3522568  34.3724403
  18.2949276  56.1759644  33.9465828  19.4822769  55.4028816  34.4790611
  41.9296417  69.1128082  42.6202698  41.3447647  69.8120499  42.9121628
  42.7927017  69.5245743  42.5777702  11.2697716  40.1693993  63.7252121
  10.5282297  40.7661438  63.6239891  11.2977285  39.6804504  62.9027901
  69.5361176  31.9177933  69.2983170  69.4758148  31.1753788  68.6971359
  69.5646362  31.5197487  70.1683655  58.2823677  53.2770042  21.6627369
  58.1066208  54.2152138  21.7342453  59.2101593  53.1897736  21.8814220
  25.4532032  62.8953514   9.2003536  25.6659050  63.8283882   9.1795292
  24.5575256  62.8463669   8.8662987   4.5585780  28.2318211  82.2292862
   5.1705680  28.9011555  82.5353699   4.5075092  27.6057148  82.9515152
  51.9518585  10.4119835  58.1884651  52.3002853  10.6607876  59.0445786
  51.5277863  11.2058220  57.8625603  71.6816101   7.1250110  35.4880943
  71.5171585   7.3347440  34.5687485  72.3875275   6.4790025  35.4638176
  56.3087616  10.6007423  19.2071362  56.4021645  10.6779270  20.1566353
  56.8905487   9.8795452  18.9670753  31.3603916   7.4202652   3.1643529
  31.5749874   6.7967644   3.8582029  31.5201225   8.2788954   3.5561078
  76.4670029  16.0228424  81.7922211  76.3000031  16.9587975  81.9032822
  76.5311356  15.6834145  82.6849213  25.6265564  51.3938675  55.9213371
  24.8306866  51.0885239  56.3567543  26.2876167  50.7381401  56.1432800
  12.5913601  59.4036980  25.7533932  11.9016018  59.9601135  26.1151485
  13.1350060  60.0001984  25.2387390  37.9539566  68.1344147  15.1478281
  38.4407883  68.7528458  14.6030636  37.0342064  68.3345413  14.9739199
  29.5250530  59.9172783  59.6597900  30.0205479  60.7298775  59.7617607
  28.7119942  60.1847000  59.2312393  85.6070251  71.6762161  52.9666519
  85.8679123  71.0024414  52.3388023  86.3899384  71.8257217  53.4966812
   6.7806439  50.9931831  62.6161842   5.8772402  50.7674217  62.8378258
   6.8006434  51.9499321  62.6378593  43.7451630  31.0010624   7.1384573
  42.7931137  31.0169296   7.2363400  44.0608215  30.5752659   7.9355073
  67.6867752  34.8064079  50.5576324  66.8616333  34.7792130  50.0732384
  68.1033249  33.9655952  50.3685493  42.7997093  53.0605698  86.9588394
  43.4651794  52.4751358  86.5973892  42.7628975  52.8362503  87.8886566
  72.9124832  17.3380337  64.8271713  73.6287231  17.1235313  65.4248581
  72.9314651  16.6415119  64.1708755  10.7644396  62.7777214  32.2642174
  11.0217619  62.2723427  31.4931087  11.5366125  63.3025589  32.4752312
  42.9742546  64.9404526   3.3526726  42.1482658  65.0177689   3.8301656
  43.6483154  65.1066360   4.0116506   7.8685293  11.4719534  78.2308044
   8.5639877  12.0285349  78.5812149   8.0701866  11.3951893  77.2982407
  61.3434334  38.7899246   5.2756162  60.4488411  38.9420776   5.5802279
  61.8939247  39.0234337   6.0230532  38.5945282  -0.1326684  74.5327301
  39.2348785   0.0326716  73.8407440  37.8372383   0.4003662  74.2906113
  39.0321655  56.7291107  20.1796055  39.0081558  55.7746887  20.1108017
  39.2066498  56.8981857  21.1054573  73.1531067  10.4691982  32.4833527
  72.4400864  11.0954399  32.6084709  72.8832626   9.6966581  32.9799423
  47.8434258  31.4340878  42.1483154  47.1101494  31.8039436  42.6399879
  48.2393341  32.1856499  41.7071266  81.2465897  30.7268600  21.6653767
  81.7634811  31.5319977  21.6369343  81.8296814  30.0819206  22.0657463
  56.7069855  44.1823463  53.6911621  57.4705849  44.0754700  53.1239548
  56.6009598  43.3298035  54.1132545  54.2233734  56.7325516  33.9232063
  53.3819122  56.2802124  33.8635063  54.1561661  57.2593002  34.7196045
  71.7926483   9.5356102  54.7584763  71.9499283  10.3983727  55.1420555
  71.5490952   9.7177916  53.8508835  35.6824379  17.7195683  74.9289627
  35.1884804  16.9574013  74.6267319  36.3978577  17.8065128  74.2990112
  65.6019897  34.6010361  41.2669487  65.7946320  33.6787720  41.0979805
  66.4612427  35.0107040  41.3673630  64.5055084  41.0861816  65.4745865
  64.5678024  41.7886925  64.8274155  64.6566238  41.5200310  66.3143311
  14.7619715  68.6430817   3.6909988  14.1005831  69.2811279   3.9587638
  15.4145908  69.1589661   3.2175179   4.8415551  15.5939875  77.8496857
   5.0575933  16.2675114  78.4946060   3.9144626  15.7348680  77.6576309
  22.9494762  43.0461349  86.1505737  22.8521328  42.1743546  86.5336533
  23.6730995  43.4418068  86.6364288  60.0516930  41.2036743  63.3600922
  59.5973892  40.5207138  63.8534546  60.7716599  40.7464981  62.9255028
  25.9134445  49.2188148  18.8459206  25.1264324  48.7409554  19.1076355
  26.5724239  48.5382271  18.7088947  25.0637188  41.1423035  61.2587090
  25.3098164  42.0614548  61.3627548  25.6568184  40.6681099  61.8414650
  33.4309616  14.7429514  85.0138779  32.5712509  15.1139107  84.8150711
  33.9487572  15.4881678  85.3184662  14.2263174  17.2157555  21.0008831
  13.7346754  17.0227737  21.7991810  13.6570225  17.8045254  20.5054188
  47.1066856  52.1231537  14.3235550  46.5626831  51.6886711  13.6666546
  47.3462372  52.9582901  13.9218121  -0.2114197  68.0649490  10.7858162
   0.4025549  68.3915710  10.1281061   0.2378018  68.1990738  11.6203480
  32.1419945  47.0377693  58.3596001  31.8866234  47.0028572  57.4377556
  31.3495655  46.7922707  58.8371162  22.2084312  26.1046982  63.1549797
  21.3208675  26.2106228  62.8125725  22.4161110  25.1830578  63.0010910
   5.2998323   4.8039041   4.2383156   5.5620108   4.8790412   3.3207924
   4.3970804   5.1216297   4.2562456  46.9062309  53.8698235  26.5535755
  46.2275200  53.8683052  27.2285423  47.7284355  53.8144722  27.0405560
  75.5895615   4.9789796  23.7285557  76.3123474   5.3500428  24.2346401
  75.3631897   5.6624126  23.0977592  69.8271561  47.2277412  28.1866455
  70.1197739  47.0867996  27.2862339  68.8845901  47.3766479  28.1116352
  17.3913174  53.5388794  56.6962662  17.5282784  52.5919075  56.6695938
  18.2013721  53.9080467  56.3444672   7.2907233  44.1204529  59.1417007
   7.9463415  43.6466675  58.6299133   7.5771127  45.0333061  59.1114693
  84.8781738  48.0257874  70.6312790  85.7063293  47.5524216  70.5518799
  84.2114487  47.3852425  70.3834457  18.3175316   0.4607266  19.9705334
  18.1528568   0.1788005  20.8703289  19.0992012  -0.0246798  19.7067070
   6.5764070  47.0730782  84.9267578   5.6208439  47.1099815  84.9688187
   6.7878904  46.1534729  85.0874786  82.8314209  60.1547775  78.3436890
  82.9092255  60.6983185  77.5596313  83.1443329  60.7139397  79.0547791
  71.7757034  56.8292236  49.0657768  70.9034119  57.1358261  48.8181343
  71.6169891  56.0132675  49.5403900   8.8845377  59.0678444   0.2183148
   8.8884373  59.4409447   1.0997981   8.8423843  59.8271561  -0.3629743
  60.5223122  36.5156593  62.8718567  60.2322769  35.6824646  63.2431984
  61.4780655  36.4669609  62.8916931  20.6318588  11.6185722  21.3042183
  20.2119846  12.4026880  20.9505234  21.4881458  11.5921135  20.8772449
  74.7139282   0.3979899  86.9131317  74.4775085   1.0986700  87.5209045
  73.8973694  -0.0805159  86.7699356  55.9891281  53.8466568  81.5771790
  55.3401413  54.0347595  80.8991928  55.7997704  52.9480972  81.8472900
  74.5877380  32.9192963  32.9712448  74.6855087  33.2795868  33.8526421
  75.4690704  32.9536057  32.5993462  25.5808296  43.5920372  52.4589653
  25.6026306  43.6664505  51.5049095  24.9132099  44.2208405  52.7330551
  77.1734390  23.7221279  71.1275787  76.9917374  22.9067440  71.5948792
  76.9423447  23.5335350  70.2180405  48.4832649  33.5594635  77.3968887
  48.2440948  34.4614944  77.6098862  49.2716103  33.6410713  76.8601532
  46.6477470   8.1666842  70.4866180  47.2222977   8.2908974  69.7311783
  47.0120125   8.7396402  71.1613464  73.0262070  19.4786930  61.8173103
  73.2508545  20.1574841  62.4537086  72.1419220  19.7043152  61.5285645
  72.7280350  18.7958717  80.9536896  73.4508362  18.1686459  80.9731750
  73.1544800  19.6511440  80.8999710   6.4833989  46.0327415  74.9720001
   6.8755231  46.0291634  74.0988083   5.7754173  45.3907051  74.9192505
  79.6818161   6.5385809   9.8057184  79.7162094   6.4781322  10.7603884
  80.5920792   6.6715808   9.5412045  75.3934860  33.5529633  51.0937462
  74.5235519  33.7562943  51.4374123  75.9539642  34.2511559  51.4323082
  80.9476166  62.9651604  66.6631546  80.6290054  62.7212029  65.7941360
  81.8902435  63.0850029  66.5477295  43.4016113  63.7648621  69.0243835
  44.2108727  64.0547409  69.4454498  42.8858643  63.3825264  69.7343521
  50.8376312  17.2766132  39.5434151  51.3678627  17.0814953  38.7707481
  51.4681473  17.5818272  40.1957359  36.8745232  45.9555855  48.1546593
  36.0877380  46.4720802  48.3291245  37.0082054  45.4455070  48.9535217
  76.4249496   6.7359114  78.2551346  76.0295715   7.4929581  77.8229370
  76.8319168   7.0955911  79.0433197  77.0758438  36.4213257  57.6421165
  77.2707520  36.5952377  58.5629845  77.5628510  35.6222000  57.4409943
  84.9619522  41.2091980  47.9053497  84.2687531  41.2454796  48.5644379
  84.6055756  41.6869736  47.1563797  58.2809486  36.2731133  11.7145958
  58.7458458  35.4421501  11.6166067  57.9050560  36.2350006  12.5940742
  29.7566509  40.2760048  38.1873512  30.2836533  39.5722809  38.5658722
  29.2707691  40.6368141  38.9289474  37.7477951  48.7425194  50.4665451
  37.7471924  47.8058052  50.6635246  36.9431190  49.0719566  50.8667908
  50.3586960  65.3709259   4.9282141  49.9662933  66.2437515   4.9074922
  51.1931267  65.4941483   5.3807344  37.1739655  54.4148407  72.8263016
  36.6945992  54.3742638  71.9987793  36.5155411  54.2233047  73.4941483
  82.6357727  27.2361927  36.5615921  82.3128128  27.4288883  37.4418182
  82.7612457  26.2872753  36.5549049  56.6525803  17.2122459  82.0162659
  56.6967697  18.1251316  81.7318115  56.9967918  17.2227421  82.9093781
  40.9937096  68.2182999  50.8993034  41.5392570  67.9545822  51.6402931
  40.8955917  69.1652069  50.9991417  49.2507591  65.9182358  72.6390381
  49.0640221  65.4768448  73.4676132  48.3985519  66.2338104  72.3383942
  38.6921082  42.6753922  52.3009949  38.3483696  42.7889938  53.1870918
  38.6475601  41.7318840  52.1459465  69.6396713  36.1704369  54.9355583
  70.5205841  36.2595253  54.5718498  69.1875610  35.5854568  54.3275909
  64.6633224  25.5647697  49.5482635  63.7298355  25.6966972  49.3826523
  65.1017685  26.0683270  48.8623886  38.6076393  10.0631838  62.6338043
  37.8792458  10.4459257  63.1228714  39.3896523  10.3490820  63.1059799
  84.0209808  15.1185541  68.0378036  83.9227448  14.4875574  67.3247681
  84.4497528  14.6250534  68.7369766  67.5856247  48.9558182  63.9215622
  66.9613342  49.2934380  64.5638351  67.9068604  48.1400414  64.3056717
  25.7607460  27.5598278  84.4668350  25.6149368  26.9194183  85.1631470
  25.2702579  28.3329697  84.7459488  84.0682144  39.9144783  39.6417923
  83.3509369  39.2808113  39.6562881  84.3439331  39.9432220  38.7256165
  54.0699768  55.0147324  57.7604980  53.8670311  55.9007454  58.0605392
  53.2647324  54.5200539  57.9125214  36.7269974  40.3999939  32.2635193
  36.0547447  40.9603729  31.8758583  36.7815247  39.6481781  31.6735764
  81.0060577  36.3030624   2.6096907  81.3918152  35.4618225   2.3652923
  81.3489456  36.4782295   3.4860325  18.7678013  45.4706612   9.7281818
  18.9440174  44.9684410  10.5237665  19.3039532  45.0502319   9.0558624
  75.4481354  53.6438141  83.2839355  75.6025696  52.7964897  83.7015839
  76.3065948  54.0671501  83.2764282   0.8308595  41.5190926  77.1698990
   0.5283567  41.0359535  76.4009399   0.6595567  42.4368706  76.9587936
  44.7710953   2.6527829   0.5309253  43.8278313   2.8146141   0.5136374
  45.0501366   2.9549117   1.3952657  59.4767838  38.1978378  61.1022949
  59.9169884  37.9538269  60.2881012  59.7711601  37.5459633  61.7384033
  58.4147148  28.5902500  41.3167915  58.0064240  28.6812496  40.4558372
  58.9094315  29.4012432  41.4341850  39.6662712  32.8623238  21.3889542
  39.9507561  33.2497177  22.2167397  39.8320808  31.9254093  21.4934788
  69.4908981  55.9540215  28.0340099  68.8330231  55.2593422  28.0047703
  69.3655930  56.3667374  28.8885231   8.0228958  43.3317833  46.2615585
   8.7070866  42.6690674  46.1670990   7.2339249  42.9120636  45.9186401
  12.5939732  33.5983086   0.3767040  12.1916485  33.4555511  -0.4800270
  11.9440575  33.2790031   1.0027115  54.0194206  27.9571819  75.0981216
  54.7788353  27.4434891  75.3731461  53.6704369  28.3227654  75.9110184
  12.0264654  27.9068146  14.6706009  11.9912825  28.8041248  14.3391972
  12.0123386  27.3605194  13.8847303  41.3515587  50.4916725  69.3098297
  41.2723007  50.9699173  70.1351929  40.5481911  49.9741783  69.2547684
  51.9440918  66.8915482  45.3272018  52.2523422  66.4226837  44.5517197
  52.7378426  67.0657730  45.8330116  28.5738411  31.1638222  73.6545944
  27.7477417  30.8184528  73.9929886  29.2475433  30.7256718  74.1745758
  63.5773392  47.9957504  34.5021896  63.3810616  48.0661469  33.5679779
  62.7564545  47.7029877  34.8980026  57.6930237   5.7985382  74.5327377
  57.0595627   6.5152755  74.5680237  57.2490654   5.1107130  74.0367279
  80.2125397   3.2197006  41.7458344  80.3947525   3.3578856  40.8163528
  79.3774719   3.6632371  41.8947220  10.5820379  42.4138641  42.3066139
  10.9358358  42.2055664  43.1712952  11.2237444  42.0565033  41.6928215
  71.2969284  63.0846748  81.5572357  71.5499420  63.1336403  80.6353760
  70.3488922  62.9538116  81.5387802  78.9422226  47.2933578   6.4805050
  79.6939545  46.7024841   6.4357696  78.9270859  47.5932846   7.3893757
  50.4198990  36.1066551  12.3007040  50.8516197  35.9227867  13.1349945
  51.1374321  36.1866341  11.6722298  35.7686958  25.3633900   7.6454411
  34.8861427  25.2342072   7.2980952  36.0357475  26.2187271   7.3088198
  19.6367741  15.5852537  18.0790806  19.2136822  16.4438515  18.0848598
  19.7541313  15.3698378  19.0043125  40.0097618  29.4141426  70.3773193
  40.7995644  29.7764664  70.7787704  39.3773346  30.1322231  70.4023666
  38.2408905  58.0922394  42.2925987  38.9886360  57.5451965  42.5331116
  38.4333153  58.9453926  42.6816139  67.8860092  17.1951141   6.4403734
  67.3526993  17.9552765   6.6726871  68.1393738  17.3494034   5.5303001
  55.2116394  28.7795162  12.8915730  54.9046936  29.6568451  13.1202860
  55.9638138  28.9305763  12.3191681   5.9135423  58.6193161  58.8896675
   5.8691516  57.9875336  58.1719551   5.0007606  58.7616158  59.1402931
   5.4478688  64.6374588  52.7517166   6.1575747  64.2700577  53.2785606
   5.4754467  64.1414566  51.9335136  50.4315643  26.2005539  83.5653458
  51.0314255  26.6809044  84.1360168  50.9905853  25.8474407  82.8732224
  80.6075745  65.3217926  76.6496811  81.4697266  65.1498566  77.0283203
  80.1959991  65.9341888  77.2594376  29.7082825  49.7141228  40.9428558
  29.0069275  49.0645676  40.8937531  29.7970600  50.0389481  40.0468445
  86.3247833  50.2664528   1.6923175  85.6968460  49.7923088   1.1472377
  85.7909622  50.8880310   2.1871979  14.7169600  65.1765366  60.7774162
  14.4264202  66.0875168  60.7334137  15.2061205  65.1205292  61.5982819
  85.0688858  33.2752953  67.7209244  84.8561401  33.1680107  66.7938538
  85.3629074  32.4085159  68.0010605  14.1217260  25.3162727   2.9306142
  14.0418072  24.3996792   2.6666026  14.9628248  25.3621101   3.3852384
  42.8793411  47.5802994  85.9500580  42.7918777  46.6872063  85.6169357
  42.0005684  47.8105659  86.2516708  43.6934357  59.9584579  76.3062820
  43.0519905  60.5266647  75.8797607  43.2392616  59.1227112  76.4134521
  66.3662415  28.6749153  57.0518799  66.2172012  28.1129532  57.8122864
  65.4906998  28.9573441  56.7875023   1.1573007  64.5092239  47.5488701
   1.5052838  63.6914024  47.1934662   1.0373483  64.3329849  48.4820290
  24.2675781  58.6094208   7.9185672  23.5769882  58.7893677   7.2806530
  23.9076633  58.9110184   8.7526722   5.2514782  36.4721184  26.9073277
   5.2877598  36.3073425  25.9651146   6.1478920  36.3278275  27.2103996
  45.4935341  19.7911816   0.2724420  44.6768303  19.8595734  -0.2220774
  45.2516212  19.3214397   1.0705981  82.8229218  65.7017822   2.0140603
  82.6816940  66.4946823   1.4967643  82.3000946  65.0319748   1.5733261
   5.7804694  63.6619453  17.4600773   5.3739390  64.0451965  18.2373066
   5.0764074  63.1672630  17.0407715  58.7137146  33.0312920  54.8155899
  58.8792686  33.9474792  55.0379105  58.8136978  32.5620079  55.6438446
  86.7981720  11.4675198  46.2170563  86.2574310  11.8485031  45.5251884
  86.4966278  10.5616198  46.2852554   1.4540064  10.1492062  17.2315426
   1.0089927   9.4301271  17.6800079   0.9274890  10.3048735  16.4474640
  82.5618744  68.0352020  19.0952034  82.3943253  68.8260345  19.6077919
  81.9654388  68.1022491  18.3495483  84.9136810  14.1135311  58.1311417
  85.3061295  13.2736006  57.8929482  84.2691574  13.8945017  58.8040810
  60.6756172  30.4169807  35.0957260  61.4931908  30.2666378  34.6211700
  60.9267731  30.9681644  35.8369064  84.3479462  50.2427979  64.3129883
  84.7401352  50.3297462  63.4441643  83.9205170  49.3864555  64.2982254
  21.5403728  30.2788372   5.2956657  20.7680969  29.9194489   4.8590174
  21.2387314  30.4920502   6.1787200  26.3838310   6.3972754  71.7643051
  25.5667992   6.8057833  72.0503311  26.3721333   6.4802961  70.8107834
   2.5611582  65.2942657  35.5559464   2.7156875  64.7297668  36.3133736
   2.5794375  64.6994400  34.8062248  76.4145813  18.4547672  23.0626087
  75.9836273  17.7780056  22.5405884  75.7140732  19.0679359  23.2851696
  32.6955795   2.8954368  17.5247345  33.4539032   3.1022782  16.9784794
  32.9831314   2.1593971  18.0649109  83.9001083  30.0054684  79.3060226
  83.7354126  30.6255417  80.0163879  84.8529739  29.9918137  79.2161179
  74.3650589  18.7122650  30.5946465  73.5491257  18.8377285  30.1101418
  75.0519180  18.9568138  29.9744453  57.3296013  14.8215160   9.0993977
  57.9236221  15.1173944   9.7891998  57.7392731  15.1184969   8.2868690
  72.7867813  15.5476046  45.4454346  73.6129990  15.1340103  45.1953850
  72.7681808  16.3653488  44.9482613  39.9869499  15.5808182   8.5180912
  39.6531982  14.7331591   8.2242975  39.4005775  16.2215805   8.1158218
  22.4743156  41.1805534   3.2270076  23.0435925  40.4151154   3.1478689
  21.6758823  40.9345474   2.7598715  48.0540352  57.3982658  10.8535185
  48.9015198  56.9614449  10.7687292  47.6820488  57.3725204   9.9719324
  16.3829079  31.0569324  20.5310192  17.1203442  31.6319790  20.7353306
  16.6882668  30.5287037  19.7934818  59.1172676  24.2876987  78.9246979
  59.0159187  24.0766106  79.8528137  59.5654144  25.1334915  78.9189835
  64.9962006  69.0811234  70.0778885  65.4380188  68.2574692  69.8714523
  64.1108627  68.8208389  70.3321457  58.9495010  14.2313137  77.2815704
  59.1167374  15.0220461  77.7944107  58.0116501  14.2622919  77.0925980
  16.7305756  47.3506927  10.0358152  17.2109566  46.5227928  10.0428982
  17.3492756  47.9834862   9.6710997  36.7059326  62.8495293  45.2457390
  37.5647850  62.4613533  45.4128532  36.8662643  63.7932014  45.2418442
   3.0899696  16.9401283  75.1827621   3.2013025  17.8386040  74.8719940
   2.2821641  16.9625034  75.6957779  46.4698830  70.3181381  51.3509293
  46.6382370  70.0191879  50.4573326  45.7812233  69.7362289  51.6724243
  17.7736435  41.1563606  21.3355789  17.3765011  40.3237953  21.0799408
  18.6954689  40.9461670  21.4848709  51.6350479   5.7086296   8.4639511
  51.1429863   5.0100956   8.8954105  52.5500069   5.4367771   8.5359325
  11.3601971  38.8832016  18.0303707  11.1436281  37.9895248  17.7645340
  12.2065954  39.0571289  17.6185551  75.5696030  13.5345078  22.7812271
  75.9419556  13.6547480  23.6547966  75.6082153  12.5897427  22.6323662
  54.3596306  66.6592865  46.4306259  55.0275536  67.1495590  46.9099388
  54.7128448  65.7718582  46.3678169  36.3886795  12.4068518  68.6477661
  35.5855713  11.8919449  68.5695267  36.8790359  11.9804926  69.3506165
   2.9680579  13.9827366   9.6907692   3.3091066  13.0978031   9.5611181
   2.3386128  13.8943672  10.4064655  60.2172012  37.6577110  39.6525497
  59.9462013  37.8072739  40.5583229  61.1738205  37.6699409  39.6836357
  52.5429764  41.3115120  43.8484955  52.7296371  42.2465401  43.9328346
  52.0593567  41.2370720  43.0258141  16.8833599  41.0983124   6.0062919
  17.3285236  40.8860474   5.1859221  17.4495926  41.7464066   6.4253216
  79.5711365  50.4668503  71.5145645  78.8037567  49.8986015  71.5812912
  79.8722382  50.5696869  72.4173355   7.0993757  46.1455231  24.8129940
   7.5511246  45.4946594  24.2758408   7.4489689  46.0131683  25.6941853
   9.7870779   9.2337179   0.6343402   9.2774448   8.7569304  -0.0207785
   9.1354876   9.5538998   1.2581555  48.3142090   0.3923148  29.4783344
  49.1080437   0.8607984  29.2202988  47.6068153   1.0198364  29.3298683
  74.9707947  33.6836586  63.0424843  75.0154877  34.4381294  62.4551048
  74.5139542  33.0123100  62.5357094   5.6199470  62.8608360  67.4256897
   4.8685746  62.9217606  68.0155716   5.7098122  63.7410927  67.0605850
  31.2448311  56.0357895  61.0853844  30.4553776  56.5217400  61.3238106
  31.0937881  55.1529541  61.4230614  52.9896164  61.4026871  10.6151152
  52.8304520  60.7407341  11.2879581  52.4191933  61.1487427   9.8896084
  21.9735775  20.0864449   1.9453828  22.7662220  20.5559483   1.6855485
  21.4863796  19.9693012   1.1298163   0.9371128  40.2184982  74.5459595
   0.0473288  40.3389626  74.2142868   1.3543330  39.6398621  73.9077301
   6.4913130  49.7053604  77.2092056   5.9400954  49.9751053  77.9438019
   7.3108811  50.1831703  77.3366470  80.9221573  42.3430862  60.3810120
  80.2793121  42.9297791  60.7794762  81.3870621  42.8911285  59.7487564
  47.9150925  26.6630116  53.7131538  47.5190010  27.5115204  53.5147247
  47.2268028  26.1779804  54.1683846  49.1019020  51.5138741  56.7921066
  49.7712669  52.1762047  56.6203537  48.2838707  52.0081215  56.8448219
  53.0091095   9.3718996  27.0068665  52.7323799   9.4068403  26.0912094
  52.8420677   8.4678087  27.2732296  23.6859245  38.7406998   3.2895570
  24.4504833  38.6721535   3.8613813  23.2794724  37.8749466   3.3282936
  41.1114807  26.0560760  67.2484055  41.1499481  27.0113621  67.2951355
  40.2537498  25.8329372  67.6099854  52.6181831  63.4132156  63.5278282
  51.8109398  63.8420563  63.8118896  52.9615288  63.9815903  62.8384132
  33.3259125   8.8783550  75.9937210  33.4950104   8.6688242  76.9122696
  33.9063988   9.6158056  75.8054886  12.5846548   1.6986314  56.1728096
  12.2315092   2.1963208  55.4353676  11.9388437   1.0093188  56.3277550
  52.1804352  17.4027748  15.8967552  52.8803520  18.0248966  16.0950317
  51.4200783  17.7383614  16.3715916  71.5165787  65.5885620   7.7249608
  71.6704178  66.5093613   7.9363799  71.0796280  65.6080780   6.8735352
  36.3128929  53.1477585  27.9372082  35.7901230  52.6313133  27.3238335
  36.4032784  52.5859909  28.7069359  41.8908463   2.9350629  17.5546799
  42.1735077   2.2638664  16.9335289  41.1623573   2.5324175  18.0273495
  66.6608276  10.2901659  29.4690189  66.8438263  10.2742033  28.5296116
  65.9325333  10.9044943  29.5607510  14.1577959   2.5247746  61.0053291
  14.2615795   3.4456961  60.7658195  13.8796082   2.5453162  61.9209824
  13.7608948  13.2791185   0.0458279  13.1947641  12.5219774  -0.1040564
  14.5590286  12.9102383   0.4241678  52.0591850  41.8223686  66.3919144
  52.2837944  41.3777962  65.5745163  52.7492180  42.4757690  66.5066223
  62.9132004  15.1241512  10.8178959  62.1868286  15.7461987  10.7770195
  63.5254097  15.4263906  10.1470118  46.1180801  59.0804367  36.9435654
  46.0432892  58.2855721  37.4716110  46.9269485  59.4935150  37.2457695
  58.9376678  50.4333572  79.8515167  59.6079445  50.6619835  80.4954834
  59.4299812  50.0993004  79.1016769   1.5409619  46.7735481   7.0349388
   1.0273989  47.5774117   7.1142631   1.4691507  46.5336380   6.1110787
   4.1152954   4.8534036  15.0216551   3.7618246   4.1498446  14.4773254
   4.9951110   4.5569749  15.2546511  39.1736946  46.3342705  57.7824059
  38.8743134  46.8860512  58.5049973  40.0954361  46.5664825  57.6697044
  13.7655144  40.7480240  83.3849106  13.0558262  40.7792816  82.7433472
  14.1650133  39.8874245  83.2584000  75.2202682  39.6424942  54.1775398
  75.1332397  39.6835213  55.1298943  74.9805069  40.5191345  53.8771324
  51.2075958  52.2478371  73.7683792  52.0965424  52.1399918  73.4301834
  50.9871330  53.1592522  73.5761566  45.4926186  48.6227570  41.2196999
  45.4892311  48.3069000  42.1232796  44.9138336  49.3850746  41.2302856
  57.2644386  11.0348444  48.4233170  56.7029724  10.7560768  47.6999397
  58.1551895  10.8841505  48.1069450   0.2988188  48.9232368  84.7938843
   0.1579632  48.2487373  84.1294708   1.2321118  49.1272202  84.7340012
  52.0114937  56.3727455  43.0440826  52.6168060  57.0992088  42.8954926
  52.3614120  55.6570625  42.5134315  84.3894272  61.8329391  17.5232449
  83.5959778  62.3453560  17.3680248  84.2761307  61.4770699  18.4045811
   8.6430244   4.5274200   7.2988553   8.5028572   4.1454802   6.4324222
   7.7913136   4.8910198   7.5409627  48.6765137  18.6254826  19.3638058
  47.7323189  18.4947109  19.4511223  49.0649567  17.9123974  19.8706150
  80.5349808  62.5860329  35.8685570  81.0997696  61.8239365  35.7403030
  80.6146698  62.7890663  36.8005753  81.4443512  23.8495522  47.7825432
  81.5116653  24.7784882  47.5616837  81.4333115  23.8310776  48.7395020
  13.2569475  43.5836334  50.9297180  12.7604027  44.4016075  50.9053955
  13.1030912  43.2360764  51.8082161  27.1390114  53.6102486  47.6654167
  27.1371975  53.4599495  48.6107407  27.2867775  52.7441940  47.2854805
  28.5828552  49.4716911  -0.2455433  27.8330135  49.7513084   0.2796076
  28.8556995  48.6431847   0.1486209  65.0375900  65.0576401  11.0394726
  64.5193939  65.7883682  10.7022142  65.0067291  64.4009247  10.3437719
  18.6310730  53.5862389  86.8916779  19.1412354  53.0247993  86.3079300
  17.7272472  53.4828529  86.5939484   8.2726469  19.9350777  14.3418169
   9.2139959  19.7888718  14.2484484   7.8714919  19.1311474  14.0116634
  83.5852127  42.0297546  20.1688309  83.2398300  41.7360420  19.3258133
  84.4525146  41.6287041  20.2251778  19.1190090  28.1647358  88.3882065
  18.4799404  28.8384323  88.6204910  19.8349628  28.2887440  89.0113144
  68.3481293  19.2738152  41.1855011  67.7886810  20.0273666  40.9973488
  67.7393875  18.5411701  41.2797890   1.3371590  36.5216827  41.2882156
   1.1056300  37.2553558  41.8577309   0.8748891  35.7721329  41.6633339
  29.9245472  55.4144936  70.8406296  29.3809757  55.5808601  71.6107483
  30.2782192  56.2727737  70.6071548   0.1547168  63.3451157  39.3461571
   0.2439750  63.7787628  38.4975052   0.8520812  63.7223816  39.8824272
  80.0538177  30.5837364  38.5967789  80.5275803  30.0888329  39.2652473
  80.3108368  31.4937325  38.7453804  26.6630192  14.7391710  81.3917923
  26.6314564  15.1937990  82.2335434  25.8768883  15.0328197  80.9313583
  35.2208328  30.3268852  77.9336700  36.0226860  30.4164581  77.4186554
  34.9238777  31.2261467  78.0728836  73.8091278   5.5311503  67.1398468
  74.7213135   5.3249412  66.9358292  73.8083191   5.7088189  68.0804138
   8.5262403   3.8273537  75.7196808   8.1172237   3.9036908  74.8576431
   8.9564495   4.6714497  75.8562622  86.3595428  47.8244743  56.1384468
  86.9929810  47.3474045  56.6745377  86.4675827  47.4609108  55.2595978
  64.6949921  55.3846474  40.9609947  65.0242462  54.5847321  40.5511627
  64.6293488  55.1677551  41.8909836  74.1003799  28.5561028  80.1997452
  73.2968216  29.0733013  80.2548752  74.6567535  29.0421257  79.5910873
   5.0609479  50.8691406  39.5368538   4.9762015  50.9448318  38.5864220
   5.9460111  51.1819420  39.7240677  85.8029480  12.9006586  31.0193214
  85.5482864  12.4418182  31.8198471  85.7705994  13.8280325  31.2541885
  64.1620789  33.6126099  21.8101425  65.0459976  33.2537689  21.8886051
  63.5895004  32.9067383  22.1103668   3.7793710  70.5328522  78.8046341
   3.1607220  70.1153717  79.4039841   4.3440323  71.0586090  79.3711777
  68.6413422  25.9640331  17.6784344  67.7202759  26.2229748  17.7070217
  69.1209946  26.7906704  17.6251259  79.9831848  12.5943279  14.0123968
  79.9600296  12.7173128  13.0634127  80.3037872  13.4289141  14.3543177
  58.7623177  24.8583107  69.2733536  58.7667274  24.4557190  70.1417618
  59.6523247  24.7298737  68.9452896  38.8824577  50.2592430  80.6742172
  39.6425247  50.7144279  81.0366211  38.4271240  50.9256248  80.1595917
  75.8324127  56.5770874  40.8818855  76.7524109  56.3324738  40.9818687
  75.7998734  57.0526619  40.0518227  57.0355339  62.0957336  18.1846428
  57.2677803  62.2581253  19.0989304  56.3984528  62.7785072  17.9744511
  54.6174545  39.1866570  15.3193331  55.0490227  39.9968109  15.5906887
  54.6257896  38.6368141  16.1028080  23.5155029  19.2576542  43.8322258
  23.5331287  18.9960461  44.7528152  23.1990986  18.4821415  43.3688660
  42.3066483  39.4844894  74.6861420  41.6143417  39.2826805  74.0566864
  43.1137962  39.2110291  74.2502975  60.1530190  48.8830299  21.4592819
  59.4948921  49.3559875  21.9686089  60.2947235  49.4285965  20.6856499
  60.4925232  41.7253189  20.0229073  59.7966232  41.7476273  19.3660545
  60.7539215  40.8054085  20.0637589  30.1642094  62.2176933  14.1971912
  29.3942242  62.2305450  13.6286936  30.8890667  61.9934731  13.6136341
  52.4437828  15.1741314  59.7967453  53.0748825  14.4555626  59.7567062
  52.5739594  15.6531172  58.9782944  74.9445953  41.6078949  80.7945938
  74.6087799  41.1228638  80.0408020  75.7176743  42.0633774  80.4612503
  59.3329849  51.6881294  62.6700706  58.4985580  51.9246597  63.0750580
  59.2796478  50.7402878  62.5476608  51.6000328   6.9637165  65.1198044
  50.9885712   7.6949434  65.0323181  52.4504929   7.3786130  65.2640686
  29.7952614  42.6366692   1.7306495  30.5559673  42.1201172   1.4646938
  29.1400948  41.9859123   1.9826492  69.7055740  40.2308655  85.5591049
  70.6027832  39.9236450  85.6889496  69.3734207  39.7008514  84.8345413
  75.6687088  51.8457375  11.2768574  75.0650864  51.3216705  10.7503281
  76.3887253  52.0525475  10.6810064   1.4879662  49.3333855  24.7518005
   1.8545448  49.5603943  25.6063881   0.6808241  48.8607903  24.9552956
  15.0789042  49.8505898  68.4433823  15.5345097  49.0591278  68.1566010
  15.6248941  50.1992149  69.1480713  57.1854286  27.2582188  31.5426865
  57.3676872  26.7072945  30.7814407  57.3943253  28.1458054  31.2515087
  19.9612293   3.1606851  54.3113060  19.8374252   3.8190227  53.6275673
  19.1758137   2.6156018  54.2639923  49.2855263  50.1204109  66.2657928
  48.6917267  50.0002670  65.5247116  48.7187309  50.0789337  67.0360260
  25.9128323   4.8825569  75.3890533  25.7136688   3.9969771  75.6928864
  25.2852135   5.0406337  74.6838303  60.9199753  31.3805237   2.7153201
  60.8423920  32.0754013   2.0615933  61.6835556  31.6269169   3.2373025
  74.2768707  50.0035210   9.6414146  75.1185379  49.7578583   9.2573986
  73.7624893  50.3291054   8.9027395  66.1009064  59.6945419  14.4312582
  66.4286194  59.9945984  15.2790794  66.7084122  59.0021057  14.1710815
  77.3802795  29.6729641  66.0859528  76.7221603  30.3545666  66.2221146
  77.0707932  28.9333363  66.6088333  23.8546448  45.0251045  18.9387531
  23.5136814  44.4436951  19.6184139  24.2903328  44.4397469  18.3192673
  58.3577690  32.0644798  11.8585768  58.7886848  31.6029987  12.5780058
  57.4402351  31.7985249  11.9188814  56.6667137  62.5793381  54.6010284
  56.4774246  62.0038490  55.3421173  56.3618011  63.4416199  54.8833923
  78.6755981  30.1139183  58.5676842  79.5296097  29.7361717  58.7779198
  78.5035324  29.8318443  57.6693192   8.3341799   8.2542439  19.8565254
   9.2156992   7.9276528  20.0367889   7.7596660   7.6928720  20.3771286
  56.7528076  13.4087591  41.7663155  56.7458038  14.3590298  41.6515617
  55.9311943  13.2159891  42.2180023  33.0644455  25.9188004  86.5560608
  32.8135071  26.6312504  85.9681168  32.4245071  25.9581432  87.2667999
  14.1896639  58.5514069  84.6507111  15.0650339  58.8002853  84.3540268
  13.8903236  57.9122620  84.0040894  30.8340645  46.6235352  29.0297775
  30.4757118  47.3314590  28.4943771  30.5859871  46.8516769  29.9256802
  79.9308167  71.5133438  23.3386459  80.3933868  71.1666489  24.1015778
  80.6088486  71.6067047  22.6694756  73.1704483  34.4673920  59.6422119
  73.1639709  34.6278801  58.6985855  73.2933426  35.3331451  60.0315704
  62.8069572  24.9420719  53.2265472  63.4375191  24.2219200  53.2253914
  62.0076256  24.5611115  52.8629990  62.9064865  22.7116413  64.3483810
  63.6699486  22.9144802  63.8078117  62.7253647  21.7887402  64.1703873
  21.7664776  44.7378006  41.4978638  20.9570389  44.6150475  41.0019073
  22.2757587  45.3575211  40.9755554  14.2647381   0.2419351   9.5531235
  14.3089800   0.3149131  10.5065117  13.3507118   0.4306961   9.3406210
   8.2705059  50.1162987  80.6413651   7.6010776  50.5073242  80.0799408
   7.8327575  49.9890251  81.4830399  32.5340958  48.9312019   3.7927840
  32.6626968  49.1519547   4.7152600  32.3100739  48.0006027   3.7981849
  30.9414749  53.1285095  15.6980162  30.1259594  52.9033775  16.1457710
  30.6946964  53.2082520  14.7766190  21.5538692  46.4563599  16.5433655
  21.7500820  46.2608528  17.4596138  20.8074245  45.8951950  16.3332577
  28.7451782  55.4146729  36.0507774  28.0726948  54.8804970  35.6281052
  28.4203033  56.3119507  35.9760857  52.3066406  10.8011007  29.4499550
  52.3759995  10.2457142  28.6734447  52.0689163  10.1987028  30.1548214
  85.9228745  53.9018135   0.5271816  86.5889206  53.8355141  -0.1570903
  85.8873825  54.8350029   0.7372559   4.8065271  33.4115791  18.5022545
   4.2546024  32.6333389  18.5794106   4.1881294  34.1414604  18.4692402
  71.7218018   1.7198584  63.1134682  71.5794830   2.5311060  62.6257629
  71.8283157   2.0020688  64.0218964  84.9730301  60.9646187  13.5874186
  85.3002014  61.2451744  14.4420977  85.6181717  61.2967911  12.9631729
  44.2850838   6.2270241  83.1375732  44.5105057   7.0761657  82.7576065
  44.9474182   6.0837040  83.8135910   8.7614517  38.7391701  63.3177147
   8.2439051  39.5363808  63.4309845   8.6027212  38.4774055  62.4107857
  23.8873978  17.7201500   7.4774270  23.0047741  17.3545723   7.5370965
  24.4181137  17.1580849   8.0419226  55.1047859  55.2162857   3.1964159
  55.8721085  55.2026939   3.7684853  55.3451157  54.6540718   2.4599454
  33.3643799  36.5079613  60.5672913  34.1072540  35.9872055  60.2620277
  32.5988007  36.0823250  60.1813469  54.3567696  15.2503567  88.3975143
  54.0611038  14.4244852  88.7805939  53.5708389  15.6247225  87.9995270
  65.9445648  49.1845551  83.3534012  66.7797928  48.7185669  83.3918533
  66.0810928  49.8670349  82.6962814  31.5456963   1.4630419  68.6357651
  31.3226166   1.5012370  67.7057114  32.4820061   1.6596565  68.6657639
  13.7629232  63.7033424  63.5384560  13.4124384  63.3578262  64.3594360
  12.9883003  63.9106102  63.0157394  31.2467937  59.5225296  47.2666359
  31.5420532  58.8339539  46.6708870  30.5826416  59.0997009  47.8110161
  69.8135529  15.5375547  29.4494133  70.4840469  16.1315975  29.1120968
  69.4270477  15.1437464  28.6672649  52.6258926  18.7495174   6.6394849
  53.1446800  18.3751392   5.9274902  53.2748756  19.0850410   7.2579317
  49.5668488  35.4614944  44.9313545  48.7526779  35.2939644  45.4060020
  49.8097534  34.6112366  44.5648956  69.4492722  66.6516571  64.0636902
  68.6068192  67.1024323  64.1212158  69.2342148  65.7852325  63.7182922
   7.3055978  57.3797150  32.5991745   7.7577887  58.1225853  32.1992989
   8.0088310  56.7941780  32.8799553  63.9018707  23.5868473  43.9333229
  64.5802917  23.7459755  43.2770805  63.9348221  24.3553009  44.5030823
  40.5875320  68.8465652  22.2079678  40.3611679  67.9303131  22.0483685
  41.4307709  68.9646301  21.7706623  47.2728539  35.2334137  22.9115887
  47.4309387  36.0970879  22.5303917  46.3361588  35.2263412  23.1085300
  21.9056702  70.0596237   0.9498865  21.9344559  71.0040665   0.7968086
  22.3295021  69.6792603   0.1805236  37.9008102  27.3896275  79.3178635
  38.5016441  27.8834305  78.7598419  37.0819702  27.3623447  78.8228989
  60.9184303  67.2225266  33.6258240  61.0908203  66.6369095  34.3630867
  61.7759247  67.5838394  33.4013519  46.0321732  47.8559380  54.0817375
  45.7712364  48.6051636  54.6172829  46.9865112  47.8322258  54.1518135
  77.6292267  68.3997421  45.8609390  78.3379669  68.4250870  45.2180748
  77.1774445  69.2366180  45.7524910  54.6827965  44.3401108  10.6733665
  53.7392845  44.1879272  10.6198997  54.7635002  45.2665024  10.9003334
  51.1446342  24.9596863   4.3515453  51.2581711  25.0266113   3.4034622
  50.8702011  25.8358078   4.6223407  60.3277702  70.3764877  59.1467361
  60.0819817  69.7525024  59.8297195  59.6638832  71.0639648  59.2002258
  14.8259449  37.1729393  79.5859070  13.9925690  37.5609474  79.3191376
  15.4884329  37.6896706  79.1272888  78.0826874  18.6033440   3.0172188
  78.6423645  19.1819191   3.5351396  77.2937927  19.1192513   2.8507369
  38.5102081  40.4277573  34.5225067  38.0040588  40.3813248  33.7114029
  39.4181938  40.5182686  34.2333679  84.3215256  63.6401138  20.1269875
  84.4042358  62.7081680  20.3291378  83.4019012  63.7522888  19.8862801
  47.1534920  69.0828247  68.0246124  46.2516479  68.7663422  68.0770035
  47.0690880  70.0307465  67.9218674  28.5968437  66.4288483  24.0676441
  28.1295547  67.0699158  24.6032791  29.0122375  65.8442841  24.7016487
  69.0149307  61.1502075  67.6255646  69.3949356  61.4896164  66.8152390
  69.6247864  61.4258232  68.3099213  79.2303238   1.9102036  87.8966904
  80.0589600   2.3881109  87.8622131  79.2528305   1.3362132  87.1310196
  75.4278030  39.8827667  29.0992165  74.8437119  39.1593971  28.8716049
  75.7012100  40.2442284  28.2561092  47.6985741  40.6725845  87.9344635
  48.5360527  40.6468735  87.4716492  47.5021095  39.7554016  88.1252747
  52.0927734   9.2936306  24.5409870  51.8105698   9.8791990  23.8383465
  51.2957726   8.8331375  24.8036060  53.5343513  67.3662796  40.5618019
  52.7067871  66.8862686  40.5926933  53.3584099  68.1101456  39.9856644
  69.9524536  62.5053635  52.1368752  69.4955063  62.0112572  51.4562225
  69.7961731  63.4227180  51.9126854  53.7501450  12.5355330  40.0677414
  54.2221336  11.7117224  39.9461098  54.4106789  13.2133818  39.9247513
  71.8224792  54.4563751  18.9475574  71.7378693  53.9695053  18.1277809
  72.1239243  53.8062973  19.5821915  13.4601393  59.0630531  19.2974472
  12.8933640  58.3234062  19.0785389  13.4010515  59.1363678  20.2500038
   0.4053557  10.3337011  55.3294868   0.3820368  10.6408176  56.2357826
   0.0250627  11.0516949  54.8234291  52.8714066  41.7308197  11.6548557
  53.7627563  41.6801643  12.0000544  52.3475952  42.0492706  12.3900032
  82.1194839  39.1772728  82.7963943  81.2911606  38.7863503  83.0744171
  82.6950684  38.4296074  82.6353836  39.1304741  28.2081909  87.7104492
  39.0616417  28.6858406  88.5371017  38.3927498  28.5244560  87.1889420
  38.3064880  38.7235031  66.7096786  37.3893280  38.7149811  66.9834900
  38.2723351  38.8541031  65.7620468  35.6750717  18.2754555  10.8824959
  35.2183189  18.3492908  10.0445480  36.6029053  18.2525711  10.6483288
   4.1000948  18.8484364  58.3263588   4.2350836  18.7471237  57.3841591
   4.7624140  19.4846516  58.5961647  64.7186584  11.9341583  16.9140491
  64.8625870  12.0854397  15.9799023  64.7783585  10.9841518  17.0148201
  29.0227127  30.3185921  81.4988480  29.1889420  30.7634201  82.3299484
  28.0995388  30.0692081  81.5411224  16.6481705  51.6150627  10.6516924
  16.9820766  52.2993469  10.0716095  17.4325008  51.1741638  10.9782887
  32.2430496  10.9120512  69.6359711  32.2868042  11.2388372  68.7373428
  32.0299683   9.9835072  69.5430527   7.2291975  62.1130638  78.9587936
   7.4221926  62.1125641  79.8963318   7.3859611  63.0160027  78.6824646
  73.1090393  30.2571487   9.8787966  72.5678711  30.6828098   9.2138300
  72.5275192  30.1565266  10.6324148   3.4957974  70.9990311  85.7611542
   3.1353819  71.2738647  86.6042404   4.4322476  70.8883820  85.9256210
  56.3161354   2.6987827  59.8909340  56.0659561   2.9024806  60.7921295
  55.5593033   2.2363327  59.5309639  48.4488144  44.8604622  24.2526722
  48.2136993  43.9449234  24.1018543  47.6238327  45.2835236  24.4906921
   3.2972558  45.9322739  77.1503067   3.9987748  46.2768898  76.5977249
   2.5070112  46.0214844  76.6175842  69.5136642  70.2643738  74.4046173
  70.0900803  69.9436722  73.7109833  69.1298752  71.0646591  74.0461884
  72.6432419  51.8482285  80.0489731  73.3249435  52.4526749  79.7554474
  71.8949509  52.0380554  79.4830551  60.0382042  30.4594402  28.0175209
  60.0638885  30.7838516  27.1173382  60.2639122  29.5321064  27.9444466
  32.8467331  41.5341606  14.9742002  32.0896530  42.0652046  14.7271175
  32.6115723  40.6445351  14.7105770  49.8965073  41.5668335  46.0161400
  49.2421265  40.9232674  45.7444000  49.3851166  42.2887688  46.3815384
  36.4310760  67.8709488   7.3009410  36.7932701  68.0145187   6.4266219
  36.1426239  66.9582748   7.2937932  30.6944790  21.3652096  75.5605850
  31.3222542  20.7921448  75.1204376  31.2081413  21.8103085  76.2345810
  23.7059536  53.8669395  71.5191193  22.8830929  53.4236755  71.7256317
  23.5549507  54.7793961  71.7658005  65.7402954   6.3953967  39.8661499
  66.6949539   6.3313112  39.8935165  65.5652618   7.3334870  39.7914429
   5.7404633  42.7746735  78.7674561   4.9565659  42.6531067  78.2317734
   6.4561820  42.8339386  78.1346283  59.8828850  26.3421936  62.0080910
  60.5127182  27.0621452  61.9732971  60.2870636  25.6982746  62.5896721
   0.4959213  54.2849350  82.7930298   0.5309704  53.3526306  82.5789871
  -0.2947471  54.3791580  83.3242569  53.6712837  17.2552299  80.2917404
  52.8045464  17.5606594  80.0239563  54.2803078  17.8542595  79.8599014
  83.2828293  17.3539181  45.2180367  83.5714874  16.5903759  44.7181244
  83.9259186  18.0322742  45.0118752  60.9603233  64.7462463  32.2196770
  60.5158539  65.5721054  32.4110680  60.2656174  64.0883331  32.2473984
  17.0833397  63.0485992  47.8665619  16.1396618  63.1110458  48.0142288
  17.4698906  63.1671257  48.7341805  82.4924240  21.3201923  31.3351936
  81.8427429  21.6977406  30.7422333  83.0572357  20.7948017  30.7684650
   4.3721414  54.2726936  84.1088028   5.2111254  54.7325172  84.0788116
   3.8541412  54.7609787  84.7487106  48.3705635  58.6353073  30.8728981
  48.2917175  59.1762276  31.6586571  47.4828148  58.5994415  30.5167408
  62.9785194  11.7370062   6.0434184  62.2105675  12.1464663   6.4419484
  63.6411667  11.7476768   6.7340827  60.6387558  32.1453094  30.6401596
  59.8442230  32.5923233  30.9319267  60.5190887  32.0354385  29.6968479
  60.4070053  64.7018204  25.8191090  60.4961624  63.7491875  25.7912579
  59.8500252  64.8681107  26.5796051  50.3754997  66.3950500  18.4287605
  49.8156319  65.6235886  18.3414364  50.7970619  66.2897491  19.2816544
   1.8392144   0.5272981  19.2686615   1.4369532  -0.1802815  18.7649269
   1.7294548   1.3041149  18.7202625  38.3602257  64.2545700   9.2129755
  38.8573303  65.0696487   9.2819481  38.9044876  63.6038437   9.6563339
  47.1725769  13.3099146  40.9177094  47.2306900  13.8712597  41.6908493
  47.8780479  13.6145515  40.3469696  68.5121536  44.8893776  86.0766525
  68.1706467  44.3088455  85.3965149  69.1729431  44.3652611  86.5292969
  21.8233833  33.3939896  56.9914932  22.5525455  33.8437881  57.4183846
  22.1509514  32.5098381  56.8265343  27.3001575  68.5818787  24.6510487
  27.6744118  69.2830124  25.1845074  26.3634720  68.6060410  24.8466740
  53.6197548  24.6679668  84.4449387  53.3573608  24.4335079  85.3351135
  53.8299370  23.8318157  84.0291214  59.5237541   3.0357850  68.4354324
  58.7678261   3.5375578  68.1304245  60.2813873   3.5410259  68.1405563
  74.5073929   9.4000864  69.0369568  74.9697418  10.1571331  68.6773148
  74.9367599   9.2336674  69.8761139  14.2629204   9.6399183  67.5168991
  13.8403225   9.3649893  66.7032318  13.6752882   9.3332787  68.2074738
  84.6153564  17.2688828   7.9187627  84.6775970  18.0265522   7.3371325
  83.7399139  17.3314495   8.3007517  82.4856186  43.3266068  78.6767349
  82.7705994  42.5312767  79.1267014  81.8114090  43.6959419  79.2470551
  77.4622650  66.2012558  43.7193604  78.3174057  65.9074173  44.0334015
  76.9810944  66.4308090  44.5143547  35.2569923  45.4361038  56.8859100
  35.0829468  45.4798431  55.9456825  35.9995956  46.0250702  57.0196800
  13.5823889  50.7827301  23.2358303  14.0983944  50.1264992  23.7041626
  14.2277594  51.2833786  22.7367516   0.9563606  49.5188637  33.7321892
   0.4454419  50.3131599  33.5763435   1.8611881  49.7780800  33.5580406
  23.5157261  16.2695980  73.2110596  24.3750839  15.8501902  73.1682434
  23.0382500  15.9144278  72.4613266  52.5185890  13.1567898  28.1213551
  52.3831329  12.4206409  28.7179871  51.6554451  13.5629492  28.0422726
  50.9816856   8.8518305  15.4212694  50.4477844   8.0815372  15.2267828
  50.9446869   8.9345112  16.3741741  40.4051361  58.4087715  28.1865463
  41.2547035  58.1925850  28.5709000  40.2177315  57.6802979  27.5945644
  46.0308609   4.9952092  21.8650055  46.2613144   5.3780508  22.7115021
  45.5876961   4.1758938  22.0853691  43.8240776   4.7876487  38.1737671
  43.5908203   5.4062161  38.8660049  42.9836540   4.4775681  37.8364677
  18.9231243   4.8577895  56.5883026  19.0290470   5.0998473  55.6682930
  18.7425537   3.9179652  56.5694351  86.5128174  56.3347588  11.0133381
  86.1211548  56.1144600  10.1681757  87.3895493  56.6513634  10.7957802
  72.7418442  33.7443466  67.7272186  72.7170639  33.7042313  68.6832581
  72.9955215  32.8618240  67.4569626  69.9306946  64.0968246  58.1794968
  70.8834229  64.1052246  58.0875015  69.6171417  63.6648369  57.3849487
   4.2662063  40.4124222   4.7054253   3.3332729  40.2306671   4.5921493
   4.3935580  40.4289398   5.6539717  22.9610119  40.1744804  62.7219391
  23.1118279  39.9776421  63.6464615  23.8088398  40.4818573  62.4011002
  44.6579704  54.4953728  36.4683533  43.7975693  54.1154633  36.6461487
  45.1518745  53.7870140  36.0554123  50.4073410  15.8458920  75.8493729
  51.1443825  15.9261112  76.4548187  50.5776482  16.5046291  75.1761093
  14.1660662  22.5086136  72.7517700  13.4374170  21.9040318  72.8924179
  14.5498743  22.2316895  71.9197617  11.3094454  34.5691986  77.1547241
  11.9332743  35.0584488  76.6183472  11.4187574  33.6590729  76.8791199
  50.5532074  20.1975708  14.9411755  50.0538445  20.3671036  14.1423454
  50.1527481  19.4110165  15.3115768  76.7311859  27.7904167  59.7584534
  76.1923904  27.6837502  58.9745178  76.6327667  28.7132072  59.9929810
  36.2028160  28.9318848  15.5048065  36.4246407  28.6082172  14.6317282
  36.4393272  29.8591652  15.4837246  48.1098175  55.8453751  75.3261261
  48.5515442  56.5153961  74.8044128  48.7847595  55.1871414  75.4916763
  80.7879410  24.6074047  41.4175682  80.7917709  25.4447956  40.9538956
  81.7130508  24.3774300  41.5043106  48.0676079  57.9576111  68.0767441
  48.1712990  58.8819733  67.8508301  47.1460609  57.8727150  68.3212357
  22.5413265  15.6758041   8.5870018  22.6281796  14.8920593   8.0443859
  23.4237862  15.8338909   8.9224234  36.6005821  38.1461525  82.1374893
  36.2674828  38.9946632  81.8454132  37.3415527  37.9675217  81.5584488
  62.1020317  45.1217613  42.0373802  62.5123405  44.6888046  41.2887650
  61.4001198  44.5274620  42.3026276  68.0511093  69.1212234  87.3710175
  67.3701477  69.7096786  87.6969833  67.5899658  68.3049622  87.1779022
  73.2630539  58.7070084  24.3534622  72.6649475  58.0685577  23.9650192
  73.8039551  59.0044708  23.6219044  12.0853643  28.3897934  75.1858902
  12.8131628  28.0792236  74.6472931  11.7740593  29.1760883  74.7374954
  46.9589348  50.2179184   1.4587117  46.4294090  49.4206543   1.4444257
  46.5161591  50.7882996   2.0870814  78.3026810  34.8970375   1.3512722
  78.6900940  34.1086693   1.7315588  78.6647034  35.6157494   1.8695613
  76.8002243  10.6879911  49.0475731  76.3797455  10.2625990  49.7948799
  77.7142487  10.4078283  49.0955925  54.2415390  11.1653528  71.8866119
  54.1370926  10.9703493  72.8179016  54.1502953  12.1164722  71.8293610
  51.6396370  15.0512810  81.6051331  52.1902275  14.2964020  81.8130722
  51.8768082  15.7082634  82.2596207  77.5759659  45.0554085   3.4963381
  77.3842163  44.3529739   2.8750110  77.7879944  45.8099518   2.9468465
  85.4337921  47.7663727  30.9479465  84.6939240  48.3719635  30.9023647
  86.1624603  48.2486229  30.5571556  55.4000511  12.3507528  63.1593742
  56.3367882  12.1692438  63.2356300  55.3030624  13.2476797  63.4792900
  63.3500443  20.6544285  87.3588104  64.3043365  20.7254906  87.3362808
  63.1770859  19.7185326  87.2567596  56.6967087  57.7052498  61.5098076
  55.7901878  57.9596481  61.3373795  56.9263306  57.1284676  60.7812271
  82.6608047  11.8309422  43.3183289  82.4733200  11.1167459  42.7092285
  82.0704498  12.5352468  43.0506096  61.0434189  35.4838142  84.0652161
  60.5388908  34.6986008  84.2776413  61.4785004  35.7180176  84.8850250
   1.5788002  59.2175522   3.4991961   1.6313004  59.4815102   2.5806084
   2.0114472  59.9252815   3.9768674  74.0266495  11.1845484  25.7462997
  73.2212677  11.4665251  26.1799850  73.8239441  10.3122034  25.4084263
  77.8177948  68.7938690  30.6107178  78.3420486  68.8549728  31.4092484
  78.3560715  68.2789154  30.0096264  70.1423798  58.3234024  30.5706654
  69.4996872  58.5508919  31.2425480  70.9138947  58.0423355  31.0626030
  79.8827744  54.4514923   8.2292051  79.5827637  54.0811005   9.0592852
  80.4108887  55.2088051   8.4818106  84.0671921   6.8511119  47.7628784
  84.1951904   6.2220488  47.0528603  84.1504593   6.3306575  48.5618935
   2.1104200   2.0334222  34.3775597   1.9153024   2.1394558  35.3086433
   1.2743446   2.1893606  33.9383621  14.0601234  51.5779381  20.0785999
  14.8047447  52.0308037  20.4744282  14.1665468  50.6645164  20.3442497
   4.0700259  62.4512100  71.7104950   4.1028171  61.8404541  72.4467926
   4.3531651  61.9333267  70.9569321  72.8895264   3.5307708  16.7327862
  72.9396439   3.3602257  17.6733360  72.0877457   4.0422955  16.6245079
   8.0856314  41.4682503  73.8851852   8.3404570  40.8171806  73.2314301
   7.5345941  42.0865631  73.4053116  84.3389359  71.2131271  40.1479645
  83.7253494  70.5083084  40.3552551  83.7816696  71.9491653  39.8951073
  37.3884277  45.9617577  15.4790134  37.2872124  46.1407280  14.5441561
  38.3292160  45.8308067  15.5973234  74.4134216  28.6734734  37.7370262
  75.0158386  27.9317646  37.6805496  74.8009262  29.2469559  38.3982277
  76.1962051  37.4115181  25.4435368  75.6799927  37.9199028  24.8179932
  76.5512314  36.6871185  24.9283352  28.2860489  71.4032059  64.7793884
  27.6095695  71.9445801  64.3725510  28.7360764  70.9888153  64.0431900
  52.9444466  38.0431633  53.5843735  52.6017494  37.2509804  53.1705627
  52.8794594  37.8700867  54.5235481   0.4613056  60.7656059  33.9350052
   1.3506420  61.1188202  33.9114799   0.5677041  59.8353844  33.7360077
  24.3276176  45.7669067  76.3904190  24.3446007  45.6993294  77.3450851
  25.2260914  45.9934731  76.1503296  28.5365028  43.8006439  21.5157375
  27.5917339  43.7649994  21.6653156  28.8287792  42.8943787  21.6131592
  29.1315765   0.2755246  13.8394527  29.3932323   1.1089972  13.4481840
  29.0831795  -0.3311695  13.1006622  51.0308113  59.1158524   3.9679186
  51.7049637  58.5018616   3.6767700  50.2629814  58.8964386   3.4401577
  44.3937569  42.1531982  36.0458374  43.9433479  41.8070641  36.8162651
  45.2350311  41.6967163  36.0350037  63.4475975  29.0445194  56.3166733
  63.4283447  29.7300892  56.9843979  62.5319557  28.9338036  56.0606003
  58.3842697  16.3907509  72.1752777  57.9770622  15.5277653  72.2505722
  59.2838516  16.2082520  71.9038467   2.4806385  54.3847847  19.9959183
   2.0860169  55.1340714  19.5497398   2.8347764  54.7485390  20.8073997
  45.2654037  42.5003090  73.7729263  45.8604240  41.9168663  74.2438583
  45.3395653  43.3379593  74.2301788  65.6684723  29.3311806  46.2761269
  66.0874786  29.3524132  45.4157677  64.7908936  29.6817570  46.1238518
  40.2772408  42.7184792  60.4671097  40.8815155  43.3824615  60.7990913
  40.6622314  41.8859634  60.7408485  63.5332260  67.8459091  31.0799198
  63.8187370  66.9352951  31.1540737  63.3721504  68.1206741  31.9825764
  24.5094547  17.3866539  75.5135803  25.2259846  17.8916454  75.1291351
  23.9580421  17.1478348  74.7685013  12.5979939  40.4672241  80.7367859
  12.9179106  39.6182327  80.4316635  13.1912766  41.1040154  80.3383560
  50.1497917  60.0194054  78.6729965  50.8871117  60.5835609  78.9060669
  49.8970528  60.3059196  77.7953491  62.0835342  66.4679642  70.8610077
  62.5162621  67.2845306  70.6116104  61.2360306  66.5008087  70.4172821
  53.5703087  16.8392811  77.3177414  54.2459793  16.4349442  76.7734909
  53.9179802  17.7063427  77.5264511  65.4196014  12.4673281  67.1849213
  64.5122223  12.7481546  67.0664673  65.9363708  13.1233521  66.7171402
  60.5777321   5.6981897  49.9506149  60.1963387   6.0632930  50.7490349
  60.8421097   6.4633503  49.4398651  76.1501617  71.1695709   2.0339217
  75.2995682  71.6011810   2.1141753  76.0741272  70.3870392   2.5799069
  10.4744377  14.5116301  16.2113228  10.0262804  15.3574305  16.2084675
  11.3381844  14.6994781  16.5785923  59.3124313  20.4654350  34.1035919
  58.7099762  20.2732964  34.8221741  60.1821442  20.3114548  34.4725342
   8.7257004  38.8840866  10.0808210   7.9796267  38.2859688  10.1239500
   8.4202681  39.6090546   9.5355120   2.9252038  40.5383453  13.3147840
   3.6974108  40.9653931  12.9438953   3.2173212  39.6497459  13.5179710
  60.2643661  54.5101585  75.1525116  61.1786346  54.7166710  75.3466644
  59.8440819  54.4538918  76.0106659  67.2673874  63.7548103  72.8418961
  67.6695938  64.3810730  72.2400284  66.5716324  63.3430672  72.3294373
  16.7889481  23.7021599  64.0647125  17.3354740  24.1226101  63.4008141
  17.1350002  24.0224152  64.8977280  76.4285507  38.3832512   3.6807575
  75.5462265  38.0125961   3.6994219  76.4926453  38.8899765   4.4902959
  74.4632721  43.3265572  49.1628685  74.2229004  43.4448204  50.0818176
  73.6330719  43.1552467  48.7182808  49.2308884   0.6497461  11.7620478
  48.3735046   0.4718558  12.1486712  49.8419304   0.5894160  12.4963655
  71.1800308  55.1788521   7.8986220  71.7730179  55.8101044   7.4910474
  70.3401337  55.6354942   7.9463882  47.3589363  37.9358139  87.9657135
  47.5513191  37.2505493  88.6057434  47.1875877  37.4620857  87.1518021
  75.7206573  15.2504091   8.3234587  75.1168289  14.5432148   8.0965166
  75.6574020  15.3229885   9.2758045   3.7735651  32.6445351  39.1479836
   4.6287961  32.4879570  39.5483513   3.9447165  32.6355629  38.2062531
  73.6761932  59.8670158  74.2426453  73.2992249  60.3965645  73.5400009
  74.5732727  59.6938820  73.9571533  22.7694550  59.5269241  25.0632076
  23.7255650  59.5244026  25.0176029  22.5621510  60.2045288  25.7067204
  16.2633266  64.8741455  63.4484253  16.6066761  64.1019135  62.9989815
  15.3842697  64.6178436  63.7273521  51.8258514  49.7507706  58.8588028
  51.6742439  48.8214607  59.0309372  51.9244194  49.8053207  57.9082565
  53.0562019  14.9226027  73.6379318  53.0667381  14.3525801  72.8690414
  53.8526611  15.4474678  73.5578995  69.1056900  49.1755600  42.3693924
  69.9513702  49.3620720  41.9616394  69.2857437  49.1851158  43.3094559
  70.3503036  52.4468346  33.4757538  70.0386581  52.4428177  32.5707169
  69.8008270  51.8019104  33.9211426   4.2439766  61.8656883  37.0060883
   3.6927588  61.4645081  37.6779823   4.9494352  61.2339783  36.8664360
  11.9745054  47.8219910  29.9357224  11.2131691  48.1325302  29.4456558
  12.6104460  48.5340729  29.8668041  29.4807129  27.9241791  54.3642082
  30.3126774  28.2364597  54.7199478  28.9868774  28.7218857  54.1744156
  54.2950134   7.5833821  65.4101486  54.8412933   7.7268081  66.1829605
  54.2285652   6.6312852  65.3371582  72.8491898  27.3070431  72.9961090
  73.1457825  28.1514568  73.3355637  73.5474091  27.0285130  72.4035339
   9.1130075  17.0996819   7.4662199   9.5733576  17.6216660   6.8090725
   8.6022587  16.4701481   6.9572473  54.7369652  30.7882061  40.2942390
  55.5745621  30.8106651  39.8314667  54.0818253  30.7143059  39.6002922
  73.4062576  25.2150822  35.3843918  72.9796371  25.5421028  34.5923805
  72.7331009  24.6930180  35.8209000  70.0306625  45.6874161  31.8840275
  70.9357452  45.5527763  31.6030846  69.5258942  45.0493965  31.3796787
  16.2314034  46.4879913  72.2167206  16.0974503  47.1825905  72.8615570
  16.6347103  45.7754211  72.7125244  81.6669693  60.6786919  10.9988527
  81.8902283  61.1627197  11.7939034  80.8525848  61.0796242  10.6950979
  16.3147564  28.1635647  83.6997528  15.5515280  28.1758461  83.1222000
  16.4259415  29.0753136  83.9691620   3.9037726  41.5458488  74.2975845
   3.7448080  41.5447350  73.3536758   4.3596249  40.7209167  74.4646683
  30.6935291  44.9396286  79.9113159  30.4164104  44.5374756  80.7345505
  31.0253582  44.2099953  79.3880997  80.5188599   3.3721683  38.5799828
  79.6141891   3.4173336  38.8894272  80.5268555   3.9048381  37.7847290
  23.2284470   8.3507280  42.2131691  23.1541157   9.2696896  41.9558449
  22.3528023   7.9908538  42.0718536  16.4375687  57.9306984  36.4158249
  16.8697853  58.1197624  35.5829544  15.5242987  57.7675629  36.1801186
   6.3002920  51.1782188  83.0119476   5.9680018  50.4498711  82.4872360
   6.5107498  51.8580971  82.3718567  46.3714676  23.1099415  67.7049255
  45.7184486  22.4272060  67.5510712  45.9087563  23.7727890  68.2175369
  77.1040955  53.4340019  14.2452030  77.5289536  54.0921593  14.7952499
  76.9692307  53.8741188  13.4059525  60.0793915  49.7679825   6.9755311
  59.4397736  49.8804321   7.6787210  60.9053650  49.5971870   7.4281144
  68.2338333  25.1916065  33.0933418  67.9276657  26.0907555  33.2117577
  67.5922318  24.6566181  33.5606422  75.9853745  25.0128059  36.3603859
  75.1034164  25.1266041  36.0062065  76.2475510  25.8908749  36.6369514
  28.8565273  69.3190536  20.4619732  28.2217026  69.7812500  19.9146175
  28.3351307  68.9528275  21.1762962  32.8811493  39.6356850  60.9985237
  33.4646568  40.2593002  60.5662575  33.1228256  38.7861671  60.6295471
  23.4378147  60.6204109  19.8576832  24.3335037  60.3124046  19.9959068
  23.5174255  61.2924728  19.1807575  78.6958160  14.4950781  72.4943619
  79.6048508  14.3838272  72.7727737  78.1973724  14.5265331  73.3109360
   7.4114785  10.8128395  18.7913532   7.6303287   9.8812265  18.7704964
   6.4549241  10.8348341  18.7639351  74.1628342  71.3286819  79.4138031
  73.6057434  70.7482071  79.9323959  74.7533112  71.7277985  80.0527649
  45.3372192  43.9731598  40.5603447  45.5208778  43.1581078  41.0274544
  44.5990486  43.7607689  39.9891777   5.8874826  42.0342560  81.3601913
   5.0129728  42.2711182  81.6689911   5.8155980  42.0452766  80.4057541
  32.7273254  56.0922775  73.0723190  32.8031349  56.5068817  73.9317245
  33.1714096  56.6948242  72.4756927  72.1248779  63.1174355  78.7102280
  72.0740585  64.0119476  78.3733368  72.0058746  62.5637436  77.9385452
  15.2579126  59.6132889   9.9763069  15.0987091  59.4506073   9.0465651
  16.1202965  59.2323532  10.1418772  12.0721521  46.0175629  50.5673752
  11.2087345  45.6067886  50.5225945  11.9264355  46.8289337  51.0538712
  62.1825333  69.0315628  70.1616974  61.6343269  69.5173645  69.5455017
  62.3138962  69.6352463  70.8928223  76.1649094  63.8441658  15.7295408
  76.3480301  62.9070549  15.7967348  75.7689438  64.0717545  16.5707607
  59.2436447  52.6904373  55.6968689  59.4540672  53.3778992  55.0649261
  58.6815109  52.0848312  55.2136688  35.4432182  38.1739273   0.3781297
  36.0134430  37.5903778   0.8786719  35.6213799  39.0450096   0.7326804
  76.4940643  20.4663391  36.1070633  76.3585052  19.5874672  35.7528877
  77.3769836  20.7048550  35.8245850   3.1072600  65.0740891  23.5447807
   2.5264645  65.0979080  24.3052692   2.8208656  65.8083725  23.0016003
  66.9987183   8.4543247   1.4648058  66.7034912   7.9452028   0.7099081
  66.2442017   8.9947443   1.6991013   3.6182418  50.6363945  33.4966621
   3.5490994  51.4959297  33.0811501   3.8484111  50.0426903  32.7819786
  42.0779953  14.7386580  81.5088272  41.9386482  13.8874531  81.9238815
  42.3093834  15.3223877  82.2312927  74.7031097  63.3165436  86.4903183
  73.7801132  63.1130257  86.6416168  75.0730667  62.5056725  86.1412430
  23.3387413  13.2588940   3.3891056  24.1636505  13.5846424   3.7491670
  22.6629925  13.7514505   3.8549192  80.0761871  57.0552521  51.3018723
  80.4777069  56.4525604  51.9277878  79.4879379  56.5058060  50.7838898
  42.7716751  71.5349808  88.8588181  43.0185966  71.8033066  89.7438354
  43.5950775  71.2658081  88.4516525  63.1695290  61.1551208   1.9073079
  63.8094482  60.9000893   2.5719082  63.3903580  60.6205750   1.1445961
  82.5837936   9.3539476  34.3125343  82.8172607   9.3883724  33.3848801
  82.7338028  10.2442570  34.6304626  73.5127945   0.2214453   2.1437521
  72.6076050   0.2630011   1.8353192  73.4862442  -0.3858384   2.8831663
  59.0703812  49.3584824  31.8985825  58.9624901  48.4109344  31.9806900
  58.2326431  49.7208061  32.1869431   5.5376267  -0.2243532  81.9099197
   5.4727144   0.3630276  82.6629181   5.6568952   0.3591522  81.1605682
  27.7822247   0.4939837  10.4490118  27.7796860   0.5729712   9.4950800
  27.3827000   1.3071854  10.7577419  18.6800194  53.6153908  23.1771393
  19.4968700  53.2360649  22.8529530  18.5771484  54.4253044  22.6774521
  11.0406094  40.2898293  50.9037628  10.1053791  40.3257561  50.7030563
  11.1116667  40.6640511  51.7819099  20.7074623  57.1098328  41.9493713
  21.2817612  56.3865318  41.6978722  20.7223263  57.1058121  42.9064484
  13.4678230   2.3182750  64.1255722  12.7956800   2.7730589  64.6331482
  14.1599464   2.9688561  64.0075073  57.0634460   7.4328508  11.6675329
  56.7779655   7.3456893  10.7580633  56.2621880   7.3299804  12.1809864
   5.6052899  52.8394661  11.5670261   6.1847057  53.0967026  10.8498535
   5.0626941  53.6119537  11.7254057  44.5894928  61.5356941  36.3702126
  45.0557518  60.7462502  36.6451912  44.7272797  61.5778694  35.4239235
  20.5570202  47.9245720  33.3205795  21.4152164  47.5332870  33.1573982
  20.7458935  48.8414574  33.5202751  55.8069725  10.5363913  54.3403587
  56.1372948  10.0790949  55.1136627  56.4399376  11.2381964  54.1885262
  40.4497643  36.6064720  25.9549522  39.5224762  36.5348549  25.7286015
  40.4760971  37.2610893  26.6528168  43.6589546  29.5837269  21.2309704
  43.4037743  29.7965488  20.3332939  43.4513245  30.3722458  21.7323284
   6.2366662   3.7233942  16.3934021   7.1283565   3.8056650  16.0552406
   6.2374001   2.8941817  16.8715630  72.6472397  19.7520561  51.9472427
  72.2938004  20.5319939  51.5194473  72.2725143  19.0198021  51.4577370
   4.8933296   5.8244982  88.1705780   4.7189646   6.7148967  88.4755630
   4.0836453   5.5575151  87.7354126  42.7041321  41.6645851  84.7767410
  43.2223854  42.4686317  84.7427521  42.5821228  41.4193268  83.8595810
  67.0457993  10.9211311  43.2346802  66.4367065  10.2385702  43.5163841
  66.4847183  11.6583042  42.9938583  27.4705601  53.0770569  22.2105751
  27.7503338  53.2452011  21.3107491  28.0705376  53.5937309  22.7484474
  50.7229958  22.7931747  24.3149261  50.0425301  22.1440525  24.1364994
  51.5447960  22.3273640  24.1603584  26.4830418  20.7726002   0.8640388
  26.5139885  19.9492626   0.3768145  27.3729973  20.8872967   1.1972904
  51.6482048  66.5449142  50.1062431  52.0930939  66.2206192  50.8892746
  50.9872551  65.8798981  49.9135628  16.3052731  45.8222580   5.9886913
  15.8275089  45.2334709   6.5729032  15.8038454  46.6373901   6.0077124
  48.9549484  55.9664192  48.0960808  49.6523323  56.3240280  48.6456261
  48.6971474  56.6953125  47.5317383  34.2961349  45.8180428  59.3067551
  34.7387695  45.2906113  58.6418343  33.5121841  46.1481743  58.8678131
  85.5941849  32.6773682  51.7785568  85.2694473  33.5751534  51.7095566
  86.5399323  32.7544098  51.6526108  51.3869057  12.1974907  37.2070656
  50.5661926  12.6895790  37.1844444  51.2453499  11.5261908  37.8745613
  12.5165024  50.5222321  67.8270645  13.4686899  50.4665451  67.9074936
  12.1850348  50.1548920  68.6464691   9.2694378  21.8020859  22.1128654
   9.5435572  21.7696896  23.0294018   9.7221642  22.5654373  21.7543068
  24.8847046  71.6017227  88.5690842  24.8922195  70.7095337  88.9157486
  25.2106667  71.5134201  87.6734390  47.8606224   5.2795796  33.6767006
  47.4018669   4.8996186  34.4259682  48.5838432   4.6758342  33.5073624
  57.2507744  60.0423317  70.6455765  56.3464966  60.3037796  70.8192444
  57.7778511  60.7716026  70.9720612  39.4158821  45.4485703  28.5484676
  39.3061371  44.9155807  29.3359394  38.6530075  45.2394447  28.0094700
   9.3976345  55.1534500  15.0471754  10.3184319  54.9157257  15.1560469
   9.0216675  54.4311447  14.5440283  37.2147102  54.7154465  16.9670525
  38.1656113  54.6180534  16.9167309  36.8953133  54.3847466  16.1274967
  20.8025608   1.5175915  49.6911354  21.4973106   0.8594662  49.6705475
  21.1527157   2.2183809  50.2411537   9.4354467  18.5433102  62.1420364
   9.5684557  19.4526920  61.8745155   9.2095804  18.0859661  61.3320618
  11.1173277  47.2222862  66.5955048  10.9228039  48.1428413  66.4195251
  10.3344498  46.8920746  67.0362930  84.0209274  55.5349350  26.6869774
  83.8105927  55.4852104  27.6194572  83.5319138  56.2948494  26.3713360
  60.3754044  49.6480713  11.7193985  60.1776810  49.0619659  12.4498892
  60.2209015  49.1173592  10.9379215  13.6769094  56.5859718  15.7681065
  13.6055527  57.3728638  15.2277908  13.3515692  56.8549995  16.6271820
  47.2152023  51.8813553  43.3179245  47.4790573  51.5385017  44.1717720
  46.2767754  52.0480003  43.4063301  65.1536865  38.3873711  88.4761658
  65.2343369  39.3389015  88.5418320  66.0564804  38.0734825  88.4244461
  48.9916649  38.5162354  12.2420797  49.3897629  39.0826378  12.9030943
  49.4776802  37.6941528  12.3069630   0.7079994  25.9708557  50.9644012
   0.7236981  25.0199490  51.0728531   1.6079569  26.2466450  51.1383209
  53.1956177  21.8577785  86.1127548  52.7943268  22.6576424  86.4524841
  53.0302963  21.8884411  85.1704407  32.2246323  40.9223175   6.4850383
  31.8636112  41.5248909   7.1352668  31.5619831  40.2368546   6.3997612
  22.5075226  43.6628990  25.8956871  23.0066528  43.2567749  26.6043224
  21.6210346  43.3166695  25.9981346  39.4958076  17.3111973  12.7028265
  38.9936600  16.7120628  12.1504498  38.9411392  18.0874729  12.7801132
  60.0098610  13.6857100  54.2463303  59.5974960  13.0296459  53.6843987
  60.7474594  13.2270250  54.6485634  28.2652073  41.8146515  75.3138275
  27.9238873  41.5996780  74.4457779  28.3975773  40.9658852  75.7360916
   4.4369388  25.4239254  75.5432129   4.1612597  26.1822624  75.0282822
   3.7039573  24.8116608  75.4791794  12.7832899  13.3423471  18.8395481
  12.1449814  12.7205296  18.4900684  12.2541590  14.0029469  19.2866058
  30.2826233  45.9219055  10.6669350  31.0828571  45.6065178  11.0869217
  30.4128399  45.7398911   9.7362652  60.9241486  52.1097336  84.5056305
  61.4840012  51.5324516  85.0248108  60.4769135  51.5238800  83.8949051
  39.9100571   4.6998057  59.9917450  39.2937050   4.3772593  60.6492462
  39.8234253   4.0872335  59.2613449  61.8341713  20.5373211  28.3695908
  61.4577293  21.3761368  28.1032982  62.4459686  20.7612019  29.0708866
  28.9863720  64.6119614  60.8519478  28.0463409  64.7864761  60.8059578
  29.1307087  64.3122864  61.7494965  23.9391575  68.4377365  38.6895981
  24.2067318  68.9265900  39.4678421  24.6824818  67.8656387  38.4988060
  42.3611412   5.3329062  66.7611313  43.1677666   4.9075637  67.0521088
  42.3068123   6.1297665  67.2886734  81.4542313  64.8572464  48.4737511
  81.6310959  65.7545471  48.1912537  80.7138062  64.9370193  49.0751190
  78.7858734  11.0630703  19.7567616  78.3873520  10.7155485  20.5546608
  79.6875687  10.7427034  19.7802563  11.8063745  32.0844040  76.3065186
  12.2818995  31.9088860  75.4945450  12.2514572  31.5508194  76.9648666
  53.0401993  15.2362909  25.3370571  53.7187424  15.8409815  25.6373272
  52.3198204  15.3584585  25.9554100  61.2615623  38.5402489  70.8451004
  61.0656891  37.6716576  70.4937897  62.1886368  38.5001411  71.0799561
  10.2516232  53.7334251   1.3333943   9.7457533  54.5182152   1.5441805
   9.7588940  53.3129730   0.6286454  20.9721565  66.7431793  71.4626007
  20.9699135  67.4638748  70.8326569  21.8994427  66.5688095  71.6237488
   5.8934927  27.7303181  49.9268417   6.2590752  26.9139805  49.5859985
   5.3147140  28.0423927  49.2312431  54.7441025  23.2273293  27.6561432
  54.5525589  23.8099842  26.9212589  54.2125320  23.5670700  28.3760300
  43.5808754  39.1020622   3.9618144  43.4764137  38.1633492   4.1171594
  44.1978302  39.1568642   3.2320244  69.2919846  49.5265770  55.6486015
  69.1489182  49.0254707  56.4515038  70.1434250  49.9449921  55.7759209
  18.9671726  10.6593866  77.9934540  19.8201885  10.9578638  78.3088989
  18.3487415  11.3123722  78.3211517  43.4799423  50.8427925  10.4438725
  43.1922646  51.4980927   9.8082190  42.6873245  50.3491478  10.6543541
  81.7819672  26.6746788  46.9778137  82.2032089  27.3205032  47.5449982
  81.2483521  27.1951313  46.3773003  48.5610237  54.1187935  88.7059174
  48.9374428  53.4124298  88.1809464  49.2408562  54.7923965  88.7237320
  78.4960403  55.4955330  49.5950546  79.2044601  55.3774109  48.9622688
  77.7976227  55.9194603  49.0963211  34.5007133  50.0172997  42.8720169
  33.5815926  49.8284225  43.0611649  34.9450455  49.9112282  43.7131767
  82.5854568   6.1777525  20.1421776  83.1753006   5.8791575  19.4499664
  81.7151031   6.1470904  19.7449627  11.1858149  39.6217384  66.3589096
  12.1016006  39.4259911  66.5570297  11.1346626  39.5868607  65.4037170
  35.4900246  67.5499420  43.1158066  35.2826958  66.9763565  43.8535347
  36.4405594  67.4863281  43.0227127   5.1842570  54.8948250  36.8826790
   4.5484376  54.4375801  36.3323212   6.0075283  54.8347130  36.3980713
   2.1277685  39.7375717  34.8974113   2.5217984  39.2705994  35.6342354
   2.8233724  39.7801208  34.2412453   4.7576642  53.0632515  59.1005974
   4.6070118  52.9335899  58.1642647   5.3249240  52.3354149  59.3549652
  16.9303360  65.5398636   7.7867551  16.5947552  66.3995667   8.0407734
  17.8430939  65.7002563   7.5472126  19.5798683  28.0720253   3.5346239
  19.3589363  29.0000954   3.4564819  19.0495052  27.7604923   4.2680364
  46.5363808  38.0443420  38.8552971  46.2303696  37.4324074  38.1858788
  45.7495728  38.5188065  39.1237221  38.0276070  63.0972137  21.9859905
  38.8117599  62.7142563  21.5926991  38.3425331  63.5205116  22.7846584
  21.8903408  50.8140411  48.0568924  21.5373020  49.9244652  48.0726700
  21.3498726  51.2973328  48.6818352  73.4391937  16.0777874  26.3786106
  74.0847855  15.5059357  26.7938499  73.1762772  15.6074257  25.5874920
  39.8518867   2.5630002  64.1924667  39.7620316   1.7127815  63.7620163
  40.3154449   3.1063125  63.5551605  70.4183273  63.6786957  29.4464436
  69.8609924  64.4380951  29.2763653  70.8087769  63.4731178  28.5970211
  40.3645515  42.8846741  85.4506836  41.1509209  42.3389664  85.4579620
  40.1288872  42.9775162  86.3737640  77.3418503  65.8725662  60.4858513
  78.1292267  66.3715363  60.2683754  76.7302399  66.0689163  59.7761955
  80.9169159  41.8198967  21.2690411  81.1064987  41.6487083  22.1915302
  81.7765884  41.8477821  20.8490200  53.2293549  15.3844042  46.9753838
  53.3489456  14.4931889  47.3035049  52.3124390  15.4182119  46.7026978
  67.3895264  31.9311256  85.3609085  66.9675293  31.5706520  86.1407852
  68.0856857  31.3071899  85.1552429  63.1252327   7.6176953  81.6070480
  63.8071709   7.9725280  82.1773834  63.5916710   7.0291419  81.0135193
  43.0227356  18.7963085  40.0816422  43.4523430  18.1943645  40.6893692
  42.6826210  18.2327843  39.3866653  79.0004196  51.3432274  56.1836739
  79.6132355  52.0573387  56.3590012  78.9586334  51.2924957  55.2287331
   4.5847421  61.5697365  56.4752884   4.3004737  62.4690323  56.3119202
   5.4954152  61.6539879  56.7577934  46.3816872  54.7928696  85.4394989
  45.6547852  54.7006607  86.0554123  46.6530190  55.7068787  85.5243378
  38.2488670  22.7447586  76.8534012  39.0793381  22.4661751  77.2393341
  37.7556801  23.1130161  77.5864716  35.6972351  34.4335480  14.2197342
  35.7816772  35.3689919  14.4042377  34.7904205  34.2258720  14.4451113
  78.2326050  59.5336037  76.4518661  78.8647842  60.1960487  76.7306976
  77.4036865  60.0073547  76.3834763  38.5538940  70.0427094   7.1815062
  38.1664543  69.5391159   6.4656010  39.4961662  69.8999405   7.0922251
  18.2597809   2.1443675  64.0650253  17.9248734   2.5245304  64.8771515
  18.3950558   2.8952577  63.4870148  40.2921371   3.5502334  66.6066132
  40.9968071   4.1957841  66.6608047  40.2986946   3.2646322  65.6930389
  81.4055176  15.1717119   8.6523371  81.5413589  16.1179657   8.6035156
  81.4463882  14.8766289   7.7426744  78.8273697  59.9826660   5.8765569
  78.6200256  59.6271935   6.7407794  78.7945099  60.9320755   5.9939075
  68.6582260  31.7176361  62.9929657  68.7357483  32.6428528  62.7601662
  68.5472031  31.2683239  62.1550980  50.3898659  14.6440401  84.7388229
  51.2642708  14.4081917  85.0486908  50.1235085  13.9068213  84.1894608
  50.6208229   3.5988848   9.7878494  51.1439362   2.9868479  10.3055315
  49.7195625   3.4409153  10.0689411  50.2822876  24.5321789  87.9081726
  50.3533401  24.2071590  87.0106506  49.3623619  24.4014549  88.1381302
  66.5727539  41.5428696  40.6763039  66.0015335  41.7901382  39.9491196
  66.1172714  41.8586235  41.4567337  44.3740082  66.2173309  50.5750313
  43.9871826  65.3946304  50.8746452  44.8044510  65.9931335  49.7499924
  44.5631332  57.6614418  12.7627707  44.3235397  56.9720612  13.3821106
  44.7928123  57.1931267  11.9601755  46.7298393  44.6067200  74.9877319
  46.3235512  45.4693947  74.9043274  47.3493538  44.5623207  74.2594070
  34.1540756  25.6593380  73.3192444  34.3907967  25.1706753  74.1075363
  34.8994217  25.5400429  72.7306366  52.0429459  20.5477543  58.1086388
  52.3820534  20.8277321  57.2584305  51.0943222  20.5084419  57.9869843
  54.6973572  64.8561554  87.9072418  55.0356560  64.9752884  88.7947083
  54.6533928  63.9068069  87.7931061  36.1135445   7.4722633  75.0545044
  36.8431053   7.5243530  75.6719666  35.3368645   7.3897815  75.6078568
  41.9650879  52.6114311  67.7454224  41.8107033  51.8822632  68.3460159
  42.9020195  52.5697708  67.5539703  65.0071259   2.3344254  59.5361748
  65.7642822   2.0193124  59.0425720  64.2515182   1.9771369  59.0696678
  43.8476105  54.6272392  45.6359520  44.6125984  55.1923714  45.5279846
  44.0187035  53.8803596  45.0622559  66.2517776  18.9910507  78.0164413
  65.3846512  19.0098934  78.4213715  66.6886978  18.2414837  78.4207687
  42.1410103  41.2703896  62.9715576  41.7226105  42.0873909  63.2430038
  43.0769920  41.4279594  63.0954170  85.4527435  53.1846504  23.1304512
  86.2590637  52.9666214  22.6629658  84.9451218  52.3731689  23.1237812
  54.2417374  64.6938934  35.1406212  53.9482536  65.4225311  34.5936394
  54.2660484  65.0544357  36.0269928  85.5120544  28.0749779  49.6834412
  85.2133636  27.6063538  50.4628029  86.3822021  27.7170296  49.5075302
  79.7252121  32.3607216  72.7079315  80.1968613  32.2578888  71.8813705
  80.2776260  31.9222260  73.3550720  85.2583008  58.7743263  88.6417236
  84.9839172  58.1450005  87.9747162  85.8553085  58.2815819  89.2047653
  66.1775818  33.3816490  62.0122986  66.5527878  32.5744743  61.6602707
  66.5957031  33.4873466  62.8668365   1.1104739  19.0396824  51.0567017
   0.9071862  19.4921684  50.2380676   0.2736581  18.9937153  51.5191498
  25.2593117  47.7740021  52.5382156  25.9875622  48.3245468  52.2504959
  24.7312851  47.6443329  51.7504311  47.3075180  59.1642647  76.5275040
  46.8888855  58.7326088  75.7827530  47.7274055  58.4531403  77.0114822
  52.1909065  59.3049278  12.1213264  52.8647232  59.0789490  12.7625265
  52.2095833  58.5852432  11.4905081  86.4593048  25.9308395  86.0820312
  86.7760010  26.7808647  85.7764282  86.2938385  26.0586071  87.0161285
   0.8516334   5.0941100  18.0910301   0.2324860   4.5675139  18.5965843
   0.8196332   5.9592071  18.4994602   7.0412169  64.4190369   8.5308828
   6.6552629  63.5932426   8.2387695   7.9554448  64.3680573   8.2519217
  47.9262428   1.5588634  19.8225098  48.1734009   1.3516016  20.7237244
  48.1326599   0.7651166  19.3289623  70.5003662  20.1395550  61.0864716
  69.9424667  20.6428127  60.4934235  70.4039841  19.2330818  60.7944946
   5.7488470  57.2716293  85.3761292   6.4743972  57.8215408  85.6717758
   5.0548601  57.4257622  86.0171127  19.8656864  42.8534775  26.0293579
  19.4156933  42.8888817  26.8734455  19.8644161  41.9251556  25.7960110
  16.3959541  48.1494408  37.2746658  16.9925041  48.6217499  36.6939049
  15.5935965  48.0478897  36.7626686  58.6737213  15.9921732  41.2366829
  58.3716812  15.6884193  40.3806839  57.9268265  15.8504887  41.8183250
  60.3859444  60.9130249  60.1146431  59.8676720  60.9263535  60.9192886
  60.1106567  61.6970024  59.6394272  62.7842865  54.6167755   7.6795712
  62.2362938  53.9883232   7.2094846  63.5475998  54.1094742   7.9556646
  76.2109909  12.8137503  25.2713089  76.8799820  12.4757471  25.8666477
  75.4280319  12.3024626  25.4757576  68.4864273  36.8324165  68.1972504
  67.7974701  36.8863602  68.8595581  69.0900955  36.1697960  68.5330276
  68.5933914  50.9544144  30.8386917  68.7141266  51.7522583  30.3238201
  69.0750504  50.2826729  30.3559895  13.0571632  68.9050064  25.7317314
  12.1292582  68.6820679  25.8060627  13.0734758  69.8620071  25.7213249
  26.4831600  29.6806622  19.4479198  26.5333881  29.3492661  20.3445168
  25.6621037  30.1718941  19.4197807  26.7003975  18.0335407  87.9683838
  26.4640961  18.4319344  87.1307297  27.6575699  18.0263023  87.9686203
  53.9179955  57.2041359  78.1013794  54.6793556  56.8048744  78.5222702
  53.2721825  57.2865334  78.8030624  16.7677670   3.1229625  59.0738182
  16.3857346   3.8117104  59.6177902  16.0589790   2.4906931  58.9551239
  63.6064987  10.6311378  38.0028229  63.7319031  11.0341530  37.1437073
  64.4725800  10.6595526  38.4094315  21.2775497  52.3236771  80.7576294
  21.5789070  52.9547729  80.1040726  22.0626678  51.8293228  80.9930725
  25.6856728  47.5192871  27.3486195  24.8917713  47.1033211  27.0125771
  25.7087708  48.3739929  26.9182968  80.9059830  64.2212601  86.3867416
  80.4369278  64.2982712  85.5559082  81.6072083  63.5945091  86.2087021
  81.7313004  31.9865513  70.8119888  81.4717102  31.1378326  70.4534912
  82.4209671  31.7793655  71.4425964  71.8924942  65.5370789  17.7320538
  72.5827408  64.8971558  17.5580120  71.6800919  65.4145966  18.6573200
  64.3680573  11.8592882   8.7117119  63.8858147  11.8666391   9.5385246
  64.7635345  10.9884729   8.6728354   2.4932122  42.2618179  87.4840317
   3.4392331  42.2581062  87.3382187   2.3799734  41.8334694  88.3325195
   0.6381500  58.7082024  28.3981152  -0.1850343  58.5475769  28.8594151
   1.1239142  59.2989655  28.9736691  45.4628296  26.4398403   5.4887772
  45.4955101  26.5750065   6.4358215  45.7519989  25.5356941   5.3657618
  59.2819023  66.1972198  60.6419258  58.6910019  66.5570908  59.9804382
  58.7105370  65.9709320  61.3757973  58.0160408  43.8614922  83.6917725
  58.6277771  44.5681038  83.8984375  58.3729515  43.4597321  82.8996582
  42.5737610  10.0780859  77.1422119  41.7578468   9.7557621  76.7592926
  43.2429848   9.8697844  76.4903107  50.9301186   5.8033218  14.6244926
  51.0089340   5.0695906  14.0148544  50.5174255   5.4259701  15.4013596
  20.4854240  42.6145973  87.8640289  20.9241276  42.8541107  87.0476913
  20.2501125  43.4517708  88.2640305  54.5990753  51.9681168  62.4584122
  54.0592308  51.6418610  61.7384415  54.6462822  51.2359772  63.0732117
   3.2239435  10.0575533  19.4078503   3.9691455   9.4686947  19.2888947
   2.7255073   9.9804573  18.5943108  26.8000660   3.8931503  37.5021362
  27.3948917   3.9932933  38.2453613  26.1285057   4.5609159  37.6411629
  58.2526207  12.7784643  50.2246895  57.8793335  12.1177263  49.6413231
  58.0007095  13.6143360  49.8321419  73.7597733  27.5780296  42.3900185
  74.0162125  28.4983501  42.3310089  73.2236786  27.4283657  41.6112785
  17.7596474  21.4288101  64.5916748  17.7346134  21.3976517  65.5480347
  17.3036537  22.2397194  64.3664322   6.9334793  11.6723690  84.4401855
   7.4503803  12.1862059  83.8196869   6.8143778  12.2533255  85.1915436
  33.7635765  28.1940384  72.9313431  33.5556984  27.2620621  72.9979782
  33.5750084  28.5443420  73.8019485  74.1518631  57.2307625  43.1968651
  74.3793106  58.0620422  43.6133652  74.6787872  57.2110558  42.3979950
  65.6878128   8.8824396  44.6391029  65.8768005   8.0185528  44.2727547
  64.7385559   8.8880167  44.7620544  40.9351196  27.7432442  82.1770172
  40.5974998  26.9666557  81.7307510  41.3285294  27.4051456  82.9814682
  78.7721481  44.2798386  70.0984116  78.7847748  44.6827545  70.9665909
  78.8976746  45.0107956  69.4932861  72.0155106  66.4477844   4.4025121
  71.2053833  65.9790573   4.6030769  71.8176041  67.3633118   4.5996823
  78.7696381  38.1145592  78.6235046  79.4864655  38.7464638  78.5679245
  78.5049973  37.9720230  77.7147293  66.8077469   4.9554958  81.1994171
  66.4946289   4.1197343  81.5453796  67.1163483   4.7489853  80.3171768
  60.5355263   7.0044146  65.9925156  59.6547546   6.6297498  65.9827271
  61.0198936   6.4614096  66.6144180  24.9996986  43.5664711  14.4054556
  24.4908867  42.8286972  14.0692549  25.8503952  43.4871979  13.9738731
   3.2478204   0.9155484   0.8020447   2.3268049   1.0585728   1.0200045
   3.3285983   1.2135273  -0.1039991  81.9649582  57.6665993  84.0235443
  82.1995544  56.9893723  84.6580200  81.0743256  57.9218941  84.2640076
   9.3433285  36.3982811  45.7641754   9.5329247  35.4600487  45.7663994
   8.3936329  36.4504662  45.6565399  24.5656357  71.0254974  26.5550156
  25.1339378  71.7810287  26.7048264  24.6039715  70.5308990  27.3736324
  43.9909668  53.0560493  53.3032494  43.0752945  53.1136971  53.5761032
  44.0580063  53.6568069  52.5610695   7.3974142  54.0208626  63.2677727
   8.2886219  54.2542305  63.0079269   7.5125399  53.3937569  63.9817162
  29.2354908  54.3769264  62.2712784  29.5099525  53.5979347  62.7550888
  28.9542828  54.9925461  62.9481583  68.0997772  52.9212074  54.5282059
  67.5231552  53.6754112  54.6503563  67.5044327  52.1790047  54.4236374
  48.2893257  11.3873205  77.1345749  48.8657761  12.0094309  76.6908188
  47.7526741  11.9288826  77.7133179  41.1296272  65.8651428  79.4795456
  41.8506279  65.3674698  79.0939331  40.3888397  65.7057800  78.8946762
  58.2272987   9.8116035  12.2298603  57.7627983   9.8424883  13.0662336
  57.9570885   8.9819403  11.8363171  47.8705864  56.0389252  65.6190262
  47.8788376  55.9654694  66.5733719  47.8018532  55.1356392  65.3098679
  25.3243618  23.3182468  73.6543274  25.0855942  24.2448044  73.6810226
  25.8569775  23.2308407  72.8638153  37.0836639  46.3475876  21.6144524
  37.3636055  45.5854149  22.1213646  36.4865379  45.9914894  20.9565296
  43.3186607  22.9588280  78.7508621  44.0560951  22.8030167  78.1608276
  43.5426598  23.7711983  79.2048569   3.1746047   3.4455245  21.1934929
   3.2531404   4.1189494  20.5177994   4.0291815   3.4380066  21.6246243
  41.6437988   7.1912136  82.0089188  41.6643791   7.9042091  81.3705978
  42.5200920   7.1891799  82.3940582  69.0823364  41.6907806  37.4520149
  69.9034271  41.7648239  36.9656410  69.0854568  42.4435425  38.0432587
  18.3158417  49.0392303  14.8884344  19.1312313  48.5608139  14.7384806
  17.9555302  48.6539841  15.6871805  43.6698799  43.9191818  81.3836288
  43.8919106  44.1302223  80.4767685  43.2133293  44.6964607  81.7055435
  44.5183449  68.5496368  52.1782036  44.4683990  67.6980820  51.7439384
  43.6175537  68.7370911  52.4421463  17.7546177  27.4972591  80.2112732
  17.1257343  28.1936111  80.4005661  17.2944717  26.9174366  79.6043930
  15.5411072  33.2812614  22.1985607  15.8524199  32.3773727  22.1506348
  15.7979755  33.5770645  23.0719185  82.2581024  43.5584831  38.0061646
  82.1714859  42.6319351  37.7820168  81.3737488  43.8288002  38.2532959
  74.5938568  30.4184399  25.6334000  75.1815567  29.8723087  26.1554909
  75.1363602  30.7290726  24.9085350  27.9331989  69.1785278   8.4062939
  27.8920746  69.8607330   9.0764713  28.7794056  69.3127441   7.9795017
  56.5555382  39.4487534  87.2381287  57.4044876  39.5833435  87.6593170
  56.7583504  39.3872032  86.3046875  36.8871460  42.6330414   7.6865416
  37.4309464  42.0345306   7.1743913  35.9943314  42.3109207   7.5626311
  29.6380272   2.4559250  61.1678963  30.1316452   1.7011149  60.8472176
  28.8942146   2.5273862  60.5696754  53.0475616   7.4592266  44.1102562
  53.5890427   8.2484360  44.1236076  53.0775604   7.1329350  45.0096245
  34.6526909  62.1064873  47.1479034  34.8961029  62.6679153  47.8839607
  35.3768921  62.1962585  46.5284615  65.2218704  31.7125835  43.2860146
  65.7534485  32.3285522  43.7902336  64.8131027  31.1527843  43.9461403
   5.4834447  30.1444321  86.5843735   6.1338587  29.5869026  87.0114059
   4.9417272  30.4731731  87.3018036  61.8822250   1.9775859  75.0379486
  62.0489044   2.2789750  74.1448593  62.3025703   2.6332767  75.5943756
  59.3736496  38.9364243   6.9972405  59.6376801  38.2448959   7.6041269
  58.4255562  38.8336525   6.9148488  62.8092194   2.8007829  29.4409866
  61.9244461   3.0602612  29.1839275  62.6866798   1.9922601  29.9384880
  31.6822948  43.3524361  51.5435219  31.4673424  42.5870743  52.0766716
  30.8964062  43.8977089  51.5794258   3.6387737  28.0034485  13.2822838
   3.3145597  27.7031155  14.1313515   4.1543608  27.2689152  12.9493246
  34.4318161   5.2601862   4.3188834  35.3237572   5.5872831   4.2019382
  34.2283783   4.8191409   3.4940660  56.5688667  25.8822460  64.8357544
  56.0764885  25.2360420  64.3295746  57.1435661  26.3010426  64.1950073
  33.4985847  12.5368862  80.3671646  32.9347305  12.5482893  81.1405792
  34.1931610  13.1641941  80.5678635   5.4819012  50.8408356  79.9423981
   4.7883267  50.7429962  80.5947952   5.9125977  51.6641579  80.1723404
  38.3781319  43.1181107  45.1766586  39.0629120  42.6960411  44.6578445
  37.6965370  42.4514046  45.2613068  79.6106186  38.2565956   5.3415766
  78.8895187  38.0641022   5.9409037  79.5637283  39.2030716   5.2066164
  85.1864395  43.2601547   1.8977711  84.8989487  42.3893280   2.1720784
  86.1024094  43.3072968   2.1716425  75.8421783  64.3800430  23.1558132
  76.3499832  65.1845169  23.0500355  74.9601440  64.6806030  23.3746948
  73.4671631  16.3976192  32.0457878  73.9766159  16.7315578  31.3074322
  72.9075241  17.1307812  32.3017387  40.6394997  49.7401352  20.9668179
  40.7058334  48.9749870  20.3955193  40.3830376  49.3827667  21.8169632
   2.3822696   8.3958111  41.4736404   2.0118873   7.5442472  41.7057800
   1.7903253   8.7401915  40.8048820   9.7960730  53.2116737  59.7744293
   9.7967968  52.2544823  59.7703629   9.0716877  53.4530907  59.1971817
  69.0952301  34.6305695  13.9977779  68.5649414  35.4257774  14.0494242
  68.6351929  33.9995346  14.5513039  47.2098961   2.1476243  26.3814526
  46.4476051   2.7264948  26.3740196  46.8636246   1.2991318  26.6578331
  58.8784599  17.5142879  23.1695881  58.8693542  18.2785435  22.5933399
  59.5830727  16.9643917  22.8269997  11.2252207  50.6916504  61.0358734
  11.9864712  50.7836571  61.6088181  10.5048542  50.4747238  61.6276894
  19.3438530   1.6329687  77.4929657  19.5785961   1.8716698  78.3897095
  19.7041416   2.3381739  76.9552765  61.3996887   7.9017482  29.6847782
  61.8508873   8.5355082  30.2424507  61.9097748   7.0968962  29.7756405
  81.8611908  44.9236641  50.7096519  81.1719971  45.4541130  51.1094818
  81.7169647  45.0140648  49.7677116  20.3796635  35.2249565  55.8632889
  20.8934441  34.4726334  56.1570053  20.3289509  35.7947006  56.6307869
  40.2837639  48.8868027  14.3426485  39.7473030  49.2328682  15.0558653
  40.7302589  48.1307983  14.7238703  45.6297073  45.8233833  70.9362259
  45.9242821  44.9126701  70.9442215  44.7478943  45.7866440  70.5657043
  41.7097321  56.6572266  18.3220024  42.5563431  56.4807510  17.9117107
  41.9103432  56.7545166  19.2528744  75.3961487   2.5676007  25.1970139
  74.9332886   2.8702202  25.9783039  75.3309555   3.2981634  24.5819855
  31.5614815  33.0466499  86.4752731  30.7475815  33.4312820  86.8006210
  32.1058884  32.9424820  87.2556610  61.0798607   9.7097197  66.2279968
  60.7895126   8.8033895  66.1255493  60.7625389  10.1532526  65.4413452
  19.3659077  35.1453590  20.9585552  18.6643238  35.6237183  21.4003525
  19.3101196  35.4274750  20.0455761  65.3249817  19.7910995  35.6326294
  64.9034805  19.7594547  34.7738113  65.5665588  18.8829117  35.8144798
  15.8546200  57.5636902  75.4303284  15.5900135  57.4930344  76.3475113
  15.8548346  58.5043030  75.2528915  80.4801025  62.5967827  52.6205597
  80.2307892  61.7523079  52.2451401  80.0644455  62.6076889  53.4827347
  35.5149918   0.0203884  67.4722519  36.0734634   0.5553473  66.9081955
  34.7430840  -0.1659019  66.9377518  50.2865829   1.7326306  28.3182735
  50.1820030   2.6755776  28.1912079  50.7006798   1.4266869  27.5113316
  62.6138344  55.3980064  49.0590286  63.0915871  55.6604462  48.2721939
  62.0462456  56.1435852  49.2544518  32.6012001  18.6073666  77.7566681
  33.1478882  19.1423855  77.1812439  33.2250404  18.1238384  78.2981949
  49.3190994  55.8491631  18.6316547  48.4640388  55.4475021  18.7858181
  49.7072258  55.3248444  17.9311714  58.2319603  36.6155281  58.4471664
  58.0766068  36.0933685  57.6601143  57.7583046  36.1532288  59.1386566
  21.3074799  60.4151840  63.8913994  20.4835415  60.0196953  63.6068916
  21.6471806  59.8117638  64.5522461  35.4602165  66.4112167  72.6009369
  35.5016289  65.8929520  71.7972488  35.6183395  67.3106995  72.3143082
   2.0271385  45.0772629  84.4781723   1.1681643  45.2259674  84.8735046
   1.8345872  44.6753769  83.6310349  28.4757824  28.0425701  67.4997101
  28.3174877  28.1817036  66.5660019  29.2121201  27.4317036  67.5293884
  76.9867172   4.1634817   7.5826173  77.9053802   3.9015019   7.6430721
  76.8728409   4.4286780   6.6699643  58.8071442  46.0313835  38.2105331
  58.4179535  45.2325287  38.5663300  58.3309021  46.1871452  37.3949585
  38.3515129  69.2759476  81.6382599  38.3367615  68.3501434  81.3955612
  37.9660988  69.7266922  80.8869171  63.1162567  31.0431614  60.9426613
  62.1851234  30.8774757  61.0902176  63.2528610  31.9375210  61.2552185
  66.2654343  50.5029526  11.9531002  65.5054092  49.9793625  11.6992426
  66.1057816  50.7281952  12.8696203  45.4737663  45.6664886  64.6721420
  45.6194649  44.7258110  64.7727814  45.2416916  45.9682236  65.5503998
  52.4752502   3.7237310  58.5483360  52.3796310   4.6579490  58.3630638
  52.0206680   3.5969555  59.3811111  82.7727432  38.1155777  74.1839981
  81.9321671  38.3235512  73.7760620  82.5399551  37.6692696  74.9981461
  38.5290527  62.8432236  29.2246876  39.4579239  62.9212608  29.4422760
  38.4223709  61.9314728  28.9534645  81.4775238  15.7859421  68.5783310
  81.1317139  16.6209660  68.2630768  82.1886673  15.5772018  67.9725800
  85.0548172  39.8025055  73.6253281  85.2875900  39.4859428  72.7524948
  84.5135880  39.1056404  73.9963989  34.4242020  41.3328171   8.0763168
  33.7036018  40.9607811   7.5678277  34.3711891  40.8924103   8.9245281
  69.5825043  62.2149925  87.2746582  69.1452255  61.3670807  87.1967850
  69.0856018  62.7946625  86.6973419   0.5527645  10.8750887   9.0878887
   1.4910690  10.9881239   9.2396774   0.2354468  11.7548237   8.8839121
  66.7821350  10.0353851  87.0436935  66.9772720  10.3616037  86.1652145
  67.1304855  10.7060823  87.6311035  31.3722153  16.2933388  75.3722076
  30.6657276  15.9681063  75.9301834  31.7370071  17.0347614  75.8553772
  59.8406639  55.3200378  67.2894974  59.2598267  54.8971977  66.6569901
  60.1179123  54.6118851  67.8707733  37.5953407  56.2395248  55.7762985
  37.4607544  55.9364090  54.8783913  37.6524048  57.1920891  55.7015076
  29.3291645   3.2436368  10.2254972  28.4326286   2.9781122  10.0206747
  29.6222153   3.7178276   9.4473610  23.5613594  34.4470825  81.8562775
  22.6944656  34.8412056  81.7593689  24.1050091  34.9032097  81.2139206
  40.5885620  23.1802444  70.0970917  40.8416367  23.9505901  70.6057663
  40.1068878  22.6319199  70.7164154  53.7897720  36.3204613  62.9935341
  54.6471214  36.3642159  63.4169350  53.2022400  35.9947777  63.6754189
  39.7052574  16.8431854  71.6010818  39.1370697  17.5989952  71.7498932
  40.4836311  17.0210609  72.1290283   5.6138501  66.5155945  69.0802307
   5.4623575  67.4597397  69.1235123   5.1509809  66.1636429  69.8405685
  82.7830811  39.2468491  26.3143520  82.7853699  38.5191460  25.6925201
  81.9269409  39.1960030  26.7393951  10.8353872  43.5073051  37.0246849
  11.6208067  43.6150932  37.5610886  11.1112261  43.7579536  36.1430283
  41.0587807  55.0145111  75.8093872  40.2324409  55.4024429  75.5214615
  40.9149971  54.0702896  75.7461014  15.7622690  16.1746845   0.7350022
  15.8255472  16.6919632  -0.0678989  14.8250132  16.1440792   0.9269575
  37.7352066  10.7357721   3.2119215  38.2368660  10.5753765   2.4126446
  37.9737587  11.6261778   3.4698005  23.0691814   1.5462714  75.4045181
  23.5783005   1.5551271  74.5939941  22.5111122   0.7723255  75.3283768
  42.9002991  18.7380619   3.8808134  42.7619057  18.1153793   4.5944982
  42.1817436  19.3645611   3.9668548  82.3131485  59.0552177  62.4669762
  83.1224136  59.3656387  62.8731232  81.7428894  58.8383293  63.2045364
  50.9909859  68.6386642  73.4854736  50.4671440  67.9764633  73.9363708
  50.9615784  68.3807831  72.5641327  66.7345200  29.1833115  70.6438217
  67.3815842  28.4786758  70.6118240  66.2421722  29.0936069  69.8278656
  82.9342270  16.3196468   4.2267098  82.7775879  16.8115902   3.4206777
  83.2183228  16.9798622   4.8588781  79.0158768  65.6337128  55.9347305
  78.2889938  65.7894211  56.5377502  79.6520691  65.1373138  56.4495888
   9.5204239  56.7080803  75.1859818  10.1858530  57.3118057  75.5160675
   9.4235868  56.9400520  74.2623749  77.8901367  14.4041748  12.3185472
  77.7888412  13.5163040  11.9755363  77.0037384  14.6682806  12.5650625
  39.0562248  32.3472519  28.1594315  39.9902420  32.4491959  28.3423328
  38.9810410  32.4820976  27.2147636  71.6116028   6.8265104  46.6772385
  71.6743164   7.4625993  47.3897629  71.9174957   7.3014817  45.9045372
  43.6895752   3.1031842  13.6047459  42.9563446   2.5449972  13.8636570
  43.7870026   2.9499969  12.6649199  55.0542107  68.8606949  67.2947464
  54.4934006  69.6191788  67.4573212  55.6895294  68.8747482  68.0105743
  39.7825165   1.4165777  27.8030205  40.1071434   0.5372249  27.9968948
  39.0983429   1.2802206  27.1476231  69.5447083  11.9991512  43.2621422
  69.5523071  12.1701765  42.3203773  68.6352768  11.7730541  43.4571877
  86.1023788  64.8026276  18.3807545  85.7457123  64.9860916  17.5116386
  85.3471069  64.5153122  18.8938351  76.5959091  19.0425186  66.6411285
  76.0053177  18.3018627  66.5037689  77.4632797  18.6456223  66.7209625
  41.8632431  67.6431885  63.7537041  41.6070557  67.0005951  64.4152756
  41.4445152  68.4566345  64.0351257  78.3835449   9.0206738  75.5116196
  77.6480484   8.4105330  75.4568253  78.2021790   9.5449991  76.2916336
  55.4063568  36.1380692  34.9083443  55.7085152  36.3787422  35.7841377
  54.4517517  36.1811600  34.9640808   2.0026648   2.2982802  78.6826248
   1.7202491   1.5827794  78.1129456   2.7795467   2.6549499  78.2519608
  20.9708691  59.0094414  55.5824471  21.7974854  58.7551956  55.1722107
  21.0243130  58.6536789  56.4694710  86.1314774  20.9168015  18.1455860
  85.9388809  21.7383270  18.5975094  86.8906860  20.5614891  18.6077347
  60.9766998  50.3291893  81.7022629  60.6799622  50.1492920  82.5943451
  61.5543938  49.5961952  81.4896164   6.5526738  59.6820717  75.2402344
   7.4133420  59.9341507  74.9056625   5.9323125  60.1591644  74.6890869
  44.1049500  63.5057487  86.4014359  44.9958725  63.2670746  86.6573944
  43.5431786  62.9780197  86.9690094  33.4622231  19.5432796  86.7828674
  33.3205681  18.6503754  87.0973282  33.0872383  19.5493698  85.9021988
  46.4623566  52.8103790  56.6069412  45.6440353  52.3146782  56.5775566
  46.2715149  53.5540466  57.1785812  72.4434967  17.3361778  20.7974377
  71.8751373  16.7377281  21.2822647  72.1718140  18.2085094  21.0828495
  39.0620613  51.9423065   3.4000802  38.2894936  52.5053940   3.3521018
  39.7069511  52.4609451   3.8810792  28.6702576   4.5051060  75.5435562
  27.7292633   4.6791081  75.5655365  28.7426434   3.6258965  75.1720963
  53.6190224  35.6797218  73.2615967  53.1350975  35.4980850  74.0672379
  53.2400513  35.0841713  72.6151199  65.9709320  35.0328903  37.7645874
  65.3505249  35.2877960  37.0816917  66.0824127  35.8226433  38.2938271
  79.0819855  22.3979778  27.3060665  79.1027298  23.3518543  27.2291279
  78.3382416  22.1302605  26.7662487  32.8188324  59.4100609  29.3353329
  32.1357117  59.4310379  30.0055084  33.2173615  60.2795677  29.3722496
  13.9011412  65.0125961  67.6419449  14.6095695  65.5984955  67.3753357
  13.2582912  65.0772171  66.9356842  80.0215073  43.2434807  80.3621445
  79.8961182  42.6097679  79.6557999  80.1616287  42.7074814  81.1427231
  26.6231441  32.9237061  18.3824139  26.7122154  32.2755814  17.6836777
  27.5229301  33.1188507  18.6442108   7.6437259  33.5578766   1.2930542
   7.4418607  34.4903984   1.3697966   6.8120284  33.1175804   1.4681231
  84.2272110  13.2366800  88.4285507  83.7724533  12.9530077  87.6354752
  84.7736053  12.4892960  88.6716461  49.1898079  26.7003384  16.3919716
  49.7130051  26.3240089  17.0996933  49.1327095  27.6316738  16.6054764
  38.2572899  30.4686527  18.5209446  37.7062531  30.8937225  19.1781368
  37.8787308  29.5953598  18.4195271  56.8769951  10.1663780  14.8276339
  57.4168968  10.6634264  15.4421930  56.5483360   9.4280119  15.3404989
  78.1322021  59.9048386  56.9501228  77.9557571  60.4695435  57.7025871
  78.3170013  59.0470276  57.3325386  32.0647545  62.9833984  16.0564194
  31.3659229  62.6607399  15.4874191  32.7221489  63.3319626  15.4542847
  31.9872189   3.3059871  35.1057167  31.1904202   3.0431035  35.5664062
  32.0941200   4.2323790  35.3215904  72.3729324  34.2415733  20.7449951
  71.5865402  33.7799492  20.4539242  72.3614655  35.0651932  20.2573986
   6.5890417  37.2799873  46.8060417   6.9896255  37.7323990  47.5483932
   6.0765724  36.5756798  47.2029724  75.0770416  51.4675674  51.2142525
  75.4441299  50.8514977  50.5802650  74.1400757  51.4822693  51.0190659
  86.5614471  47.7443657  59.3658981  86.0473709  48.5511246  59.3990250
  87.0080490  47.7100372  60.2118301  57.1203613  20.0115452  27.3888645
  57.0508347  20.8227081  26.8854656  57.5641861  19.4013977  26.7998199
  49.9277878  25.0318890  13.6634388  49.4179688  25.1043262  12.8565512
  49.3141289  25.2739258  14.3570309  26.9748116   4.0262523  67.7303772
  26.9561558   3.1391304  68.0894012  27.8775539   4.3175664  67.8585358
  33.1922188   1.7854812  73.9071960  33.6830368   1.2458578  73.2874069
  32.9457779   2.5624828  73.4054337  34.2036819   5.8986549  14.6367760
  33.3887405   6.0998397  15.0968056  34.8236427   6.5580788  14.9482880
  24.6639996  57.3856773  34.4505005  24.3770638  57.7161636  35.3017807
  25.5833206  57.6453857  34.3902321  22.4302883  24.6275501  80.9252930
  21.5524178  24.8269558  80.6000061  22.9118214  24.3352757  80.1513901
  69.8881607  59.6256676  74.1972427  69.5405731  60.3730698  74.6838684
  69.3928528  58.8750801  74.5251465  41.4311142  49.4684181  83.2126389
  41.2532883  49.7264633  84.1170883  40.9047241  48.6799278  83.0806198
  52.1504478  56.2325745  27.8740044  51.8308868  56.8469238  27.2131824
  51.6085815  56.4056206  28.6438522  20.6935730  71.5172043  54.5735588
  20.8975277  70.6247482  54.8531075  20.8261070  72.0499878  55.3576546
  71.5975342  44.8135223  38.8005981  71.6007690  45.2886963  39.6315231
  72.0239639  43.9800034  38.9996834   9.2165422  39.7818604  84.0147247
   8.3565378  39.6165390  84.4011078   9.1550188  39.4213028  83.1301651
  83.7904358  24.9751339  11.0502768  83.4747467  25.0529022  11.9505692
  84.5515442  25.5543671  11.0124741  14.4356432  57.2191200  24.7828331
  14.1732798  58.1274490  24.6333828  14.7103624  57.1968918  25.6994934
  77.6637192   2.9538000  78.6244125  77.8837204   2.2127538  79.1889343
  76.7700958   3.1884737  78.8746109  77.3230896  55.6962471  10.6441965
  77.2349014  56.6138573  10.9019680  78.0531311  55.3689461  11.1696939
   4.9816313  35.9628525  36.2119904   4.1499834  36.2110443  35.8082657
   5.4530382  35.4961853  35.5219002  19.4538631  62.3329201  42.6094322
  20.3466969  62.4266968  42.9415283  19.0936317  63.2193108  42.6372604
  65.5948029  68.7910843  84.5060196  64.7716675  68.9803085  84.0556030
  65.3308411  68.5346146  85.3896408  78.8661270  43.1143341  27.3873997
  79.3825836  43.8983345  27.2007141  79.4275055  42.3877182  27.1169987
  10.1238527  65.6759033  11.6300468  10.9188528  65.5621872  12.1508875
   9.6526718  64.8485336  11.7284288   6.0182319  43.3249512   7.7570567
   6.2514358  43.9118347   8.4763746   5.3005056  42.7948189   8.1035528
  42.4124489   1.2795728  65.9360352  41.6756363   1.8868703  66.0033264
  43.0941696   1.6684536  66.4839935  29.5965862  35.0622406   8.4721508
  28.6963081  35.3554649   8.3316107  29.5074024  34.2230568   8.9238644
  28.6501293  27.5294724   1.2285193  29.1837826  28.2942314   1.4443680
  27.8212547  27.8952599   0.9196537  79.9807358  13.0872593  37.9291878
  80.8463669  12.7946081  38.2142792  79.5954590  13.4894333  38.7076836
  37.3407440  21.9961910  12.2168646  36.5141869  22.3938675  11.9432011
  37.8143005  21.8415012  11.3995237   4.1437879   3.6578040  77.6666641
   4.6660552   2.9919837  77.2192841   4.2051730   4.4290137  77.1030197
  40.2382774   9.7198219  66.0405502  40.6884155  10.1376104  65.3063431
  39.3194046   9.9631577  65.9279175  84.4721985  17.7962914  81.0921860
  83.5986786  17.4123440  81.1682434  84.3386307  18.5967197  80.5845413
  56.2587738  60.7828712  56.7561569  56.2424011  60.7058182  57.7101097
  56.2704659  59.8784294  56.4429741  81.9564362  66.1378326  51.6966667
  81.1698837  65.5963211  51.6308479  82.0884628  66.4770355  50.8113747
  80.3505630  59.2109032  82.1534805  81.1529999  58.7303543  82.3569336
  79.8271637  59.1523933  82.9527740  20.1464005   7.2000928  70.2175293
  20.0018902   7.8693976  70.8863983  19.5443134   7.4336267  69.5110016
  67.6727295  61.6595459   9.0701590  68.5110474  61.8443031   8.6467037
  67.8165207  60.8364372   9.5371084  33.6229668  17.1217499  88.1148453
  34.1188393  16.3031406  88.1298065  32.7477875  16.8771744  88.4156342
  10.9590816  30.6310978  69.8563156  11.2406874  29.7184887  69.7924881
  11.0024214  30.9585209  68.9579010  15.9208498   2.4188926   2.1915386
  16.4510918   1.6679698   2.4583564  16.5460434   3.1401486   2.1197438
  75.4374619  22.0464745  37.8817787  75.8628922  22.8674240  37.6342239
  75.7875061  21.4007339  37.2680016   1.2267727  67.4540176  74.1595230
   1.7664857  67.2495270  73.3958969   0.5447518  66.7823944  74.1575699
  46.1464195  59.4907227   8.9356823  46.4570274  58.6175156   8.6963854
  46.6244698  60.0825195   8.3547573  61.4548264  65.2498169  41.2717857
  61.9992561  65.7801056  41.8536949  61.0011444  65.8877411  40.7209244
  20.2167473  58.1372871  48.0557861  20.3730583  59.0640526  47.8743858
  21.0904903  57.7671509  48.1814919  59.1843300   5.6633906  11.9430771
  59.8843498   6.2539082  11.6646948  58.3899651   6.1955314  11.8979177
  86.3679123  35.0616150  71.2075272  86.2644119  35.3996124  70.3179932
  86.0303497  35.7590523  71.7695465  21.9604778   1.9747840   3.3877234
  22.8670464   2.2641518   3.4908359  22.0095100   1.0192254   3.4148421
  63.9045334  52.6323280  15.0763531  63.0828362  52.3447075  14.6784620
  64.1014633  53.4637489  14.6448498  69.1645203  57.4515724  70.3038025
  69.7212296  57.2969170  71.0669479  69.2452698  56.6527863  69.7826004
  78.1448669  21.9288616   1.3500115  77.7138672  21.0890427   1.5086833
  77.5366745  22.4075737   0.7868332  14.5104694  38.1698952  19.8891029
  13.7605295  37.8264923  19.4034119  14.1297913  38.7918358  20.5091896
  62.0912704  29.2994633   9.8438587  62.1856651  30.2306843   9.6434870
  62.9897766  28.9801025   9.9270926  13.4893293  34.9067268  85.3467636
  13.6762886  34.2345810  84.6913986  13.0096254  35.5820503  84.8671265
  26.5354652  69.4197006  31.9691944  26.3542576  68.6696320  31.4028111
  25.6709633  69.7372894  32.2299690  28.7903328  64.3232727  75.0971756
  29.1023521  63.5673676  74.5996933  28.7116623  65.0217285  74.4473953
  25.8702850  46.5573654  43.2256813  25.0673599  46.0444336  43.1338081
  26.5752392  45.9141426  43.1512794  58.2843018  64.5121460   0.0405868
  58.9470253  64.5882263   0.7270592  57.4595528  64.7197342   0.4798251
  83.6018982  67.7875366  52.9824448  84.2426224  67.9917221  52.3012657
  83.1086655  67.0455170  52.6326485  38.1136246  33.9432297  74.0030823
  37.7358475  33.2816162  73.4236145  37.3566933  34.3765411  74.3974533
  72.4705200  51.5759048  54.1980476  71.9773331  51.6435585  55.0156174
  71.8004074  51.5597343  53.5147324  25.7763996  39.3462067  22.8079433
  25.4620094  40.0423355  23.3848286  25.3297272  39.5043640  21.9762573
  55.2942696  35.8777122  32.2663498  55.1360092  36.1266747  33.1769562
  56.1711311  36.2109756  32.0758667  24.7825336  16.0415783  86.5748367
  25.3362656  16.4239788  87.2555542  24.5246048  15.1895065  86.9265137
  44.4288979   5.8800840   0.3767051  44.5387192   5.0493250   0.8393174
  45.3143044   6.2384233   0.3144383  41.4971313  38.0256271  52.4698715
  42.1282959  37.4074974  52.8383560  40.6429214  37.6386299  52.6616745
  65.8620453   4.8190970  47.3317490  66.2468262   5.0276232  46.4804611
  65.6150284   5.6684866  47.6974716  33.9900093  61.9163628  28.6048126
  34.7594795  62.3837357  28.2796783  33.6122398  62.5033875  29.2597370
  68.2167816  43.0100174  44.9272499  67.4973297  43.2624626  44.3485527
  67.9441147  43.3113937  45.7938843  42.1934547  43.0875282  23.5845661
  42.2166519  43.9545212  23.1795788  41.8916626  42.5054207  22.8872070
  48.0457878  63.8222466  68.9968948  48.4091225  63.1158447  69.5309525
  48.3570709  63.6370392  68.1108704  65.3392944  52.3843269  31.8911991
  64.3944168  52.2329865  31.9140472  65.5641708  52.6306458  32.7884102
  40.1345863  63.4343910  69.5719681  40.6840210  63.1472359  70.3012848
  39.5249977  64.0601273  69.9632339  23.8955631  55.1457977  38.9871140
  23.1511650  54.6538086  38.6406326  24.6549339  54.7852287  38.5293159
   4.7453341  37.1902504  15.2809200   4.9293699  37.3938293  16.1979370
   4.5003839  36.2649345  15.2854910  67.9062347   7.4059906  22.0958462
  67.1272125   7.2651768  21.5577641  68.4146957   6.6011257  21.9964066
  78.6123428  68.4030380  33.3269615  79.0864944  69.2100525  33.5273361
  77.8036346  68.4679794  33.8349075  65.0423355  35.1929169  54.9167862
  65.5567322  34.8279572  55.6368027  65.4500656  34.8376389  54.1269989
  16.4457016  66.1147690  67.4480362  17.0539265  66.4020691  66.7670441
  16.9923458  66.0031357  68.2258224  49.6037903  12.2442284  29.8826637
  49.9190254  12.8743248  29.2347164  48.7308998  12.5588827  30.1178036
  37.8683929  53.5743523  56.9063988  37.9948044  54.4088402  56.4548683
  38.0024033  52.9123306  56.2281647  22.0266819  45.5609779  22.2439117
  22.9055939  45.8934593  22.0617046  21.4744892  45.9639740  21.5739040
  36.4186554  36.9644547  44.8230705  36.5726242  37.8431396  45.1701126
  35.6392136  37.0565262  44.2751427   2.3383615  26.6818485   9.1262321
   2.5098493  27.1092720   8.2871056   1.8516620  27.3329487   9.6316290
  44.4664993  14.7489357  63.3615189  44.6617317  15.4393320  62.7279015
  45.2966042  14.5965862  63.8131218  76.8609238  43.2166443  76.6091690
  76.4052353  43.7568703  75.9636154  77.5733871  42.8069153  76.1184998
  65.4880371  27.1607685   0.3879704  65.8862305  26.3528080   0.0641294
  64.5776367  26.9245720   0.5657779   8.4248524   7.9003897  87.6834641
   8.2672234   8.7658815  87.3062286   8.2988682   7.2943277  86.9533615
  21.0991974  44.7427940  29.1711578  21.3701897  45.0729561  30.0277710
  21.2217445  45.4846535  28.5788231  83.9009018  60.2192879  32.1485634
  83.0690384  59.8572464  32.4537849  84.5576248  59.5839615  32.4337082
  29.4911194  56.3764381  41.4470291  29.1104107  56.1198654  40.6071091
  29.9887257  57.1704979  41.2518730  34.7777405  15.3819504  63.3226585
  34.5912247  15.0973110  62.4279938  34.7737465  16.3379841  63.2755814
  57.4258232  36.7283249  27.9389973  57.0761337  36.2460136  27.1897793
  57.0748711  36.2710495  28.7031708  84.9367676  59.6050720  62.8933563
  85.0703278  60.5339737  63.0818634  84.7091064  59.5796013  61.9639740
  47.1946220  54.2802162  12.8065281  47.0855904  55.2265930  12.8998842
  46.4660416  54.0091171  12.2480431  74.9795990  68.4494171  50.5026398
  74.3729630  68.7075348  49.8086662  75.5280991  69.2216263  50.6407394
  60.5274010  20.8819790  72.7809601  60.8776932  21.7480545  72.5725403
  60.2606773  20.5216236  71.9352493  17.1830120  71.1238098  58.8694916
  17.8490448  71.7630463  59.1225052  16.4511356  71.2928925  59.4627876
  78.3320999  17.4565010  79.0533600  79.0038071  18.1244316  79.1908493
  77.5893326  17.9358082  78.6862106  37.1762009  58.0073929   9.0062962
  36.9688416  58.8010864   8.5130510  37.6957779  58.3156853   9.7487431
  59.4517822  57.4903831  24.2107258  58.8700485  58.1706810  24.5498619
  59.9657402  57.2145386  24.9696636  51.8089218  16.5319920  27.3982391
  52.3339691  15.8818188  27.8649635  51.6895027  17.2414246  28.0296459
  13.7103853  27.3775520  73.1986313  13.2032108  27.0162373  72.4716797
  14.5593090  27.5950871  72.8136139  30.7595787  42.1478691  79.1686401
  30.7646275  42.5800095  78.3145599  31.0085602  41.2429314  78.9806671
  68.0144730  54.4009933  32.4133568  67.7206039  53.6154671  32.8746796
  67.8541183  55.1151199  33.0302429  23.8906441  55.2654762  22.1456375
  23.5351582  55.2801514  23.0342579  23.1613903  55.5432434  21.5913219
  62.2818527  11.2354832  83.9210434  61.6577415  11.7048731  84.4745712
  63.0319633  11.0707006  84.4923706  47.5722427  13.4790792  79.2343674
  47.8562241  13.9824791  79.9973679  48.3760605  13.3202820  78.7394943
   7.4184217  58.3696251  38.8800087   7.0375233  59.1864624  39.2023773
   6.6742811  57.8805122  38.5289307  50.2867393   2.3380063  78.9689484
  50.6116180   2.5098031  78.0851135  50.1102638   1.3972878  78.9806213
  54.7701454  59.1581192  52.5722198  54.4277191  59.6638298  51.8351746
  55.7158966  59.1331367  52.4267387  23.0258331   4.7746134  67.0532913
  22.9503574   5.7236032  66.9535294  22.8776474   4.4287152  66.1731644
  18.1054897  44.3460884  72.5612793  18.7631607  43.9144516  73.1066132
  18.6113586  44.9152679  71.9813080  46.1953125  46.7822037   9.1553516
  45.9512215  46.0979233   9.7785778  45.8058968  46.5018196   8.3271179
  57.5448303  34.6301765  64.1305008  57.1214104  33.9739227  63.5770798
  57.2561302  35.4689980  63.7709694  37.0846291  52.0865746  79.6088943
  37.5531616  52.8610764  79.2976761  36.5437584  51.8191643  78.8658066
  23.2164745  45.4390907  62.6032372  22.5007019  45.0611229  63.1141586
  22.7804279  45.9631424  61.9313240  27.5842304  46.8336830  70.0251160
  27.5132923  47.6438408  70.5299454  28.2909355  46.3477364  70.4501495
  28.8298149  48.6772575  18.2388191  28.9535179  49.5968819  18.0038242
  28.6272163  48.2434158  17.4099846  40.2367096  27.7604771  77.6782684
  39.7961349  28.1340847  76.9150238  40.0301743  26.8265781  77.6407166
  83.8743210  66.0819092  81.7283478  83.4587097  66.5673752  81.0157318
  83.6250992  66.5585480  82.5201340  70.2049866  41.3087769  67.9906769
  70.3413620  42.2527771  67.9100723  70.3626022  40.9679642  67.1101990
  52.7988281  40.9361343   9.0189991  52.7311401  41.1940384   9.9383116
  52.2955589  40.1240273   8.9603882  45.5053329   1.7050136  61.4452477
  45.8003922   1.6036911  62.3501854  45.5852394   2.6427939  61.2708511
   9.6517410  33.4692535  45.2367287   9.5210218  33.4730988  44.2885056
   9.3975964  32.5877876  45.5099678  39.6063461  37.6389847   0.2849316
  39.9007072  38.3769760   0.8187424  40.4103127  37.2775612  -0.0882178
  14.6366606  52.7944794  58.8717880  14.2027473  52.6321564  59.7094078
  15.5625963  52.6243324  59.0447769  56.9749374  46.6317215  18.6555023
  56.9928246  45.6770172  18.5887718  56.0497093  46.8461990  18.7746048
  43.9400940   6.5288978  75.2211990  43.2763023   7.1227126  74.8704910
  43.6608734   6.3624082  76.1215057  26.7191105  54.6772461  81.4228668
  26.8193588  55.1983414  80.6262207  27.4823303  54.0995865  81.4288330
  38.3717842  38.9482994  73.1216736  37.8288536  39.4990349  72.5576324
  39.2226295  38.9224777  72.6839218  38.7472153  64.1297836  54.5651398
  38.9769516  64.1995163  53.6385384  39.5855331  64.0102158  55.0114098
  61.0921669  31.7006397  76.5613556  61.3455086  32.0409431  77.4194031
  61.9042587  31.3538570  76.1919250  58.8309937   5.7714157  21.2640667
  58.0098305   6.2499127  21.3779068  58.6084442   4.8624711  21.4653702
  46.5180702  49.1905136  65.5792542  45.7268829  49.3103409  65.0539932
  46.5233307  48.2579765  65.7950592  30.5711002  71.1146011  27.0427113
  30.7097740  70.3730011  27.6318016  31.1100826  71.8156281  27.4091740
  72.9965134  29.6068287  28.3436909  73.8936386  29.2743378  28.3728180
  73.0802460  30.4909992  27.9866676   2.4287512  42.9954262  24.8209133
   2.2842817  43.9375496  24.9090481   1.6736851  42.5958977  25.2527523
  58.3214455  70.1279831  66.4957047  58.1086960  70.8773499  65.9394608
  57.4869308  69.6750565  66.6168671  14.3160763   3.5594041  70.6714096
  13.9077549   3.0085487  71.3392868  13.6199179   3.7189422  70.0341187
  17.0521431  52.2456818  24.9626293  16.8662872  52.7869072  25.7299404
  17.6748562  52.7617683  24.4506569  66.8237686   7.4780545  48.4622345
  66.5816422   7.3260827  49.3757515  67.2456055   8.3372831  48.4660149
  39.8432274  50.8740959  66.4219055  39.9334602  51.2042770  65.5279999
  40.2842636  51.5278816  66.9643860  75.0502243  46.1173897  31.7632465
  75.0254059  47.0631523  31.6178169  75.8755875  45.9675331  32.2242813
  47.2167816  31.3704414  29.6375561  47.4391365  32.2986488  29.7097893
  46.4496231  31.3517456  29.0654125  17.5627213  38.2644463  64.9564972
  18.0666962  38.2331810  65.7696762  17.0300083  37.4693756  64.9741440
  84.6778793  24.5972538  58.2442055  85.2062988  23.8695755  57.9163437
  83.7897720  24.4021225  57.9451904  80.8123322  63.3153915  46.3862343
  79.8883820  63.0964813  46.2652550  80.8441086  63.7605820  47.2330093
  14.5381355  13.5944414  11.1427689  14.7655125  13.7507362  12.0593405
  15.2536793  13.9927540  10.6472120  61.1288109  27.7990704  52.6033058
  61.4082718  27.0005512  53.0510788  61.9318047  28.1526184  52.2206306
  42.1086731  70.3291321  66.9299011  41.4105110  70.0892410  66.3205948
  42.2852516  71.2507401  66.7409973  65.6559753  11.3795404  59.5940628
  64.8016129  10.9558029  59.5119553  66.0597916  11.2732887  58.7327423
  70.6305847  60.2850685  50.4154892  70.9179916  60.6005859  51.2722778
  70.6881485  59.3317604  50.4796638  42.9511833   9.6587200   6.2863450
  43.3220024   9.8749924   7.1418867  43.2162056  10.3836527   5.7202477
  52.8004265  67.1617737  87.9481964  52.3455162  66.8537521  88.7320404
  53.4431038  66.4778442  87.7599411   7.5390477  23.2950706  13.8340025
   8.0303860  22.4975853  14.0310726   6.7170858  22.9826775  13.4558220
  10.4673538  33.6120377  42.3932228  10.4849186  33.1648941  41.5470619
  11.1972237  34.2300072  42.3527565  24.6045055  65.2804489  87.6177673
  24.9392757  64.7094345  86.9263153  25.2608643  65.9728394  87.6953201
  36.1991043   3.2681644  22.0136833  35.9292564   3.1581917  21.1019173
  36.8365250   3.9818773  21.9903946  41.0197525  24.8358002  81.3076706
  40.3832016  24.6487064  80.6177139  41.0566559  24.0307751  81.8242035
  51.9780273  62.8037033   0.4635361  52.0448380  63.6712723   0.8624034
  52.8823433  62.5615120   0.2640688  46.2635498   0.9397571  80.8618088
  45.5831490   0.5134241  80.3407211  46.3198509   0.4131311  81.6591339
  78.1407700   8.4142199  71.1423111  79.0607071   8.4820929  70.8866730
  78.1532211   7.8943253  71.9459152  69.1159058   5.0633292  21.6669445
  69.1348267   4.5835981  20.8388557  69.9996414   4.9645858  22.0212002
  48.3113937  67.6713791  88.0448151  47.8935280  67.1585846  88.7366714
  47.6886368  68.3738708  87.8580017  17.0308228  59.5428238  64.6735077
  16.4027519  58.8236389  64.7408295  16.6672459  60.1159363  63.9985390
  52.7725830  30.7199593  69.5491943  52.9206161  30.9342957  68.6281204
  52.1759453  29.9717522  69.5280991  44.0780792  70.1558838  40.1121788
  44.4677315  70.0367203  40.9783211  44.5583916  69.5498581  39.5480270
  71.6410599  62.8074989  14.4126186  71.4341354  63.7398720  14.3486423
  71.2030334  62.5193443  15.2134495  52.9858398  71.2076263  14.7491198
  53.2676430  70.4835510  15.3081703  53.3916397  71.9824371  15.1379995
  53.2638092  12.9130068  -0.0684808  53.3165359  12.5329647   0.8084573
  52.3506546  12.7905703  -0.3280692  62.2028122  12.2140350  74.6605835
  62.7549744  11.6285486  74.1423645  62.3834343  11.9719915  75.5688934
  22.8883591  63.6895981  38.5288124  23.7195759  63.7044563  39.0032501
  22.2593651  64.0803833  39.1353455  44.6636887  43.7737808  17.3293037
  45.1221313  43.4907837  18.1204891  45.1395454  43.3529396  16.6132793
  16.9235287  55.1141777  51.1512756  17.4386845  54.9425011  51.9395447
  17.4412594  55.7529373  50.6611977  82.5441666  27.7897816  78.5920410
  82.7038116  28.6747532  78.9200211  83.4011383  27.3645153  78.6233673
  35.8875313  32.5947876  80.5314484  36.4251366  32.8362770  79.7771988
  35.7733154  31.6478519  80.4508133  79.3979340  25.0522518  81.4377518
  79.8113022  24.2092266  81.2515488  79.7589417  25.6465130  80.7799072
  55.9872322  27.2659283  78.3722916  55.9164314  26.4568462  78.8788528
  56.2335358  26.9774933  77.4934464  30.7224579  51.4283524  72.5705338
  31.0486240  52.3071175  72.7645035  30.0158157  51.2905083  73.2013168
  40.4904785   1.9807072  30.8940964  39.7408142   1.5611267  31.3162193
  40.4173508   1.7310214  29.9729328  61.3921165   2.0997155   4.9597206
  61.2873344   1.1532826   5.0572772  61.2141457   2.2662408   4.0340705
  48.8455772   2.7547004  62.8493958  49.4806099   2.4800360  63.5108528
  48.0733757   2.2154939  63.0202484   2.6468136  29.4370060  62.1722908
   1.9407419  29.9130726  62.6093864   2.2809718  28.5689774  62.0022316
  43.7315407  49.4613266  68.3252716  42.9675522  50.0282402  68.4309387
  44.1290321  49.4303970  69.1954880   2.9139526  64.0822449  64.1362381
   2.7547557  63.9985924  63.1960831   3.2337751  64.9776993  64.2462616
  31.3339787  12.7634535  67.3509293  30.7320232  12.0637808  67.6045837
  31.5358486  12.5844927  66.4325256  66.5447845   7.5942106  26.7966709
  66.0248337   8.3382883  26.4929752  66.7072983   7.0775385  26.0074482
   9.5369673  29.7413769  58.0798874   9.6068373  30.5371494  57.5525398
   8.5994663  29.6474838  58.2487297  82.6863861  38.2961807  70.5128098
  82.3036575  37.5931435  71.0376816  82.2070694  39.0811615  70.7779465
  46.7779579  62.7946587  10.2784863  47.1833496  62.5377502  11.1066704
  46.6719856  61.9731865   9.7987080  41.0856056  22.0339832  77.3128510
  41.2833939  22.0080185  76.3766632  41.8416901  22.4704323  77.7053757
  49.6826477  18.2285862  16.9180145  50.1146507  18.4556541  17.7414513
  48.7982674  17.9680977  17.1754017   8.8329515  48.1583176   0.9933992
   8.5866146  48.4535255   1.8699859   8.7239389  48.9321365   0.4406309
  19.5825443  37.6342773  54.0113297  19.9290562  36.8827286  54.4923058
  19.7602310  37.4332237  53.0925064  22.1784935  71.0223083  71.7281723
  22.2685394  71.8360291  71.2322083  22.0218925  71.3067245  72.6286240
  17.3828430  50.2320099  63.0572548  17.0995693  49.3198547  62.9943161
  16.7391624  50.6434517  63.6339912  41.7971382   4.5214458  24.2293606
  42.2106590   4.9394565  24.9846745  40.8786545   4.4261408  24.4814262
  85.1535873  69.7242584   2.7318385  84.7142258  70.1075974   3.4909487
  85.8796997  69.2231293   3.1031454   4.1038079  68.2736053  76.6819611
   3.6023157  68.9992065  77.0537491   4.5300245  67.8659286  77.4358597
  46.8352280  28.9346313  42.1639519  47.2945442  29.7623539  42.3058395
  47.3069534  28.5196800  41.4417877   6.6404672  57.9342308  71.0118866
   6.6555834  56.9843597  70.8946228   5.7925267  58.1118431  71.4189301
  73.9989395  18.7629890  41.7482452  73.4299850  19.3481464  41.2481270
  74.5646057  18.3588448  41.0902786  44.1831741  58.6791153  19.1814423
  43.6083870  58.9030647  18.4495277  43.5917473  58.3507843  19.8586750
  79.9125443   0.1568324  85.7072144  79.5055542   0.4991176  84.9113312
  80.8448944   0.1059052  85.4965973  23.7197781  58.4288864   2.2504134
  22.9973278  59.0280380   2.0624976  23.7610226  57.8558540   1.4847993
  21.4066830  71.0606842  74.6541214  20.4872952  70.9146957  74.4313049
  21.7852402  70.1825409  74.6964111  70.0202332  49.4770851  85.7039413
  70.0088577  48.5599098  85.4302750  69.2238770  49.5815506  86.2246552
   3.4411135  35.2941742   1.1865412   4.3977447  35.3271675   1.1868584
   3.1708040  36.1807327   1.4256693  11.9002962  10.0976830   6.3875995
  11.7450094  10.7694426   5.7236280  11.4722643  10.4351740   7.1744413
  40.6935272  39.7894859  37.4034157  41.4272194  39.1907272  37.5427475
  39.9292946  39.3105240  37.7239990  70.6158905  24.1773472  18.6893349
  70.7710953  24.3842926  19.6109200  69.8218079  24.6626167  18.4653282
  53.8001442  15.2760954  28.7612286  54.7101822  15.1383228  29.0240555
  53.4803772  14.4019585  28.5379200   9.5491266  43.2349892  27.8142624
   9.4240332  43.2632256  28.7628326   9.9264603  42.3711472  27.6480465
  84.4423447  66.9353104  59.3850212  85.3014832  66.9926529  58.9668961
  83.8216324  67.1419449  58.6862717  12.6015110  14.9581289   6.7010512
  11.7280741  14.5701027   6.6483741  13.1928253  14.2540798   6.4347935
  81.6838531  48.7632599  43.0392532  82.3728485  49.3269119  43.3911247
  80.8704758  49.1440849  43.3703346  68.3414612  51.9376183   1.0593414
  67.8996582  52.0065002   1.9056829  68.7314758  52.8008690   0.9217938
  59.7243881  19.2010345  64.8293686  59.0038223  18.6713085  64.4881897
  60.4420357  18.5793819  64.9508667  53.1658096  14.2157574  85.2551346
  53.8009911  13.6422024  85.6838684  53.2213745  15.0393066  85.7398148
   6.4754300  62.1305885  62.6045265   7.1064262  61.4264908  62.7539253
   5.8462868  62.0443459  63.3207474   1.8844919  29.1183167  56.7165031
   1.3691262  28.9475670  57.5048409   1.2777057  29.5642719  56.1255989
  69.1648102   8.8292770  33.0135269  68.7230225   9.6783123  32.9996414
  68.4571686   8.1897230  32.9332275  62.6502876  44.9381752  25.1192245
  61.9890442  44.6188889  25.7332649  62.2896004  45.7591438  24.7843342
  61.3471603  62.7298393   3.3832953  61.6907043  62.8839149   4.2633348
  62.1258011  62.6061592   2.8404756  78.8572998  46.8272591  48.0219460
  78.1777344  46.7681389  48.6934547  78.4175186  46.5670204  47.2125626
  62.4370232  69.7178421  42.7575951  62.8516502  70.4806061  42.3544731
  63.1349068  69.3080597  43.2687416  42.8249817  40.7761459  14.4579887
  42.8524437  40.1433983  13.7402763  43.1614723  40.2953377  15.2141829
  57.6929893  43.7445755   8.2423716  58.0535965  43.1704445   7.5666742
  57.9450302  44.6260452   7.9672012  58.6002502  18.5194035  25.7901764
  58.0367432  17.9864979  25.2291927  59.3634071  18.7149544  25.2465000
  18.4041271  67.2491302  46.1857262  19.3558006  67.1521378  46.1519051
  18.0725307  66.5598907  45.6101990  48.3964882  64.6599045   2.8400009
  48.7305870  63.8439217   2.4674633  49.0263100  64.8863144   3.5243227
  74.2530823  70.9383392  69.9098740  73.8433075  71.0495377  70.7677536
  74.9947052  70.3554153  70.0724411  15.4242029   7.3504968  21.8736362
  14.5078726   7.3949485  22.1467571  15.8497019   6.8209281  22.5479813
  66.7874756  65.2123337  49.6914597  66.2730865  65.3865128  48.9032364
  66.1549225  65.2689438  50.4076309  20.3778000  44.8420639  12.2425642
  20.4271011  45.5982246  12.8273897  20.6462250  44.1011467  12.7859039
  45.8917542  15.6856871  13.2859955  46.7697449  15.3535089  13.4731359
  45.9941216  16.6372566  13.2696972  38.0460892  48.1904259   8.5914536
  37.8432770  48.6259003   9.4193783  37.4236183  47.4648323   8.5437098
  28.5820427   7.9733162  63.7959824  28.9849834   7.1781220  64.1446075
  27.8122578   7.6626196  63.3194008  86.7574310  71.2362366  35.0191994
  85.9912872  71.7620239  35.2489967  86.4221039  70.3424835  34.9485207
  72.0875854  59.2159004  59.9724236  73.0099716  59.4300346  60.1123695
  71.6902313  59.2898102  60.8401070  81.7688446  11.2073460   7.1388083
  81.9850311  10.2828283   7.0173030  82.5573959  11.6757174   6.8648548
  69.0043411  10.0437298  84.8187866  69.0503311  10.6794147  84.1046295
  68.4638290   9.3335209  84.4728394  83.3929977   5.5834012  41.2056313
  83.2785187   4.6397171  41.3178253  82.7927856   5.8148847  40.4968338
  33.5465508  16.3258743   3.7580993  33.4416008  16.6161957   4.6641517
  33.9899979  17.0541248   3.3230836  79.6289978  12.5403566  47.8367004
  79.5077667  11.8977966  48.5357361  78.7471161  12.6955280  47.4984245
  44.6975021  45.1865921  11.2610731  44.0247917  44.5374489  11.4667549
  44.2633400  46.0300865  11.3885622  28.7851601  54.0056076  55.0404892
  29.0098686  53.1147995  55.3091850  29.5064125  54.5434570  55.3672104
  85.3773499  59.0304375  50.5109634  85.2620544  59.9485092  50.2658348
  84.4987335  58.6550102  50.4534111  77.4805679  10.4236078  10.8740501
  78.3245316  10.7342663  10.5462542  76.8672409  10.5987644  10.1603413
   1.7706389   7.7482266  75.8529434   2.3638186   7.4648438  75.1571960
   1.9579685   8.6805077  75.9624481   4.4143395   6.5116143  71.3343430
   4.3919353   5.6418958  71.7334900   4.2808375   6.3500218  70.4003754
  78.8703003  43.5202637  10.6211443  79.3273926  43.2888527   9.8125992
  78.7581253  44.4694710  10.5696058   8.3582754  69.4532852  63.6527901
   8.9784613  69.4416885  62.9237747   8.2199173  68.5300446  63.8642502
  23.0927086  56.9114571  24.3660889  22.2162132  56.6564445  24.6541100
  23.0803261  57.8684807  24.3797607  56.3853149  48.2216377  69.2640152
  55.5429688  48.4114151  68.8508911  56.7823792  47.5552330  68.7032318
  85.4778824   9.4312983  41.8848343  84.5896835   9.0874834  41.7892914
  86.0237808   8.8279858  41.3806114  21.1262016  28.1840973   1.4142157
  20.5484505  28.0125961   2.1578705  21.6300430  27.3767815   1.3111811
  45.9216805  52.8411217  16.5466404  45.1365013  52.3051338  16.4351006
  46.4731636  52.6169624  15.7970734  68.7211227  28.1096153  22.2088909
  68.4717865  27.7526932  23.0613403  68.4605560  27.4353561  21.5814228
  77.4557648  53.3314514  65.4675751  77.2855453  54.2174873  65.1478958
  77.7461319  53.4545593  66.3713226  13.0896511  61.3567963  27.8628674
  13.0888147  62.1945953  28.3258152  13.2599068  61.5879021  26.9497223
  44.6899300   9.9796801   9.1227064  44.5448990   9.3589725   9.8367929
  43.9724197  10.6082344   9.2022867  49.4392128  64.8558197  31.2108974
  49.2451935  65.6686478  30.7441063  49.1862221  65.0336075  32.1167793
  16.5111217  53.1551285  43.0089264  16.8445187  52.5252266  43.6479111
  15.5594749  53.1085472  43.1007500  26.9250774  23.9488926  79.2925491
  27.0226517  23.6084938  78.4032516  27.6176796  23.5162849  79.7919312
  47.4320068  62.8864326  52.0913162  47.2269745  63.8079567  52.2493973
  46.5932884  62.4920921  51.8520012  86.0355988  63.9463882  76.8645020
  86.2433701  63.7401962  75.9531555  86.7355881  63.5323830  77.3693237
  53.4857140   8.5855532  73.8757858  53.2928505   9.1112776  74.6520920
  52.6799774   8.0953827  73.7122345  42.5982628  36.7458801  88.1083679
  42.5806313  35.8094559  87.9107971  42.4019928  37.1705856  87.2733002
  61.3025055  40.3610535  30.7674809  62.1932716  40.6964493  30.8688679
  61.0668716  40.5761223  29.8650112  16.7388554  27.5562935  73.3270874
  17.3220005  28.2382183  72.9936981  17.2086124  26.7384682  73.1636200
  18.1388874  58.5449791  72.1031647  18.4704838  59.4181747  72.3124619
  17.6265373  58.2928505  72.8713837  28.9948959   2.8392746   6.1595845
  29.0725842   3.6641359   6.6389594  29.7809925   2.8040411   5.6145663
  38.8123550  37.2354202  52.8883018  37.9460983  37.4314957  53.2452087
  39.1114273  36.4763222  53.3888588  75.0675201   1.8666351  50.6676903
  75.2919006   2.7009888  50.2556992  74.1868134   2.0014679  51.0175552
  68.1847229  38.8373909  71.1759644  69.0476456  38.4269485  71.1200409
  67.6004715  38.1303215  71.4497070  15.7475643  22.6867199  84.5787277
  15.0574417  23.0735779  85.1175232  16.2663364  22.1658039  85.1917114
  49.5558853  58.3709641  88.3218918  50.2570076  58.8140488  88.7997360
  49.8155899  57.4496918  88.3153152  36.2802162  43.1040230  33.9290581
  35.8511162  42.7879105  33.1339607  35.7214165  43.8184547  34.2349319
  20.8621292  70.8453369  19.3398991  20.6001415  70.2137146  18.6700840
  21.4284115  71.4634399  18.8778305  70.0487976  57.8969345  51.1808777
  69.2234573  57.4171295  51.1113434  70.1042023  58.1457367  52.1035156
  77.0468216  27.5545273  37.0758018  77.1990891  27.6728516  36.1382294
  77.9200363  27.5883732  37.4664154  31.4285355  25.8517628  64.3055496
  31.6074448  24.9247818  64.1476593  30.6952438  25.8527660  64.9207840
  72.3986435  22.9596844  75.8196945  72.6147614  23.5478611  76.5432739
  72.8625412  23.3257904  75.0666962  84.1071167  16.2776871   0.5361371
  84.4754028  15.4073009   0.6878912  83.1925354  16.2015285   0.8081128
  24.7392445  49.3318481  77.7310562  24.1642303  49.5447922  76.9960403
  24.1422424  49.1289253  78.4512177  34.1412277  46.0025139  28.6104851
  33.2646942  46.3839836  28.6595383  34.1338768  45.4884529  27.8030720
  67.8564529  22.7514057  27.5240841  68.2843094  21.9136963  27.3468380
  68.4247437  23.1799068  28.1641331  40.3884201  51.4289894  29.9442463
  40.5155258  50.6108017  30.4244976  41.2533836  51.8388748  29.9362507
   1.3542789  38.4734154  58.3957214   0.8668520  39.2758408  58.2092857
   1.2453220  38.3402977  59.3373375  60.1520309  59.1292572  81.0849228
  60.0331650  60.0787430  81.0607910  60.4906387  58.9525032  81.9626083
  60.1094131  10.9205809  50.2965736  59.7633438  10.4683552  51.0659637
  59.6701088  11.7710075  50.3008575  42.2043304   3.1113353  87.7186508
  41.9716187   2.3215964  87.2304001  41.5601921   3.7628403  87.4414215
  21.5336380  37.7477036  44.6030998  22.2799911  37.2381363  44.2876167
  21.4777012  38.4890022  44.0001259   4.0174365  35.3438911  71.3698883
   3.4386237  34.6975021  71.7741013   3.6244349  35.5153198  70.5140839
  15.9193087  63.9510345  42.7710915  16.7805634  64.3313293  42.9438629
  15.4049101  64.1587677  43.5511398  63.2758904  50.3702698  29.4562359
  63.1388397  51.0113029  30.1537476  64.2157593  50.1902161  29.4776936
   8.4559889  26.9336910  77.6759415   7.7640977  26.4213009  78.0942383
   8.0245237  27.3585377  76.9346085  22.5519543  42.3088417  16.6077518
  23.4625626  42.5075264  16.8258038  22.6016197  41.8440323  15.7724571
   3.7259917  27.4504089  55.9124794   3.6738071  26.6699581  56.4642067
   3.1143851  28.0682373  56.3130531   4.9497681  53.4716873  33.3753967
   5.2025824  54.3624878  33.1329308   5.5779543  52.9118462  32.9191170
  21.6553249   2.0186615  61.9357338  21.9311485   1.1029884  61.8945656
  21.4296303   2.1597109  62.8551903  83.9906311  45.8640404  47.8915062
  83.0419235  45.8721619  48.0184555  84.3353806  45.4599838  48.6878204
  25.7296963  40.7095108  46.3658485  26.5791340  40.3665695  46.6434822
  25.4835644  41.3263893  47.0551338  11.3780718  42.6608543  59.0985260
  11.0341034  43.5016975  59.4000168  10.7178850  42.3380508  58.4851913
  74.5851898  54.7507858  50.2568054  74.2162628  54.8753281  51.1312294
  75.0794220  55.5531349  50.0888634  83.9916000  52.7561913  28.1644096
  84.0667191  53.1339340  27.2881126  83.6707764  53.4753723  28.7085476
  54.4601822  43.1354065  67.1921310  54.0106964  43.9651985  67.3522568
  54.2497444  42.5977936  67.9556198  32.5457497  49.6106682  73.2126846
  32.1485176  48.7429237  73.1388016  31.8605270  50.2131767  72.9234009
  40.1138649   0.1134760  62.5666351  39.5037041  -0.2101162  61.9038963
  40.8535538   0.4555269  62.0645485  76.0562286  68.2348557  34.5423393
  76.3697586  68.2715912  35.4459877  75.9707031  67.2998123  34.3563156
  61.5009880  37.0157166  11.3945084  61.0954552  37.8533974  11.1707611
  60.7656631  36.4089279  11.4801702  77.3310471  39.3226700   1.2281508
  78.2466354  39.3941383   1.4980050  76.8915558  38.9190788   1.9766139
  20.8167534  61.6443939  87.9051132  21.3267231  62.4388199  87.7468491
  21.0260468  61.4011116  88.8069153   4.7389202  43.5019417  71.3608398
   3.9482651  42.9639854  71.3196411   4.4443269  44.3324661  71.7345810
  61.0925369   4.0864401  56.0134621  60.5829124   4.0302610  56.8217659
  61.8433380   3.5119095  56.1632690  84.4563217  48.8479996  89.1722412
  84.9942627  48.1409378  89.5284958  84.6451263  48.8430824  88.2338562
  45.9745178   2.8336916  87.0642548  46.6399269   3.4575009  87.3546448
  45.4754677   2.6302564  87.8553314   9.5605087  64.7232513   0.5791111
   9.4145622  63.8635178   0.9738063   8.6811132  65.0672150   0.4223025
  15.0567694  69.7123718  57.9773102  14.5883026  70.2714157  58.5971794
  15.9186697  69.5849991  58.3737144   4.3357878  52.8723984  77.7988815
   4.3754840  53.2794838  78.6642914   4.5539136  53.5792809  77.1914520
  84.4823303  35.0777855  41.8627815  83.6769028  34.9774933  42.3701973
  84.4125824  35.9489899  41.4724426  16.9137173   4.4067173  83.0628281
  16.7340775   5.3444300  83.1310654  16.1019669   4.0315657  82.7214203
  18.6359348  50.3094711  12.3522787  18.2194405  50.6522827  13.1430025
  19.5722103  50.3197250  12.5510550  72.8161545   3.5691192  33.7842636
  72.0628586   3.8332260  34.3124962  72.7116394   2.6240880  33.6737022
   7.6861167  63.9665108  54.1570244   8.0121088  63.3787460  53.4754868
   7.3432207  63.3822556  54.8332634  74.7875748  45.1946220  47.2050972
  74.5244980  44.5677338  46.5312767  74.5522156  44.7715416  48.0308342
  85.2624359  31.6809711  18.4250031  85.2681732  30.7786484  18.1056118
  85.6402588  31.6267414  19.3028069  49.6352882  62.5885811  26.8836880
  49.3519936  62.4627228  27.7893028  50.5869637  62.6743431  26.9401569
  79.4397583  36.7474556  52.8043900  80.3814240  36.8251190  52.9576035
  79.0405502  37.2824898  53.4903946  85.7142029   1.4286432  85.7340622
  85.0422134   0.9255563  86.1940308  85.2540817   1.8201114  84.9915848
  27.2108860  46.8501587  83.4994431  27.6870766  47.5452881  83.9536133
  26.4784756  46.6428795  84.0798187  35.3646202  66.7318420  81.3607407
  35.3483849  67.6773300  81.2123566  36.2724037  66.4786606  81.1932373
  31.3054352  18.4182320   6.5127583  31.0380478  19.2760391   6.1827569
  30.6513691  17.8127899   6.1636577  50.7357483  53.2271042  61.2419128
  50.8978233  52.3370438  61.5545692  50.7668037  53.7676239  62.0312805
   8.9276075  61.0859184   7.2986465   8.6892033  60.9360428   6.3838062
   9.8737164  61.2298965   7.2791076  57.1263466  53.5608368  58.7054672
  56.2059212  53.7744331  58.5523949  57.1677895  52.6079788  58.6243782
  52.3660049  66.0841293   1.4501311  51.7595253  66.5990753   1.9823327
  53.0448685  65.8039703   2.0640433  71.0637665   5.1479750  70.8547211
  71.1277008   5.9826522  71.3188934  71.0232697   4.4902978  71.5490189
  23.4164162   4.1932802  64.4189224  23.7949677   3.3636820  64.1278915
  22.5613060   4.2297916  63.9903374  67.0561905  30.3370342  13.0716324
  66.2192535  30.7885056  13.1808968  67.4053192  30.2615108  13.9596863
   5.9509749  14.3663130   2.1108854   5.1157269  14.8203230   1.9992282
   6.1377058  14.4351397   3.0471687  82.9630890  37.9063301  63.8844566
  82.6766281  38.6792831  64.3709946  82.6736526  38.0677109  62.9864502
  58.2577896  57.4135170   6.1911263  59.1487083  57.7466049   6.2986012
  57.9779282  57.1875648   7.0781746  82.7590485   1.7262684  38.2062149
  82.0222626   2.3286901  38.3085251  82.4508514   1.0759540  37.5750732
   3.9211168   4.2653971  52.8951111   3.1215811   4.3882322  53.4068565
   4.0637579   3.3188870  52.8971634  82.1077194  33.2914085  66.4673691
  82.9758606  33.5133438  66.1307602  81.5083466  33.8467255  65.9687653
  66.3106079  28.8139210  73.3039780  67.2119446  28.6433353  73.5773392
  66.3943329  29.2111988  72.4371490  19.8332481  46.4926796  54.1683273
  19.9167500  46.7421989  55.0886536  20.0641747  47.2850151  53.6834488
  72.4340744  26.0148964  32.7589645  73.3080292  26.4027233  32.8039017
  71.8558578  26.7502556  32.5561295  64.3386002  40.0153198  69.9193115
  64.9946289  40.6590309  70.1867142  63.5268021  40.5171013  69.8456345
  39.3157768  49.5381432  56.8198891  38.7934723  49.8718910  57.5493011
  40.0888062  49.1549797  57.2344360  43.4254189  38.7570267  85.7413101
  43.2229576  39.4597816  85.1237564  44.0941162  38.2344322  85.2986221
  45.9405632  70.1867752  73.8785934  45.5410271  69.3303070  74.0304947
  45.3503990  70.8059616  74.3081741  54.2449532  17.3205585  34.5076752
  54.8574486  17.6567898  35.1619148  53.5938759  18.0153484  34.4097137
  69.5429459  38.6058044  88.8692322  70.1180649  38.2609100  89.5522537
  70.0278549  38.4677734  88.0555725  80.1380844  34.5952606  77.6270828
  80.1029510  33.6938629  77.9472198  79.6439896  35.0986595  78.2741470
  50.7490349  48.9744453  80.4276199  50.0437813  49.5344620  80.1032333
  51.4339485  49.0422821  79.7623901  14.8919849  67.8650894  23.4207325
  15.6811705  67.5950241  23.8902893  14.3259602  68.2364883  24.0974197
  63.3867302  63.1452980  42.5278549  63.7112350  62.3602715  42.0866508
  63.2765808  63.7864418  41.8256874  80.9608841  36.4145622  75.7529755
  80.8507462  35.9688301  74.9130783  80.7545471  35.7470436  76.4072418
   2.3899622  56.4229660  28.7061005   1.6625977  57.0298424  28.5687103
   2.3871827  56.2552109  29.6484814  56.4710655  46.5819778   0.7771971
  57.3847885  46.3217735   0.8939641  55.9916267  46.0727310   1.4306771
  67.2548294   1.5093237  32.2063103  67.9795532   1.7989694  31.6521320
  66.4692612   1.8126731  31.7512321  12.7822971   9.5915270  78.3542938
  12.0788145  10.2155952  78.1757355  13.0025940   9.7358017  79.2745590
  24.4676247  11.6407661  31.5012836  24.5479431  12.3315172  32.1590385
  24.8762016  12.0078449  30.7173500  24.3749371  50.5998650  85.9465103
  24.6959438  50.6302795  85.0452499  24.8279629  49.8525391  86.3370209
  55.6590271   2.9361012  31.4137230  56.4256325   2.5390332  31.0003395
  55.3079109   2.2476282  31.9784813  42.1847382  44.8792267  84.4188690
  41.2891159  44.5435829  84.4567337  42.2301369  45.3470650  83.5850220
  69.1720352  47.1837082  21.4727402  68.2881546  47.0088577  21.1495991
  69.2412567  46.6644135  22.2738495  51.7750473  35.6469269  23.8780422
  50.9537430  35.4807434  24.3407269  52.4312401  35.7145691  24.5716343
  42.2281342   7.0951009   2.7564399  41.7546196   6.4792919   2.1971583
  42.1662941   7.9324222   2.2967649  43.0577850  44.3211632  25.8283768
  42.6707687  44.0752640  24.9881477  42.6865578  43.6992722  26.4542198
  29.2795296  56.0051155  50.0995445  29.4555378  55.3094215  49.4660950
  28.9180984  55.5504494  50.8603859  59.1815453   8.0794849  46.7372704
  59.2128029   7.1286178  46.6318779  59.6189919   8.2423487  47.5729408
  76.5683594   1.0284621  53.0031776  76.0674057   1.3242177  52.2430382
  76.8817749   1.8351704  53.4121094  61.6837425  68.4125137  11.9530478
  60.8825684  68.9291992  11.8671026  62.2768898  68.9719467  12.4544907
  66.3301697  24.4033833   0.2347675  65.7263870  23.7102203   0.5015978
  67.1535339  24.1849918   0.6713508  64.7838974  60.7806206  86.2537918
  64.5127487  59.8890190  86.0352707  64.1604767  61.3406982  85.7913132
  38.3813972  67.2455978  75.9042130  38.0440483  66.5511398  75.3383865
  39.2895279  67.3620834  75.6249924  55.8630524  55.8707047  72.7374725
  55.7180367  55.7384987  71.8006058  56.5858803  55.2815437  72.9534378
  23.9917240  41.7824898  69.5141449  24.8713779  41.8974876  69.1546783
  24.1019421  41.1417236  70.2166443  53.2620316  66.1208649  58.4980240
  52.8914070  66.3104935  57.6361008  52.5196648  65.8065033  59.0140648
  56.3702621  24.3874493  77.8294144  56.0526810  24.3653927  76.9267044
  57.3140755  24.5246124  77.7479858  19.2517395  51.2207832  51.1854935
  18.3731251  50.8545341  51.2861214  19.2206707  51.6926193  50.3532410
  50.0127983  38.8304863  58.3619232  50.4028549  39.6931000  58.2205391
  49.0890045  39.0109520  58.5359039  31.9679203  28.6048374  12.1328554
  32.5797577  28.3591957  12.8267927  32.4040337  28.3381920  11.3235741
  61.2253685  69.2079391  56.6922874  62.1420860  68.9844742  56.8532944
  60.9997063  69.8155975  57.3965988  85.9874344  66.2555923  23.8089581
  86.6840057  65.7356262  24.2097759  86.3788376  66.6030579  23.0075207
  77.5529327   7.7274141  20.4332294  77.8144684   6.9250946  19.9814396
  78.0560379   7.7186422  21.2475014  80.5262680  37.4926949  33.7151909
  81.2298279  37.9260521  34.1983414  80.7182159  37.6771126  32.7957497
  79.4693832  12.9913425  35.1265106  79.4595184  13.1031303  36.0771065
  79.3911209  13.8801823  34.7799988  13.9625578  65.6003036   7.9768786
  14.7914114  65.1856232   8.2161884  14.1829376  66.1670303   7.2376318
  41.6391258  31.6766052  71.6004791  41.1152687  32.4316444  71.8682861
  42.1161919  31.9781761  70.8273697  50.1575050  67.2063828  36.8703003
  49.2620773  67.3021240  36.5458374  50.6456146  66.8543320  36.1259613
  25.3467464  41.4243469  84.4795761  24.8022556  41.3191872  85.2597733
  24.9486618  40.8450470  83.8298264  44.0107689  17.0210171  16.1500130
  44.1986580  16.4607220  16.9030056  44.7553673  17.6209183  16.1061325
  60.7687149  10.9144640  86.2508621  61.0105782  10.0187778  86.0153198
  60.2501030  10.8202648  87.0498657  80.9211655  20.4942074  12.6805019
  80.9806519  19.9337349  13.4541712  80.1701202  21.0619507  12.8532143
  59.8560677  36.0922852  23.1207790  59.3694572  36.8990707  23.2897129
  59.7059326  35.9118729  22.1928024  68.6962662  56.7841072   5.7173777
  68.8030853  57.2047615   6.5705304  67.8384552  57.0782738   5.4110184
  21.7891293  64.9524155  53.0959549  22.2134819  64.1180344  53.2958717
  20.9460335  64.7070847  52.7148590  27.8051128  18.2422199  65.5848541
  28.7594624  18.1851311  65.5380707  27.6352272  18.7901707  66.3510895
  27.8742161  61.4903183   9.7869005  28.2609310  62.3601990   9.6869535
  26.9608955  61.6593666  10.0181952  62.7470398  35.7051811  72.1558914
  62.8434830  36.6366463  71.9576340  62.3521233  35.6854782  73.0276031
  37.4066200  53.2220688  31.2256489  37.3005219  52.5018806  30.6041145
  36.6777649  53.8124771  31.0348072  46.3713989  33.5497169   9.9550867
  47.1574173  34.0828857   9.8361530  45.9593277  33.9030800  10.7434797
  50.0760002  28.6732559  37.1426811  50.2892952  29.3485985  36.4987488
  49.5564575  28.0335732  36.6557350  78.2806854  11.9975719  65.2617340
  78.9832077  11.3475742  65.2757111  77.4820404  11.4844599  65.1387787
  84.7101517  56.8907394  72.3543015  85.4376526  57.3929710  71.9872360
  85.1295013  56.2270508  72.9019241  28.8364067  34.6354179  81.4309769
  28.4290218  34.5409470  80.5699692  29.6829243  35.0447350  81.2518158
  66.4454193  56.0705986  70.6642303  67.3565445  56.2822113  70.8674698
  66.0240555  56.9210014  70.5397415  35.8333740  61.2474174  35.6008301
  36.5711517  61.2914772  34.9925766  35.0951614  60.9633751  35.0617638
  76.2987061  45.6139793  34.7664185  76.4977722  46.2698135  35.4346161
  76.7286072  44.8172302  35.0772438  86.7458878  37.4041939  33.7604485
  86.8647766  37.2996140  34.7044601  86.0464706  36.7898750  33.5376167
  45.4771538  33.2511711  81.9775620  45.7794456  34.1503372  82.1054382
  45.9236221  32.7491379  82.6593704  65.0741730  24.6819439  22.9209671
  65.3669434  25.0411053  22.0833988  64.2179642  25.0839214  23.0677776
  65.4943390  63.9277878   0.6180604  65.5145111  63.8917580  -0.3382486
  65.5736008  63.0146179   0.8938711  78.3752899  31.8103886  63.3016968
  78.1793594  31.3842068  62.4673042  79.0550156  31.2638283  63.6960106
  48.2250557  15.8664331  80.4585419  48.2635880  16.3543453  79.6359329
  47.2913361  15.8146973  80.6628189  52.2766342  27.6220875  59.1951370
  51.8658028  27.6348534  58.3306808  53.2073479  27.7612419  59.0200768
  32.6732025   1.1306385  14.7296829  31.9371929   1.3768901  14.1694298
  32.2747154   0.9412214  15.5791311  34.9879379  67.3362045  67.6309357
  35.8064842  66.8815231  67.8296127  34.9307213  67.3199768  66.6755829
  37.7965317   2.0833418  60.2956429  38.2238541   1.3033516  60.6495361
  37.2997208   1.7634230  59.5426064   1.1114343  35.6506004  80.7926559
   2.0568006  35.6904831  80.9373093   0.9412296  34.7347183  80.5726089
  79.8349533   4.0174212   8.9096403  79.5163422   4.8434577   9.2734814
  80.7884521   4.0994158   8.9283533  26.5355110  55.9741783  61.9917641
  26.9146233  55.5313187  62.7509613  26.9643898  55.5678864  61.2386208
  78.2056274  54.2996750  83.8359833  77.6258774  54.5534630  84.5541153
  78.8111572  55.0354652  83.7455521   0.2263517  62.9256783  84.8417206
   0.3156717  62.6336937  85.7489090   0.2435798  63.8812447  84.8948593
   2.4830649   8.2110920  59.8572922   2.6636343   9.0093317  59.3608665
   2.2793682   8.5191545  60.7403755  59.1815338  16.2034950  50.3497658
  58.3074036  16.5165138  50.1170578  59.2588120  16.3834400  51.2867165
   2.8714743   6.4562769  12.2349319   3.2351379   6.3486857  13.1137981
   2.1700952   7.0986433  12.3429337  84.1571274  23.3868351  79.2861557
  84.1694107  22.7057304  79.9585953  83.2578201  23.7146091  79.2936478
  39.4412956  53.3731956  40.3829384  38.6185112  53.4174652  40.8700676
  39.4306526  54.1499825  39.8237267  57.2430496  19.1820164  86.1230469
  57.7681961  18.4686604  85.7603149  56.4755325  18.7486000  86.4962692
  77.5132217  71.0757980  58.8979492  76.6725006  71.3968048  58.5718155
  78.1117477  71.8141708  58.7847862  86.2599716  62.4495430  28.3799610
  85.6883316  62.4674911  29.1475124  86.2248840  61.5424500  28.0763435
  85.3672485  34.5632362  18.5606174  85.4983597  33.6290169  18.7227077
  85.7592239  34.9953194  19.3194923  79.9257812  54.4948959  57.8548965
  79.0077362  54.7467651  57.7549934  80.4121017  55.1689529  57.3801651
  86.4737854  60.6533470  44.8862801  86.0833054  61.5004196  44.6712761
  85.7263489  60.0864372  45.0765114   9.1069355  24.3061047  77.6581955
   8.4611979  23.9429245  77.0521011   9.1610451  25.2325497  77.4236679
  73.4834213  13.6353626  42.8299484  74.1977997  14.1812963  42.5015335
  72.8690186  13.5791445  42.0981140  61.0271339  44.0228500  53.1446571
  60.9768524  44.4944229  53.9761162  61.6906433  43.3487206  53.2913895
  30.6905499  55.7819328  56.2360802  31.3695793  55.4680138  56.8332443
  29.9335690  55.9451561  56.7987213  12.4615097  55.3536148  21.8702183
  13.4048653  55.3697472  21.7088127  12.1425123  54.6145210  21.3523273
  27.3401165  64.6466141  82.0140839  27.5440140  64.4098511  82.9188461
  26.7302437  63.9695778  81.7209625   1.1213528   9.0114641  22.1133709
   1.1076933   9.5245781  22.9213066   1.8193996   8.3705883  22.2484264
  42.6633759  36.7896919  71.2928391  42.9875145  36.2019844  71.9753113
  42.6023064  36.2393875  70.5120316  43.2074776   6.3072329  21.5131645
  44.0129585   6.4448905  22.0116444  42.5070457   6.4038401  22.1583767
  60.0883102  20.5983543  55.7085152  59.4817085  21.0884438  56.2635651
  60.1372833  19.7324562  56.1135521  71.3028488  45.0632668  52.1516724
  70.5701141  44.6875572  52.6396980  71.5475082  45.8432312  52.6496964
  19.7166691  41.1531372  51.7490692  20.3281956  41.8865852  51.6833038
  19.7520466  40.8936119  52.6697350  10.7985659  63.1789017  72.6714783
  10.2414885  63.3162270  73.4376602  10.7182474  63.9893837  72.1685867
  55.8078423  18.5719910  21.1698341  56.3420830  19.3628464  21.2430706
  56.4003029  17.9158726  20.8027744  51.7609596  20.0690536  82.2534103
  51.2966919  20.8960915  82.3826141  52.3369026  20.2318611  81.5064087
  66.1313400  11.1077480  74.0751801  66.4807968  11.9156122  74.4512939
  65.6554184  10.6944542  74.7955475  26.5716476  67.6166000  38.7990799
  27.4699936  67.6058197  38.4687881  26.5396690  68.3755798  39.3814507
  24.6070957  19.9427414  81.9046326  25.1374073  19.2047653  81.6039810
  24.2472019  20.3215275  81.1026230  53.0104065   4.6840992  69.6191711
  52.4985466   5.4806008  69.7599411  52.9269371   4.1976771  70.4393311
  19.6744328  35.2340164  70.1784897  20.0525112  36.1128693  70.1483536
  18.8364296  35.3180618  69.7236023  84.1580811  46.2620239  13.1720057
  83.8684540  45.3568459  13.0579987  84.4472046  46.5325508  12.3005390
  74.9348755  20.9018288  55.3586998  74.4235916  20.3428173  54.7736168
  74.4301529  20.9226093  56.1717529  74.3536224  11.5382433  10.8385715
  74.5091095  12.1464548  11.5611591  73.7606659  10.8807335  11.2023258
  34.1847153  69.0584869  76.4040985  34.0130882  69.1695862  75.4689865
  35.1323051  68.9356384  76.4607544  28.9912796  38.7278862  31.6945801
  28.4088116  38.1641121  31.1855412  28.9919586  38.3426552  32.5708389
   3.2819438  66.5518951  62.4639702   3.3758485  67.5027542  62.4066887
   4.1701269  66.2326889  62.6235542  22.4546223   8.1359234  81.4491272
  22.7783127   8.9995928  81.1931381  22.4937077   7.6175895  80.6453629
  84.1169586   5.7917509  17.4849701  83.6272354   5.3656635  16.7815113
  84.6659470   5.0973940  17.8492622  42.6206551  14.6614914   7.9155025
  41.7232590  14.9037552   8.1440210  42.6522865  14.7322464   6.9614453
  11.7127762  64.2997513  46.4849701  11.2754135  64.4333649  47.3258553
  11.1730804  64.7781448  45.8556061  58.2500229  64.4985504  20.3868446
  57.2973175  64.5811768  20.4287300  58.4126854  64.0077667  19.5812988
  10.7755165  18.6232090  10.8924971  10.3651237  19.4361324  10.5975971
  10.6620607  18.6286983  11.8429337  14.7822590  68.9418488  82.8912506
  14.7070360  69.3699722  82.0384445  14.8563375  69.6634369  83.5157928
  74.4967880   0.8819251  76.7800369  74.1869965   0.0880374  76.3441391
  74.4742050   0.6674692  77.7126312  52.6887741   5.6866159  87.9482422
  51.8356323   5.7511191  87.5190277  52.5621796   5.0327482  88.6357422
  34.6999702   1.9242746  69.5324478  35.4260330   2.4905634  69.2709427
  34.8445091   1.1108667  69.0490112  50.9475136  38.0091209  22.8377647
  51.2908287  37.6668854  22.0123901  51.1002769  37.3070259  23.4701900
  83.7468643  63.2477875   6.8888550  84.5999985  63.6134872   7.1226530
  83.5242920  62.6722832   7.6206250  68.9533768   3.8671823  19.3607006
  68.8113022   4.6613264  18.8455486  69.2670975   3.2229383  18.7260647
  10.4812927   8.0931911  81.6063156   9.9670124   8.3609200  82.3679352
   9.9783659   8.4078083  80.8551025  34.6504402   3.1237817  15.4893188
  34.1893387   2.6589117  14.7910995  34.5114288   4.0501933  15.2926760
  45.9676895  67.5411682  57.6493950  45.9255905  68.3339233  58.1841888
  46.0235977  67.8621216  56.7493439  12.0255432  35.7378540  79.5046234
  11.7088394  35.3188782  78.7043839  12.2757416  36.6200790  79.2301941
  84.1934891  59.2075920  84.2058487  83.5508499  58.5579796  83.9208145
  84.0013733  59.9823570  83.6775818  40.6172905  70.7485046  87.5864105
  40.9200630  69.8408203  87.5606842  41.3080368  71.2182465  88.0537872
  77.2163162   7.4410853  51.6393967  77.2648468   8.2056541  51.0655403
  76.5613708   7.6761374  52.2966843  31.8695183  58.1681557  82.3546219
  32.2999001  58.8279381  81.8108444  31.1969833  58.6533585  82.8326492
  75.0842133   0.9786201  58.2128868  74.5391388   0.8513433  58.9893723
  74.4687958   1.2425196  57.5288849  58.6326599  15.5041895  55.5939560
  59.1101952  14.8052359  55.1471252  57.9164619  15.7238064  54.9980888
  46.6987381  62.7788734  86.5784760  47.1551933  63.0115891  87.3870087
  47.2371788  62.0897789  86.1892929  32.1730003  54.5249138  76.9274826
  31.4059143  54.1920242  77.3933105  32.8069153  54.7190247  77.6179199
  54.7229385  19.7316742  11.9692078  55.5593452  20.1748123  12.1116238
  54.2365150  19.8713055  12.7816906   2.3766460  52.5718994  37.7092247
   3.1728954  52.4108582  37.2029800   2.2262299  53.5135345  37.6259613
  46.1503487  40.6835327  69.7117081  46.7563896  40.5068092  70.4312286
  46.4099808  40.0706062  69.0238495  85.3958893  14.3992548  16.8270645
  86.1638107  14.4604549  17.3952103  85.0808792  15.3000364  16.7522888
   0.1584017  40.1565552  32.9743271   0.8216506  40.4015198  33.6195602
  -0.0656575  39.2519493  33.1927681  50.3203049   0.3721547  67.7978134
  50.4793053   1.2359143  68.1784363  50.2793465  -0.2174973  68.5507202
  80.0330887  19.9367275  58.9441261  80.2925034  20.0245762  58.0269470
  79.8192520  20.8283272  59.2190056  85.7683563   7.7910171  75.6393585
  86.6465759   7.5651164  75.9458389  85.5041351   8.5272226  76.1911011
  25.9290524  16.4221706  67.9410324  26.5817966  17.0082817  67.5581055
  26.0655918  15.5868721  67.4939651  40.5866203  66.5514145  81.9408875
  40.8699837  66.3135834  81.0580673  41.3903809  66.5437164  82.4606400
   1.5474110  16.9789906  72.3564682   2.3523977  16.5312176  72.0962219
   1.8292831  17.8646069  72.5855179  70.6281433   8.0838528   7.5261140
  70.6474380   7.8694282   6.5934396  69.9094925   7.5584383   7.8778505
  63.9911804  37.4436607  75.3088379  64.1792450  38.3816681  75.2770920
  63.0417938  37.3859520  75.2013016   9.8166609  51.0005417  44.1822090
   9.5403042  51.4677696  43.3938217   9.0957937  51.1251068  44.7995148
  59.2643814  57.8724899  21.2975693  59.5805397  57.7021713  22.1848488
  59.8318329  57.3447495  20.7356815  65.9326401  17.6393223  45.9186172
  65.3234634  18.3062115  45.6017532  66.2585526  17.2159061  45.1244316
  52.3013802  31.4494896  74.7300262  53.1311340  31.2859001  74.2817230
  51.7637787  30.6843643  74.5255890  65.2159348  33.7060165  24.8226948
  65.9436951  33.5307274  25.4192467  65.6153107  33.7115936  23.9528103
  70.6211777  35.7343864  76.4446945  70.1309586  35.1006699  75.9209366
  70.3245544  35.5838089  77.3422318  28.8053684  41.9696159   6.1518612
  29.3434029  42.1018486   6.9324145  27.9086151  41.9256439   6.4837255
  28.0179195  61.4849052  12.6866131  28.1674442  60.7762299  12.0607901
  27.4008751  61.1187286  13.3201761   7.5270438  62.1015434   4.7814732
   7.5673718  62.0983162   3.8251288   8.2266321  62.6977005   5.0486889
  10.0107021  70.9335480  37.2156410  10.0521765  71.7563934  36.7283669
   9.1623745  70.5580673  36.9798737  61.4053497  49.7246437  69.8310013
  61.2236710  49.1768341  70.5946274  60.8022423  50.4629593  69.9169312
  47.3790779   7.0038166  64.8719635  46.5680046   7.0096936  64.3636780
  48.0202179   6.5885496  64.2951431  16.9696922  56.6189919  57.5573921
  17.1122398  55.7008438  57.3273468  17.8379803  57.0177994  57.5003052
  62.9929504  68.7100830  60.1141472  63.7250862  69.2681198  59.8518410
  62.2292404  69.1022491  59.6908417   0.4061079  43.5846443   7.0366936
   1.3404571  43.5638084   6.8298378   0.1288359  44.4705963   6.8033671
  70.3834305  47.2707367  15.4626942  69.6396866  46.8230133  15.8659554
  71.1388626  46.7252808  15.6818533  70.7414627  14.6483526  18.8971634
  71.2241058  15.4737749  18.8528805  71.0433350  14.1532326  18.1356125
  45.6797371  68.2531052  41.7596283  45.0162010  67.5719910  41.8693237
  46.5003891  67.8312225  42.0141487  25.8725357   5.1455107  16.3522930
  25.5514069   4.2458830  16.4137554  26.0000229   5.4169455  17.2613049
  34.8023605  53.3761330  24.0375347  34.7743683  54.2447357  23.6363125
  33.9197578  53.0267906  23.9142189  65.0296936   8.0227985   5.9681511
  65.6022415   7.8958569   5.2116408  64.7429428   7.1400857   6.2022996
  86.5828552  43.2708588  41.9339867  85.6617126  43.2085419  42.1866493
  86.9053040  44.0462189  42.3934174  43.5514755  10.8476429  70.4395905
  44.4317970  11.0877743  70.1504517  43.6625252   9.9969330  70.8640823
  78.0451431  36.0504761  45.2909050  78.6485291  36.3281822  44.6016769
  77.4889450  35.3936844  44.8719749  79.7508011  69.9959869   2.0204289
  79.3696136  70.0756454   2.8948350  80.6741943  70.2176437   2.1405861
  44.7396660  63.5065346  62.6589584  44.1203918  63.0672874  62.0760422
  44.1933632  64.0658493  63.2111740  65.9301300  37.4493828  27.6205807
  66.3021240  37.6933517  28.4681244  64.9869080  37.5710106  27.7290592
  62.1282845  35.7085266  65.7152863  61.8864861  35.7506676  64.7900848
  63.0700684  35.5375290  65.7091599  70.5094833  52.4395103  62.1942139
  70.5235443  53.2695122  61.7176323  69.6057205  52.1339188  62.1163864
  51.2411461   0.2418798   6.6191583  50.3826561  -0.1031026   6.8645449
  51.7845268   0.1063975   7.3954391  54.6406059  41.7933655  54.9495430
  55.1575050  41.0241508  54.7100563  54.4999199  42.2543488  54.1225395
   6.7274795  33.2244797  85.2477951   7.3653789  32.8044319  85.8247528
   6.8492436  32.7933350  84.4019165  59.0977478  62.2021675   8.4167480
  58.1453514  62.2198906   8.3226633  59.3166389  63.0524826   8.7979097
  32.4608421  19.0128841   8.8926287  32.1098099  18.8928261   8.0102501
  33.3464813  18.6523418   8.8491755   3.3406818  22.5459805  27.1760101
   3.8528252  22.8172474  26.4141998   2.4518027  22.8461971  26.9862862
  65.7952423  65.9678955  52.5462189  65.1359177  65.9178009  53.2383270
  65.9037247  66.9053574  52.3861618  66.6779404  12.8946905  75.8592911
  67.0301895  12.1471834  76.3423920  66.7557983  13.6305199  76.4665146
   7.3628254  67.3292542  59.9831467   6.8899832  67.9240417  59.4010086
   7.2049298  66.4593201  59.6163864  67.5079956  18.6148186  33.6097260
  68.0469055  18.8601894  34.3617859  66.7030106  18.2684097  33.9947395
  71.6406250   7.6120515  82.3769302  72.0880508   6.8110285  82.1041565
  70.7426224   7.5032663  82.0638962  75.7910004  25.9786510  26.3654652
  75.7857361  26.1128597  25.4177361  74.9416504  25.5803261  26.5556774
   7.2484350  68.2123260   5.6633220   7.1545429  68.8996429   5.0037608
   7.5967140  68.6640167   6.4320297  46.3431511  68.2086411  54.8159256
  45.4892082  68.0920639  54.3994865  46.4264183  69.1552811  54.9307098
   4.3504124  14.5395117  66.1351471   4.9477639  15.1398458  65.6890488
   4.9171443  13.8485489  66.4781036  76.7130051  60.3249893  26.0835419
  77.0146103  60.0575981  25.2153435  76.7806168  61.2797737  26.0770378
  83.1992950  70.0434265  70.4938965  83.6557922  69.2798386  70.1406555
  82.2767487  69.8845291  70.2941895   3.5041063  33.7257652  54.8349800
   2.6545773  34.1648026  54.7928238   3.6348569  33.5459747  55.7660065
  27.2902088  41.9060974  10.0596571  27.0665398  42.8300514   9.9477921
  26.9531116  41.4808922   9.2711153  71.7099533  19.4445877  17.1001415
  71.3599472  19.2542362  16.2298012  70.9689484  19.3101444  17.6909580
   4.9892240  71.0555267  22.3549404   4.3037047  71.2189255  23.0027008
   5.5818210  71.8024292  22.4397373  76.7251129  49.5794106  33.6569672
  76.6014404  48.8034668  33.1102943  75.9543076  50.1198273  33.4836655
  60.1004333  44.7662506  19.7027817  59.6478043  43.9270630  19.7871876
  60.3622551  44.9881020  20.5963478  66.5449600  70.7001648   7.1931577
  66.3510818  70.9753571   8.0892124  67.1500092  71.3648834   6.8640761
  46.0411186   6.7793202  85.4463806  46.5490570   5.9680724  85.4568405
  45.2739143   6.5885196  85.9860306  36.4137535  62.0070610   9.1104574
  36.5362892  62.9424820   9.2723255  35.5049477  61.9313469   8.8196363
  65.9779205  48.1211700  80.2279587  66.7438736  47.6663475  80.5782166
  66.2213058  49.0467834  80.2430954   0.1345262  51.2349205  87.0840912
   0.7249237  50.6381798  87.5440445   0.2115129  50.9854622  86.1631851
  53.5833969  55.7395554  74.2674637  54.1487732  55.0800209  74.6694641
  54.1714249  56.2544212  73.7148666  40.4187279   8.4921989  76.5070953
  40.7718925   7.9859986  75.7754745  39.6467857   8.0007544  76.7878494
  24.5121040  67.3468018  16.7925396  25.3919067  67.1513748  17.1150074
  24.5719242  67.2256088  15.8449278  65.8544540  62.3770943  35.8520088
  64.9725113  62.4697533  36.2123146  65.8923187  63.0193062  35.1432381
  34.7382698  66.6857910  24.3537159  34.0189285  66.9944839  24.9046154
  35.0937119  67.4807205  23.9562454  74.1755981  67.8654785  16.7158298
  73.5652084  67.9475174  17.4485836  74.6293182  68.7078018  16.6865978
  15.4944954  24.5549603  15.4512911  15.5773287  24.1448059  16.3121891
  14.5723686  24.4428749  15.2203121  72.1458435  14.8119831  12.1806688
  73.0235672  14.7768698  11.8004160  71.8562775  15.7121534  12.0320740
  11.5884514  27.1938686  65.7539291  10.9397287  27.0134659  65.0736008
  11.0798330  27.2408104  66.5634613  15.3254843  58.4790649  42.3446808
  15.9551849  57.8223991  42.0471992  15.0108004  58.1457596  43.1849861
   0.8273466  70.5618057  51.2556038   1.2483795  71.2487793  51.7723579
   1.5423470  70.1628113  50.7598114  12.2793779  35.3391380  40.7590179
  12.3624735  34.5233765  40.2652016  11.7407341  35.9019737  40.2028618
   1.6378896  25.0240078  84.4009399   1.6323987  24.0683918  84.3461456
   0.8456555  25.2402706  84.8927002  60.5884361  40.8751221   8.3402843
  60.7171135  41.2957535   7.4901409  60.0054016  40.1383858   8.1571894
  78.1464233  58.6295700  30.7031898  77.5652847  58.4964561  29.9543266
  78.0085907  59.5430031  30.9539299  33.7654648  69.9411926  18.7812366
  34.5537224  69.5116196  19.1134319  33.0441132  69.4916458  19.2214546
  20.5261250  48.7116585  59.4769096  21.1328049  49.4467010  59.3881073
  20.9291000  48.0060349  58.9710007  52.4314766  10.3691692  42.7216644
  51.7704277  11.0444651  42.5692635  52.1408691   9.6259184  42.1931190
  72.3330154  58.4868469  80.0463715  72.2933502  57.6862144  80.5694809
  71.6530457  58.3730354  79.3823547  45.8615150  68.1428223   2.7096055
  45.7433891  67.9839630   3.6461098  45.8820457  69.0964203   2.6291525
  18.7393589  37.9805641  67.4463501  17.9078846  37.9524078  67.9197235
  19.0949726  38.8482819  67.6382751  31.1196766  66.4033508  17.6670837
  31.8590393  65.8038559  17.7679558  31.2117615  67.0213547  18.3922215
  45.4973717  57.6425247  48.6473236  45.8462257  56.9597054  48.0743561
  46.1754036  57.7675247  49.3113098  22.5273933  67.1979370  63.2674751
  22.4523220  67.3055267  64.2156448  21.7088432  66.7744217  63.0089302
  66.2184906  70.4770203   2.2558837  65.4765091  69.9567566   1.9476125
  66.0291214  71.3658524   1.9553008  68.2844162  58.5836830  32.8426094
  67.6531143  58.9050293  33.4863701  67.8663330  57.8112717  32.4620590
  36.3598785  62.2376785  80.3819809  36.1786842  62.0112877  81.2942047
  37.0230560  61.6052589  80.1054382  62.5874710   7.9704680  68.8033676
  61.7785645   8.2822399  69.2091980  62.8825150   8.7036209  68.2633057
  60.2394791  26.6864033  78.6519241  60.3776245  26.8829231  77.7253571
  59.6269875  27.3586178  78.9506073   0.8458613  33.7525024  34.6305008
   1.1164020  33.1403961  33.9461288  -0.0192992  33.4437790  34.8996124
  13.6736450  54.4784088   9.6140499  14.4690685  55.0090828   9.5702896
  13.9893799  53.5750885   9.6376486   7.3823352  70.1326141  11.1435738
   8.1782646  70.6048889  10.8992691   7.6908951  69.2689896  11.4177599
  21.1990585  31.5788059  65.0782089  20.6188221  31.9565868  64.4172745
  21.1334457  32.1755295  65.8237610   3.2698860   0.1124956  24.8209095
   3.4372890   0.8882157  25.3561363   3.6319964  -0.6125844  25.3301907
  16.8811531   7.6068950  88.3440247  17.7899437   7.3702826  88.5293503
  16.3627663   6.9739542  88.8409119  83.8409195  28.7951145  68.9814758
  83.7767944  29.5188465  68.3583069  84.5011215  28.2129688  68.6053391
   5.2822990  55.0804520  30.2607498   6.0507355  54.6548996  30.6410694
   5.3006692  54.8274803  29.3377647  78.6910095  24.3006306  84.1377182
  78.3201981  24.4035988  83.2612915  77.9696655  23.9557590  84.6639862
  21.1126709  67.5622177  21.4608784  21.8840313  67.6112289  20.8962231
  20.4062996  67.2841797  20.8778095  59.6169090   5.1002316  18.8276100
  59.4424744   5.8026104  18.2011375  59.4451256   5.4940715  19.6829548
  86.3092117  40.7805023  20.5172100  86.1483688  40.5005264  21.4183044
  87.0448456  41.3893585  20.5832710  25.6827736  53.7184181  83.9355087
  25.5796719  52.9656334  83.3533401  26.1057777  54.3842926  83.3933716
  30.7700443  63.9120140  29.1881809  30.4093266  64.5101624  29.8426514
  31.7155247  64.0561295  29.2272816  55.3518181  62.1035042  43.2224579
  56.1802711  61.6385918  43.1051826  54.7753220  61.7387123  42.5510368
  65.3831787  10.8874388   1.6827998  66.0262527  11.4679193   1.2756938
  65.1172867  11.3460178   2.4798193   4.5970607  29.1704369   7.2848125
   5.0409088  30.0068283   7.1445184   5.1892529  28.6773071   7.8525829
  70.4129944  36.6775780  48.6024361  71.0027847  36.1283684  48.0859642
  70.7721710  36.6468697  49.4891624   0.9285210  48.9301910  10.6957283
   1.0101724  48.0082321  10.4516935   1.3247162  48.9837418  11.5654373
  48.1753426  19.5828667  26.0346184  48.8342514  18.9224396  26.2488728
  47.5314064  19.1150494  25.5028992  51.8781433  30.8751583  30.6233940
  51.4266396  30.8649940  29.7794304  52.7661438  30.5789413  30.4235458
  43.5429688  54.9278069  31.6841908  44.3262520  55.3566322  32.0288811
  43.1360817  54.5213585  32.4493523  51.1077194  22.1314335  32.4941483
  50.9365044  23.0657825  32.3762131  51.6062088  21.8792992  31.7168674
  47.5560188   6.1082625  27.8944130  47.5244904   5.5822797  28.6935253
  48.2214317   6.7731853  28.0714302  13.9096928  14.2639284  14.3255215
  13.6089573  13.4189510  13.9911528  14.8537025  14.2619286  14.1671734
  28.3525810  25.6560783   3.3839490  28.5365562  26.1337109   2.5750899
  27.4317703  25.4053707   3.3099043  74.1221085  47.8165092  75.0109711
  74.6169662  48.1300888  75.7679443  73.7433090  48.6077423  74.6279678
  60.7981682  69.8919220  39.9427681  60.7269554  70.1882935  40.8501358
  61.2749138  70.5930557  39.4985085  54.2303696  58.8634758  19.8269043
  53.9281540  58.0016403  20.1134968  54.7411156  58.6876144  19.0366859
  46.1442833  61.4677963  77.1171646  46.6336441  60.6461296  77.0768738
  45.2589035  61.2331390  76.8391876  35.0286484  33.9347878  18.8142185
  35.5134048  34.6765137  18.4521637  34.2240448  34.3206215  19.1605968
  80.6952896  57.9482880  88.0701752  80.6440887  57.7871971  89.0123367
  80.6801300  57.0757713  87.6768341  66.9907990  60.3673859  37.3362312
  66.1944504  60.1369781  37.8147469  66.7393570  61.1201897  36.8011589
  35.2699509  53.8761559  35.8941383  35.7021675  53.6718369  35.0648804
  35.9350777  53.7021561  36.5601425   2.0453532  44.8024406  60.9208336
   2.6803005  45.3665848  61.3622169   1.1985240  45.0694466  61.2783546
  39.2457314  35.0358963  64.7094269  38.5321655  35.0876884  64.0735245
  39.9802704  35.4759026  64.2815475  43.7109489  22.2242241  66.5732040
  43.7508125  21.7559319  65.7393265  42.8286438  22.5945702  66.5979767
  66.5013199  25.2552834  75.8251266  65.8145599  24.7502346  75.3897934
  66.9850311  24.6085720  76.3389587  36.7105103  65.9071426  55.4113083
  37.4550285  65.3742676  55.1320801  35.9514999  65.4910431  55.0026588
  86.6175919  58.2152481  57.1745834  86.7832794  57.3147087  56.8956451
  86.5077133  58.7025299  56.3580589  31.4946785  36.8438988  66.8974304
  31.8333683  37.6891975  66.6025009  30.9796448  36.5210495  66.1580124
  13.1004171  28.4146423  29.5109291  12.2759848  28.5294628  29.0383205
  13.0577755  29.0507202  30.2249451  29.9004879  57.3560066  77.5026474
  30.5806904  57.8163872  77.9941864  30.0350323  56.4324265  77.7150879
  33.2205276  52.6366425  39.6827583  33.5530396  53.5116425  39.8828697
  32.7475433  52.3737984  40.4723358  39.0236206  61.6720581  40.8784180
  39.5576439  62.4036217  40.5687981  39.5090027  61.3201714  41.6246185
   0.6165500  20.4323978  54.9592667   0.9049786  20.3865490  55.8708267
   1.0429246  21.2159958  54.6122665  69.4374466  69.7789307   7.0462589
  68.6713867  70.2487869   6.7166891  69.0782394  68.9898148   7.4518380
  65.5209808  33.2951813  14.7498446  64.8036880  32.7957993  15.1401520
  65.5481796  33.0030785  13.8387098  30.2597980  21.0993938   5.5753179
  30.4626274  21.1897106   6.5064111  29.7242088  21.8660698   5.3713946
  41.2934494  53.2610664  53.5098000  40.7459984  53.1131973  52.7386589
  41.0762520  54.1499214  53.7908554  65.4716949  31.1291466  87.4188843
  65.7859802  30.6580772  88.1906052  64.7082901  30.6302280  87.1281586
   1.0129009  20.2149887  31.3878174   1.4052575  20.5797768  30.5945835
   0.5230558  20.9433994  31.7695236  18.0810604  58.4715538  13.3742933
  18.1414337  57.9899330  12.5492907  17.3240986  59.0464020  13.2612057
  33.6703224  59.8406715  60.5991440  33.5092812  59.7607002  61.5393028
  33.1145287  59.1695557  60.2030029   1.7330838  69.4624863  80.2034760
   2.2197690  68.7596130  80.6339874   0.9344952  69.5540314  80.7231903
  32.5951614  52.8973045   6.8164301  32.6233635  53.7135048   6.3171754
  33.3161888  52.3757858   6.4637671  52.2723961  25.8998489   9.5271568
  52.1431427  24.9637566   9.3746557  51.9439964  26.3196354   8.7320690
  64.2697449  47.8306351   5.2465224  65.1142044  48.1555710   4.9342246
  64.3999481  47.6877098   6.1839938  13.2432222  36.2002792  52.3205833
  12.9324675  36.8665009  52.9336166  12.4728823  35.9779549  51.7977257
   1.0756059  13.0780296  14.2944069   1.4677863  13.2751141  15.1450443
   0.3681702  12.4646292  14.4931669  25.7585850  36.7154999  65.7846146
  25.9045792  37.3829727  66.4549866  24.8301735  36.7950363  65.5656204
  27.5309334  41.8246307  44.1319389  28.3640060  41.4547157  44.4241447
  27.3561382  41.3909721  43.2967033  25.2221203  51.5782051  20.5008163
  25.6959534  52.3789406  20.2760124  25.4049625  50.9802322  19.7760887
  32.1848030  55.9546013  50.3158760  31.3146515  56.3018227  50.1196442
  32.2386093  55.9692192  51.2714539  73.3341522  65.7820129  62.0388298
  73.7434082  66.1650620  61.2629356  72.9460373  64.9648056  61.7261467
  60.5867729  63.7357216  52.0412064  60.2264786  63.5449562  51.1751633
  60.3142738  62.9947929  52.5825005  79.7515945  10.4901400  50.0054207
  80.6715622  10.2348127  49.9368095  79.6897888  10.9387312  50.8487358
   1.7974564  14.8851080  36.4230461   1.2605908  15.6634407  36.2740326
   2.6940341  15.2174253  36.4671516  64.5624466  46.9229736  73.8861389
  64.3091812  47.7672501  74.2593384  63.7967415  46.3637543  74.0172806
   4.8930345  29.5528641  35.5999908   4.6532745  28.6737938  35.3067665
   5.3075681  29.4164314  36.4519196  12.4173393  10.5277805  71.6650696
  13.1004181  10.4176788  71.0036240  11.7944994   9.8234129  71.4857101
  11.1222630  19.0094109  69.6463928  11.7966337  18.3460484  69.7926941
  10.2962360  18.5311432  69.7183075  27.8754330  63.9006195  41.5486679
  28.2321548  63.5215836  42.3519821  28.5725269  63.7908897  40.9019470
  54.0415192  33.7810936  31.3559742  54.7182999  34.3467712  31.7277355
  53.2168350  34.1820145  31.6305542  12.3255663  59.3598709  86.4413147
  13.2305861  59.3096352  86.1336594  11.8180494  58.9076920  85.7673721
  74.3877029  12.7992563  64.3378067  75.0633621  12.1227598  64.3833084
  73.6103058  12.3870592  64.7145996  35.2805061  -0.1592294  88.6742172
  34.7430916   0.0355141  87.9064331  36.0305595   0.4304729  88.5973892
  25.2631493   2.5040519  76.7741089  24.4610481   2.0315733  76.5513382
  25.9685287   1.9470530  76.4448318  58.8560829  62.3546066  33.1826134
  59.0327263  61.8009758  33.9432182  58.3778610  63.1039200  33.5376701
  51.7202606  15.0608578  17.7228394  51.6327934  15.2173834  18.6630955
  52.0418701  15.8908234  17.3707638  78.7686234  56.7532234  81.7159729
  77.9923401  56.6888885  81.1596756  78.5485840  57.4291954  82.3569717
  66.9389648  68.4503632  16.4127102  67.3198242  67.5814362  16.5398121
  66.7537537  68.4958191  15.4747019  37.5306549  65.4416504  45.0900955
  36.8655357  65.3676529  45.7744675  37.6944504  66.3818130  45.0159454
   8.6648388  65.3705750  80.5160828   8.3543787  65.1353073  81.3904343
   8.7637444  66.3222122  80.5450668  74.4149551  18.2690525  14.8818827
  74.4408417  19.1027966  15.3513851  73.8800583  18.4463902  14.1081467
  54.8004227  38.4626007  89.0148773  55.5164299  38.8411293  88.5046997
  54.4558983  37.7620811  88.4609680  53.6641846  27.9138794   3.4653547
  53.2312775  27.5293350   2.7031541  53.0826149  28.6233883   3.7384951
  48.1002426  46.9533234  43.8167839  48.4212685  46.0533562  43.7598648
  48.4046173  47.3677025  43.0093956  31.5289860  55.5433998  38.8301086
  32.2114029  55.6659660  39.4900475  31.9840889  55.1511421  38.0849609
   4.0656343  68.9736252  71.1717148   4.6366091  69.1774063  70.4309769
   3.4525998  69.7077255  71.2106323  74.5069427  41.3256493   6.9440165
  74.5297699  40.3834763   6.7766104  74.7320099  41.7238350   6.1031699
  35.9341202  70.9421997  32.9458504  35.3010979  71.6490631  32.8199081
  35.3983803  70.1716156  33.1340218  10.3061810  57.9733200  50.1522293
   9.7461929  57.2232437  49.9521408  10.5398397  57.8588028  51.0733795
  32.6429367  42.3656540  23.4485531  31.8139057  42.6808014  23.8085804
  32.8085861  42.9335976  22.6960678  57.6256676   8.6538839  23.0894527
  58.4644432   8.9985199  23.3959103  57.3891602   7.9891105  23.7362690
  40.5322838  70.1347733  83.1529465  39.7947464  69.6595535  82.7702789
  41.1003151  70.3347473  82.4089127  48.2019768  40.8469849  41.6740036
  47.9914093  40.5938263  40.7752228  48.7834282  40.1544533  41.9879227
  80.2219315  49.5434036   7.0515671  80.3181763  48.5979691   6.9370136
  81.0762177  49.9019966   6.8110719   8.9993544  58.7503128  18.8516674
   8.4629421  59.2372131  18.2260284   9.7037373  58.3757782  18.3227081
  21.4783916  50.9307709  45.2707787  22.2597332  51.3579750  44.9197273
  21.6104813  50.9315720  46.2188187  75.1783676  55.1230202  61.0769501
  74.2405701  55.1204147  61.2686768  75.5415115  54.4462700  61.6482315
  71.3097839  59.6493263  83.2665482  71.2658768  59.9607315  82.3624878
  70.6767426  60.1912270  83.7375412  49.8782082  28.7967873  42.2327690
  49.4171448  28.2463455  42.8657532  50.1286507  28.1962242  41.5307503
  36.6749535   3.7200723  82.7329559  36.7554359   3.4388585  81.8215485
  37.5317993   3.5348415  83.1173172  22.6383648  58.6558380  77.2296448
  23.1556683  59.3797722  76.8767319  23.1799355  57.8804169  77.0824738
  78.7993317   7.6494269  37.9432411  79.0054779   7.4629669  37.0272903
  78.3430557   8.4905519  37.9196243  77.9218597  15.1135416  88.6647110
  77.4526367  15.5362539  89.3839951  77.2486038  14.9459877  88.0052490
  71.7524033  23.4467812  24.0094395  71.6370773  24.3937321  23.9306011
  70.9031219  23.0806942  23.7626019   0.3011217  43.9650078  75.8201141
   0.7109401  44.8229332  75.7094650   0.3901393  43.5449257  74.9646378
  31.3305607  47.0957298  55.6458855  31.5100784  46.6718788  54.8066254
  30.3754520  47.1101189  55.7074890  19.8545303  68.0937805  77.0033264
  19.9416103  68.0154572  76.0533218  20.6452618  68.5574951  77.2789001
  58.1963005  55.9239273  16.8078365  58.2125893  55.4652748  15.9678326
  57.3667488  56.4014816  16.8039284  56.1960144  67.9402390  56.4314232
  56.7450523  68.7095871  56.2800980  55.4375534  68.2773056  56.9082451
  59.7422142  38.6510963  79.9457397  58.8779106  39.0612183  79.9139099
  60.3082275  39.3154335  80.3388290  76.6173630  63.6029358  71.9362564
  77.2581482  63.2770805  71.3042450  76.0355759  62.8591003  72.0926514
  23.2598724  22.9143181   7.0621309  22.9593601  22.2597313   7.6925592
  22.9663944  22.5821915   6.2137237  44.2935295  39.4918671  51.9349289
  43.5922508  38.8567085  52.0798912  44.2634277  40.0614853  52.7036057
  38.7090302  48.5360985  11.8305244  39.1258812  48.5962372  12.6900892
  37.8019676  48.7997780  11.9852448  50.9397430  22.4556332  27.4323158
  51.0292969  23.3578758  27.7391834  51.1723518  22.4939766  26.5046005
  51.7768135   9.7373877  45.4980354  51.5661049   8.8349695  45.2582970
  52.0067787  10.1578674  44.6694565  41.5170326  43.5204620  64.6890793
  42.0779190  42.9125938  65.1708832  40.7766914  43.6787491  65.2748032
  51.0395050  64.6346893  53.0386429  50.2422638  64.4306488  53.5275269
  51.5768166  63.8463974  53.1169128   1.7190351  34.0688820  21.5770473
   2.4047225  33.9263954  22.2295513   1.8048733  34.9915009  21.3369598
  76.2751846  11.1328983  36.2551727  75.7690353  10.3331909  36.3984070
  76.3528061  11.2000017  35.3034897  46.8823395  32.2741318  60.3753052
  46.6948471  31.4500942  59.9258194  46.1164665  32.4243202  60.9294853
  78.4629440   7.0277138  35.0548325  77.9821930   7.7770109  34.7031784
  79.2757339   7.0061836  34.5497208  58.3702431  26.5908642  26.1832275
  57.6859550  26.5893745  25.5139141  58.2639580  25.7543964  26.6362820
  49.5775909  39.4237175  64.9791260  49.6942940  40.3682518  65.0814133
  50.0217857  39.2151146  64.1572952  41.3402557   2.7479601  71.8797836
  41.7788391   3.5946116  71.7957764  41.2286949   2.6285460  72.8229294
  18.4915066  48.7965355   7.7755513  17.6514473  48.8436470   7.3191385
  19.0580330  48.3012085   7.1839991  82.1231308  67.8110352  31.2541676
  81.4747162  67.1415634  31.4723186  82.2454910  68.3001099  32.0678444
  69.2522278  25.4398537  39.3420258  69.7366638  24.6143818  39.3542900
  68.7857285  25.4313984  38.5062370   4.7912321  29.0739002  77.8445053
   4.7032366  29.5876675  77.0416794   4.3189116  29.5798931  78.5056534
  44.1116524  50.0245934  61.1070290  44.0767593  50.9808998  61.0848198
  44.9575119  49.8066292  60.7155609  51.2005157   0.8473247  25.7458134
  50.8519859   1.0605388  24.8801937  52.1474686   0.9540269  25.6556664
  17.8680515  38.3656540  13.4427032  17.7571068  37.6075325  12.8689642
  17.4672699  38.1002731  14.2704582  85.7923050   9.1987181  28.6678486
  85.7769699   8.6725168  27.8684044  85.8448792  10.1029949  28.3584118
  35.3050880  62.4522247  18.7003212  34.3753319  62.3027611  18.5287418
  35.7296982  62.3173332  17.8531227  14.0183325  15.9113903  67.8083191
  14.1984491  16.0445976  66.8777008  14.6430140  16.4811077  68.2571259
  36.9647751  54.4934349  70.0961685  37.8987617  54.5049553  70.3053818
  36.7880745  55.3646545  69.7412262  46.2262077   7.4528594  23.5873966
  46.8409882   8.1842718  23.5298328  45.9732895   7.4246182  24.5101471
  22.7166462  61.6257439  33.4233856  21.7717228  61.5812569  33.2771912
  22.9247303  62.5580940  33.3629112  70.2118301  17.2556534  40.2241249
  70.6366348  17.4295578  39.3841705  69.3748016  17.7167377  40.1692047
  69.0443192  28.8521538   6.2499504  69.3786011  29.5345440   5.6678605
  69.6330338  28.1101189   6.1120048  35.3189278  46.9935265  79.9123535
  35.7103958  47.4748535  79.1834412  35.9856491  47.0145683  80.5988388
  31.3181057  36.6562843  10.6147900  30.5707436  37.2531281  10.5766191
  31.4005890  36.3184128   9.7230091  44.4551811  68.9051285  33.5987396
  44.0595474  69.7722931  33.5108299  45.2233963  68.9334259  33.0284119
  28.4308472  46.5410805   8.3132944  29.1532078  47.1296997   8.0943165
  27.6819839  47.1214104   8.4498634  50.6985245   4.7630367  27.7098293
  50.8739510   5.6910696  27.8654308  49.7490120   4.6806154  27.7985039
  35.2950592  67.6062775   3.3183491  35.3544197  66.6895599   3.0493929
  34.4201508  67.6883698   3.6978598  57.4924355  11.7399683  34.2821236
  58.1032410  12.4328938  34.0311165  57.7660179  10.9812279  33.7666664
  78.9964142  15.8894405  54.3975563  79.7682495  16.4034176  54.6348839
  78.8185501  16.1302929  53.4883881  84.1739273  35.7988281  33.7265244
  83.4492340  35.3625450  34.1745338  84.0503616  35.5808983  32.8026924
  19.6981106   7.7583365  77.7081909  20.2321606   8.4180851  78.1506348
  18.8644238   7.7703862  78.1783600  14.5948725  32.9333763   6.3572550
  15.4938946  33.1737671   6.1331973  14.3881922  33.4674797   7.1242280
   5.5498714  50.8209381   2.2079647   5.6622586  50.0274506   2.7313952
   6.2990212  51.3694572   2.4406335  37.5901413   1.3384933  88.1077652
  38.4986115   1.5987831  88.2599640  37.6461449   0.6492426  87.4459229
  86.2558594  25.2398376  16.0623798  86.0115738  25.3625984  16.9797077
  87.2098465  25.3178787  16.0560608  86.0481033  13.2276249   9.1443291
  86.4370193  14.0212374   9.5119677  85.1043243  13.3816319   9.1866693
  36.4470062  46.0175743   5.6845040  37.1355934  45.4948730   6.0954294
  36.8969650  46.5082703   4.9967628  53.9664955  52.8994789  34.5649719
  53.5149345  53.2398262  33.7926445  54.7219276  52.4288521  34.2127419
  67.2817917  49.6989746  23.5139103  66.5293045  49.3278122  23.0532207
  67.7783737  50.1540565  22.8338070  60.8884926  66.3414917  50.1719818
  60.7759476  67.0867004  49.5818787  60.0234795  66.2108154  50.5604515
  18.5369377  54.9391823   2.1722245  17.8800812  54.8608589   1.4803882
  19.3291473  54.5569115   1.7947280  46.6573029  68.4022369  12.9453087
  47.4133377  68.2338333  12.3829222  46.3736267  67.5340195  13.2316027
  40.6195793  21.6361599  64.1638794  40.1509705  20.8491364  64.4417877
  40.8585014  22.0737362  64.9809952  12.0897551   3.8554375  74.3808517
  11.4588013   4.1446753  73.7217102  11.5890532   3.2735209  74.9526062
  42.6371346  43.7415848  88.5986786  43.5642929  43.9595032  88.5031738
  42.5152283  42.9673805  88.0491486  23.6180096  25.8284836  74.3211975
  23.4890900  26.4004745  73.5646057  22.7458687  25.7393932  74.7054672
  47.0349197  10.1929369  55.0722504  46.1712837  10.2776432  54.6682816
  46.9618073  10.6734982  55.8968391  41.1770210  22.0408516  74.3331833
  41.5948410  22.8501339  74.0386963  41.3784294  21.4040661  73.6474915
   9.8957014  51.4441948  29.2751293   9.3898573  50.6792030  29.0010128
  10.5358973  51.5714378  28.5749931  20.4972076  67.7363510  55.5440559
  21.3429699  67.8663712  55.9730225  19.9360313  67.3694916  56.2272301
  46.2088699  55.8920593  33.6828194  45.8135529  55.1353912  34.1157341
  46.8755112  55.5173798  33.1071129  13.0844603  69.1888580  53.9625549
  13.9871235  69.5042648  54.0067062  13.1591997  68.2375488  54.0377960
   4.9833889  16.7627087  24.0093918   5.9198689  16.9023247  23.8688774
   4.7957816  17.2096996  24.8347607  53.9640617   0.0725955  70.4887695
  53.4998245   0.7711546  70.9499969  53.3046989  -0.6094161  70.3609848
  75.3144226  25.8321362  18.5903835  74.9746475  25.2936020  19.3050652
  74.5932770  25.8799248  17.9627666  52.4631538   8.7628202  18.4967422
  53.0417519   9.3700562  18.0355263  52.7938461   7.8947568  18.2657814
  59.0167503  59.5503120  76.8297195  59.1416664  58.9942207  77.5987396
  58.1915512  59.2502174  76.4486389  56.5068016  11.9460649   4.5892096
  56.4402275  12.4719458   3.7921836  56.2389908  12.5395727   5.2908211
  18.2250443  49.4475288  27.5326900  18.0917931  50.3511238  27.8190422
  18.5572815  48.9967842  28.3090134  67.5058441  47.0323563  38.0219650
  67.9348297  46.9054718  38.8681946  68.1382904  46.7065430  37.3815842
  78.7507019  17.7580051  30.3505421  79.0413132  16.9264584  30.7251167
  79.0994949  18.4229984  30.9441433  51.6788330  33.9567642  55.9165382
  51.3019028  33.1677551  55.5271568  51.0653267  34.6543159  55.6857529
  69.3662033  22.7307625  41.6134720  70.0028763  22.9851570  42.2814217
  69.8732224  22.6896191  40.8026276  36.2160950  58.0056763  44.5690384
  36.7090759  58.4641953  43.8886261  36.8514862  57.4085541  44.9639511
  44.2898788  23.2820034  12.2191114  44.8900833  23.6119175  11.5504227
  44.3369789  23.9286556  12.9232798  81.0340118  30.9884892  25.8294296
  81.2568817  31.4484386  25.0201054  80.0814362  30.8993568  25.7997303
  11.7022152  69.4321060  62.0305672  10.9671783  68.8975906  61.7301559
  12.0047245  68.9970093  62.8276978  67.3439941  25.9533272  45.4023399
  67.0441208  25.1106739  45.0614014  68.2124557  25.7711239  45.7612419
   5.8192105  28.1451111   4.3603096   6.3118563  27.5732956   3.7716177
   5.3871641  28.7715702   3.7796919  72.4365082  21.1303883   7.2362857
  72.2044678  22.0053310   7.5475159  73.0559845  21.2862282   6.5234046
  49.8283577  41.2968063  82.0403061  50.4563103  41.6569786  82.6665497
  49.8489685  40.3526726  82.1965485  55.6000366  11.5565205  77.0099792
  55.2921219  12.4464445  77.1816177  55.5091324  11.1055603  77.8493881
  47.0764961  14.9927711  57.5707893  47.2295113  14.2215500  58.1167183
  47.2854729  14.7029133  56.6827927  46.9667244  71.3782654   1.5803863
  46.6565399  71.0100021   0.7531025  47.7918549  70.9238586   1.7504110
   0.3068707  32.6357803  75.1899185  -0.5084453  32.6930580  75.6881256
   0.5803944  33.5455551  75.0727692  15.3407650  18.5532131  71.4440842
  14.5207520  18.0651665  71.3691101  15.9052763  17.9926968  71.9764175
  84.3596802  71.1388474  20.2684631  84.5677338  70.4113922  20.8547745
  83.7843018  71.7044983  20.7834415  34.2702408  61.9039268  73.5058289
  34.5976562  62.4532623  74.2180481  33.8648834  61.1570320  73.9463577
  48.8865318  59.5714226  56.3555565  49.5125923  60.0120430  55.7809868
  48.5956459  58.8100014  55.8537025  55.3632927  25.9389782   4.3599224
  55.8083344  26.3056583   5.1239343  54.8537598  26.6682320   4.0066538
  64.4379425   4.7828093  19.8363457  64.7208786   3.9046123  19.5814915
  63.6310310   4.9273181  19.3421402  50.1692429  53.4816170  32.4893036
  49.9851608  53.9368324  33.3109627  49.5361519  53.8423576  31.8685875
  75.2298889  41.3873901  64.2961426  75.0574951  42.3051071  64.5066376
  74.6122894  40.8971024  64.8387527  37.8330879  20.9037800  80.1622772
  37.9419975  20.5039692  79.2994232  38.2360725  20.2811146  80.7673569
  44.1352272   5.4040537  86.6839676  44.2215958   4.9505858  87.5225067
  43.5810165   4.8287978  86.1565552   6.5061674  48.9775162  73.9881821
   6.7737932  49.5004501  74.7439270   5.9828968  48.2680206  74.3610611
  45.4439621  22.5681114  76.7026443  45.3711548  21.7002316  76.3055115
  46.0920677  23.0237293  76.1654205  57.1069412  24.2321949   2.8809597
  56.3756676  24.6846428   3.3013945  56.8575058  23.3081913   2.8961761
   0.4252393  61.5578651  22.3083706   0.6275895  60.7430954  22.7681961
   0.2070317  62.1777992  23.0042839   4.0327101   2.7946360  39.1295509
   3.7012286   3.6770914  38.9633408   3.5116787   2.4781096  39.8675003
  74.4815369  22.2005539   5.8443589  74.3068771  22.8803616   5.1935229
  75.2161102  21.7051945   5.4820724  70.8686295  44.3100243  45.5040283
  71.3998718  43.5496559  45.7403564  69.9650269  44.0162163  45.6198387
  30.5891094  49.3648071  31.3921490  30.3579502  48.9564095  32.2264214
  30.9979801  50.1949310  31.6370029   0.2026247  24.3915405  43.1890221
   0.7349058  24.2471924  42.4066696   0.8272656  24.3566608  43.9134789
  46.5510559  52.4555244  87.3746643  46.4671288  52.5553207  88.3229370
  46.8347549  53.3165321  87.0673981  43.8106880  70.4863892  29.4265366
  43.9932899  70.6596756  30.3500404  43.9919167  69.5528336  29.3176270
  80.9103394  28.7860355  43.2747269  80.7663956  27.8693428  43.5096436
  81.5872955  29.0853710  43.8816490  10.6675510  65.2273331  70.8754807
   9.9835520  65.1803665  70.2075272  11.3309145  65.8054886  70.4987640
  28.5903034  25.6055908  85.7438126  28.2313251  24.7537441  85.4953690
  28.4936314  26.1444607  84.9586334  52.9246979  50.0822296   5.1551991
  53.7763481  50.5185089   5.1309748  52.8322601  49.6890030   4.2874098
   4.7193494  23.6719322  30.5557270   4.0931821  24.1517639  31.0978603
   4.5736341  22.7524567  30.7783508  56.7077255  56.9457474  20.5071697
  57.6304855  57.2001915  20.5049591  56.6168480  56.3809776  21.2746391
  47.2388649  21.4766407   3.0745311  46.7772255  21.4865417   3.9129944
  47.7968597  22.2539883   3.0991433  66.6924896  52.7763634  10.5636787
  67.5264664  53.1932526  10.7802734  66.8378143  51.8461113  10.7361479
  84.2701340  50.5164566  53.7377129  83.5118561  50.5766335  53.1566582
  84.3808289  49.5780563  53.8906288  84.8511200  11.8197889  60.2974625
  84.4136429  12.2875519  61.0088310  84.1411514  11.3874168  59.8228722
  12.3941631  26.0654602   7.6539121  12.6783924  25.6904316   8.4874592
  11.9683628  26.8883457   7.8942943  61.8840866  11.9222307  55.1373558
  62.5908127  11.4740200  54.6727295  61.4833832  11.2414942  55.6779709
  58.2637291  13.4003220  71.7243652  58.2325516  13.8110743  70.8603363
  58.8119926  12.6253710  71.6015091  85.9422684   0.5667098  28.5948830
  86.0802536  -0.2391666  28.0971317  85.2080307   0.3668268  29.1755505
  50.8406334  61.1226273  21.7075138  51.7261086  61.0981407  21.3447895
  50.3345032  61.6262627  21.0700092  25.0532417  64.9225006  42.3667755
  25.2355309  65.6972122  42.8985825  25.8874359  64.7214737  41.9425850
  50.6025085  63.7508163  48.7612648  49.8074684  64.2820587  48.7174034
  50.4567032  63.1622009  49.5018730  41.8725891  50.5661278  54.0154991
  41.6622887  51.4996681  54.0380135  42.7943382  50.5343666  53.7593689
   3.1803241  64.2950516  73.7256546   3.2593763  65.1928329  73.4032211
   3.5718920  63.7578621  73.0369339  58.3107872  64.5991745  86.2737427
  58.3912125  64.5827560  87.2274170  57.5510292  65.1570282  86.1070251
  55.7915344  67.6598511  24.1436996  54.9355125  67.8716125  24.5160103
  55.8156776  68.1350632  23.3131447  79.6279755  15.2689276  14.2310171
  78.9130783  15.1844893  13.6001310  79.2031250  15.5642595  15.0363178
  44.5013542  55.3070030  23.0852451  45.4266815  55.2567444  23.3249950
  44.1583557  56.0338097  23.6051826   4.2591476  57.4413605  63.6578789
   4.9690528  57.1163788  64.2116394   4.6894751  57.6960640  62.8416824
  28.1876144  48.9577293  85.1102905  28.6885262  49.4019737  84.4262085
  28.8354759  48.4298058  85.5769806  61.6410446  20.4589005  49.5223312
  62.2832298  20.6448498  48.8373108  61.8205986  19.5546532  49.7798729
  18.7013988  20.0002441  70.0270004  18.8517475  19.1990261  69.5253296
  19.5015030  20.1155643  70.5396118  17.3276157  65.8966980  70.0272446
  17.0353851  66.6410675  70.5533218  17.6541252  65.2644348  70.6674500
  12.8215523  49.9070511  37.7714996  12.8003273  50.4169807  36.9617157
  12.1024246  50.2597923  38.2955856  22.7514496  49.8207893  75.9136581
  22.4673634  50.6986694  76.1683197  22.8607311  49.8704796  74.9640198
  32.5031700  70.7939453  31.5165939  32.8194695  70.6038055  32.3997879
  32.2120972  69.9469070  31.1788998  44.6141777  61.1913033  60.3871689
  45.1014633  61.3517151  59.5790520  43.8134117  60.7519836  60.1008110
  45.0009766  46.6872368  18.2435513  44.5021400  45.8830910  18.0995216
  45.8795891  46.3858910  18.4747734  73.1409760  21.7951126  10.8113794
  73.5854340  22.0011978   9.9890566  73.7224503  21.1730251  11.2485571
  41.7188873  24.4541187  15.2411652  41.0056648  24.0545292  14.7432919
  41.6014595  25.3955746  15.1142588  20.1015320  44.0044937  34.4635239
  20.2995224  43.5368233  33.6521606  19.2832661  44.4661331  34.2803268
  75.0597687  67.9294891  72.8707886  75.7427902  68.0427094  73.5317688
  75.5190430  67.5728912  72.1104355  68.2530365  43.5461922   2.0464599
  67.3476334  43.5910149   1.7391171  68.6804276  42.9369316   1.4444903
  62.7381897  15.6512156  36.5431938  62.2858696  16.3820381  36.1218414
  62.3087807  14.8703241  36.1938400  72.7482376  13.3705339  86.7277756
  72.2495422  13.4071188  87.5439835  73.3254318  12.6142883  86.8334503
  26.3399372  22.2959671  82.6760101  26.1398258  22.9376507  83.3575058
  25.4865341  22.0559483  82.3150101  19.6723843  68.7272339  17.7729073
  20.2033577  68.4566498  17.0238514  19.4085121  67.9063110  18.1884670
  23.1766396  13.3549881  79.0135269  23.3948689  13.9300499  78.2800980
  23.9939022  12.8971939  79.2103424  73.5214767   5.3608432  81.9199600
  73.9577408   5.5056496  82.7595596  74.1557693   5.6555829  81.2664795
  80.8916245  71.1189957   8.1948042  81.5481644  70.9026031   8.8568888
  80.6584625  70.2766876   7.8044424  64.2911530  60.0468788  44.3581314
  64.5457382  60.7091637  45.0006256  65.0109634  60.0360413  43.7272644
  71.5134583  60.4828148   4.4981031  70.9481659  59.7266960   4.3401265
  71.8934937  60.3214722   5.3616848  40.3789902  12.3542957   4.9460039
  39.5573158  12.5847321   4.5124350  40.9980049  12.2173271   4.2288623
   6.7189107   0.6190550  58.9204292   7.6195507   0.5961931  58.5970764
   6.6611071  -0.1240661  59.5209808  62.2926178   3.6851254  82.7690048
  62.8550797   3.6038322  81.9987717  62.3398895   4.6119900  83.0033569
  43.6004601   4.6553569  56.4560394  44.4666443   4.2798986  56.6141243
  43.2582245   4.1624413  55.7102928  15.0609312  48.0702057  51.4566078
  15.0076580  48.0775871  52.4122925  14.1507692  48.1260834  51.1655464
  38.4074440  44.8985023   7.8040791  37.9414406  44.0731392   7.6704774
  39.3280029  44.6453896   7.8728609  43.5590134  15.2522774  36.4920769
  43.1303024  15.8083963  37.1425972  42.8750572  15.0647478  35.8492203
  82.5366821  24.6572342  22.4822330  82.8200226  23.7859726  22.7594604
  82.8264923  25.2383747  23.1854553  26.5807858  65.2603302   1.2566780
  27.3076897  65.8435593   1.4750432  25.9260292  65.8329086   0.8570732
  62.7505913   2.0204325  12.5179110  63.3881836   2.7061000  12.3189898
  61.9212151   2.4871202  12.6207170   0.8494260  57.4927521  60.7344856
   0.0537225  57.9082222  60.4021149   0.9592581  56.7143707  60.1883278
  63.6048927  31.7431374   3.9519737  64.0906296  30.9353466   4.1186042
  64.2324142  32.3124084   3.5065732  55.7126274   9.1817236  46.7437286
  54.8894958   9.3593493  47.1988525  55.5490494   9.4498186  45.8395195
  39.0910339  22.1435642   2.3403223  38.3579903  22.7222748   2.5500193
  39.6941223  22.6928120   1.8394852  55.0130196   2.9794097  38.5550156
  55.3534241   3.6676080  39.1266289  54.1684990   2.7446020  38.9395638
   7.0393629  35.6742630  63.6175041   6.4775939  34.9955292  63.2433777
   7.8465981  35.6262131  63.1053543  79.5585098   6.1716499  12.5456476
  80.3809357   5.7455297  12.7870436  78.8946838   5.4908957  12.6558428
  52.9879990  44.9336510  68.6420975  52.6193466  45.6438446  69.1674194
  52.5064278  44.1547546  68.9207458  20.2670937  34.1911736  75.9650574
  19.4409771  34.5526161  75.6439209  20.2210026  34.2958870  76.9153900
  31.0379734  23.9324360   1.0892308  30.0975533  24.0165596   0.9318571
  31.2735882  23.0948277   0.6903195  44.8449974  35.2070312   2.5938971
  44.3276215  34.9213295   1.8409499  45.7457733  35.2294998   2.2709022
   3.6890008  22.4972630   7.6771431   4.6013432  22.7317085   7.5071464
   3.4775114  21.8527126   7.0018220  64.7413101   3.1477661  14.4863310
  65.4715729   3.0270030  13.8794031  64.5536118   2.2679389  14.8132982
  84.3333893  19.6289177  29.8602676  85.0108109  20.3025532  29.8006859
  83.7934723  19.7626400  29.0812721  51.0490990  29.4008389  46.7878685
  51.0412521  28.6307373  46.2194366  51.8753586  29.8396053  46.5853500
   5.8027115  65.4228058  24.3222122   4.8552074  65.4326324  24.1866684
   6.1684027  65.6805038  23.4759903  61.4923286  22.7310638  17.2956066
  62.1136665  22.9524422  17.9892673  60.9270325  23.5003605  17.2259369
  70.8030319  68.7085342   4.6712413  70.1159744  68.6632004   4.0063143
  70.3677597  69.0753860   5.4407811  58.5347786   5.6018214   8.8960962
  58.0491905   5.1205668   8.2261477  59.2032127   4.9859176   9.1962452
  25.9444103  58.8522377  71.0056305  26.4933929  59.2479134  71.6826019
  25.1507549  59.3872948  70.9978561  33.9412117   1.0277637  35.4229202
  34.7587471   1.1860685  35.8949432  33.3178749   1.6419271  35.8108482
  55.6614151  36.2124176  60.0281448  54.8348808  36.4261436  60.4610291
  55.4682808  36.2858505  59.0935135  63.2884483  23.4553146  84.0583496
  62.6018219  23.3018303  84.7073593  63.9278831  22.7610092  84.2173996
   3.0543096  26.9445305  51.8447952   3.4614065  27.7015915  52.2659378
   3.6825645  26.2335186  51.9712524  79.8173447  32.4440727  12.2460356
  80.6611786  32.8657951  12.4082966  80.0298309  31.5171127  12.1372833
   1.9918255  31.2106285  83.4094620   1.5606520  32.0276566  83.1588821
   2.8321948  31.4858875  83.7758560  77.5219421  30.8235950  38.0148697
  77.5870132  31.0693474  37.0920448  78.4302063  30.7565956  38.3095016
  59.4322205  33.1699715  14.2784100  59.2095947  34.0696068  14.0389833
  59.9184189  33.2537537  15.0986671   2.3263137   3.2411416  64.7255173
   2.6708922   4.1300998  64.6403656   1.3877436   3.3609235  64.8703308
  26.1792316  37.5694504  76.5590363  26.4524345  36.6544724  76.4926453
  25.5302792  37.6767006  75.8636246  79.1258469  16.3967400   5.4764934
  79.6825867  15.8362789   6.0170059  79.6895218  16.6664581   4.7514076
  51.5698357   8.3288574  62.4804497  51.8880386   7.4293499  62.5570374
  51.0539169   8.4688301  63.2744713  68.2591934  12.3813372  23.4091568
  68.1344223  12.0788651  24.3086987  67.3746719  12.5675621  23.0942287
  30.3207874  45.6418915  44.2204056  29.4148865  45.3505211  44.1170692
  30.3501587  46.4926491  43.7827034  12.8912659  32.5832634  52.7734909
  12.6192141  32.9010048  53.6344566  12.0805416  32.5419044  52.2662964
  41.4091530  32.1785316  81.0737915  42.2385254  32.6369591  80.9387970
  41.6587029  31.2622356  81.1936111  81.4581528  31.2650108  56.9220047
  81.4478226  30.4718437  57.4577370  81.9850388  31.0310726  56.1578712
  32.8463821  37.3759804  20.8272362  32.8103142  37.0068207  21.7096500
  33.3594933  38.1782150  20.9240150  71.8623962  17.7089882   1.4889954
  71.3384476  17.2191181   0.8551682  71.7076187  17.2642708   2.3223629
  15.9198666  30.2737961  72.0043030  15.4920826  29.5632496  71.5264359
  16.7419853  30.4168587  71.5353851  34.9608574  38.0454750  86.2520447
  35.1821136  38.3582382  87.1292343  35.6887321  37.4722786  86.0114670
  56.3947372  67.8044891  61.9440842  56.1617889  67.1189499  62.5701790
  56.4668427  68.5983658  62.4739876  50.4695435  26.3196793  18.8629055
  50.6129189  26.9238796  19.5913410  49.9788551  25.5932484  19.2472954
  61.8263130  51.7284317  44.0798035  61.8533325  52.0170364  44.9920616
  62.6558266  51.2689781  43.9492760  58.0965347  12.3571577  63.3716125
  57.9950256  12.7755337  62.5166931  58.8463898  11.7719679  63.2643700
  69.8174667   8.4316168  56.9671783  70.6690979   8.0488033  57.1779175
  69.7483215   8.3529196  56.0157280  48.4936829  67.6315079  75.6416397
  47.9210052  67.0006180  75.2054672  48.4392624  67.4028015  76.5695190
  79.4205322  22.8439426  54.2378044  79.3386765  22.1777897  53.5553284
  78.8358994  22.5459728  54.9346924  34.4148712  67.4529800  37.6827011
  34.4958839  66.6719284  38.2300835  35.2570190  67.5182800  37.2324142
  49.5145073  16.3493233  36.8245659  50.4648743  16.3123322  36.9325600
  49.2797585  17.2432308  37.0736694  23.1808891  59.8752022  29.3458920
  23.2663059  60.6010437  29.9640255  23.9292603  59.3094597  29.5359077
  84.7215729  53.2402763  38.8694725  84.6678009  52.4370155  38.3516769
  85.4974899  53.1207390  39.4170990  68.1432724  20.1028519  71.4562988
  68.2267227  19.4682331  72.1679993  68.5946579  19.6948051  70.7173920
  81.1236038  61.7736740  64.3846436  80.3116074  61.4700661  63.9787979
  81.7691422  61.7463722  63.6784134  10.3590679  25.4916039  59.9278107
  10.5676413  24.9002762  59.2045822  10.2022753  26.3374310  59.5080223
  57.1794472  29.3671837  53.6680374  56.8969536  30.1854839  53.2596092
  56.7895012  29.3885803  54.5419464  76.9501266  50.7849846  57.9970856
  77.6033554  50.9093590  57.3085670  76.2491531  51.3980827  57.7757721
  19.1697464  65.0455017  10.8433495  19.1977386  65.7109909  10.1559067
  20.0744762  64.7425995  10.9204645  13.9430761   2.8582094   0.2344816
  13.5811300   3.7384493   0.1324791  14.7123241   2.9785836   0.7912582
  48.9453201  24.6413841   7.9696555  49.2704964  24.1584606   8.7294426
  49.2797356  24.1553650   7.2158742   2.1817617  59.0167847   8.0869637
   1.7014441  58.2563095   8.4143829   3.0555477  58.6805878   7.8877153
  24.2733688  56.5419846  78.2596741  25.1197529  56.1053543  78.3556900
  24.1721573  57.0481300  79.0657730  69.3967667   5.3230467   1.1318368
  69.1486435   6.1340561   0.6880687  70.1891403   5.0348425   0.6787131
  84.7489777  46.9156685  38.1438484  84.5738831  46.5126266  37.2934723
  85.3847656  46.3327446  38.5588188  47.3798943  51.9717140   8.5540314
  47.4509163  52.1525574   7.6167574  47.2838135  51.0208740   8.6078930
  51.6321297  42.5650330  25.9633236  52.5496292  42.5503311  26.2357368
  51.5558777  43.3500252  25.4209137   5.9700041  63.6199684  36.0450096
   5.2457714  63.0292778  36.2518997   6.0570960  63.5679359  35.0932007
  45.0261612   9.7584476  63.0507088  44.1829033  10.0758791  62.7276192
  44.9935379   9.9108124  63.9951401  60.0012207   2.3272395  88.2958908
  59.1231461   1.9482706  88.2558823  60.5803795   1.6203462  88.0110931
  51.6558762  63.4531708  32.0828514  52.3368340  63.3843956  31.4136734
  50.8869591  63.7719688  31.6102333  22.9267387  46.2339020  86.9836807
  23.7091198  45.7304077  87.2086334  22.5593872  46.4956169  87.8279495
  84.8755341  62.9878769  50.2417908  85.1451340  63.8680878  50.5040398
  84.3667221  62.6620636  50.9842072  64.2338715  57.3767815  54.9427109
  63.7475739  57.1405220  55.7325974  63.8155365  56.8733139  54.2443237
  45.0061874  21.9717293  57.9130020  44.8184776  22.5317345  57.1597481
  45.1543045  22.5827847  58.6347389  20.6292458  38.8339462  10.5226650
  21.1147442  38.0131607  10.4399672  20.7300301  39.0802383  11.4421291
  85.1647644  65.2586670  52.0276375  85.3859177  65.6560364  52.8699112
  84.4804153  64.6224442  52.2352867  65.7949677  -0.1109827  50.6964531
  66.5914154   0.3807892  50.4963188  65.1276169   0.2718813  50.1269875
   9.2301073  63.3896866  74.9399033   8.4037724  63.1142731  75.3368301
   9.6151409  63.9887199  75.5795441   2.6788294   2.3568196  57.6806526
   3.4113796   2.8845258  57.3626480   3.0912993   1.5940945  58.0860558
  78.7915802  65.9573364  35.7422523  78.3061829  65.9997711  34.9183502
  78.1212463  66.0446854  36.4199371  78.7157135  61.5985031  13.3440914
  79.0654144  62.4290810  13.6667128  79.4907074  61.0822639  13.1224756
  28.6794205  60.3560448  22.1325092  28.8924732  60.0816612  21.2405720
  29.4541969  60.1260071  22.6453800  41.0538406  44.6494751  50.9475555
  40.2885399  44.2128105  50.5735550  40.7059135  45.1552544  51.6819725
  13.2855797  46.3629417  71.8103409  13.1958618  45.9659653  72.6767044
  14.1287985  46.0452042  71.4874496  62.0875740  64.0254440  58.7184448
  61.5242958  63.4236755  58.2318039  62.0798950  64.8312988  58.2019424
  26.1945553  44.6056061  65.9537506  26.8313427  44.4449158  66.6501083
  25.9145641  45.5108261  66.0894547  23.7025700  26.9141331   9.8394775
  22.9672451  26.3164310   9.9746866  23.7685776  27.0013828   8.8885498
  71.6634979  69.9793701  77.9092178  72.1784668  70.6804733  78.3085938
  71.5077133  69.3604431  78.6225815  59.5697746   3.9001961   6.2199144
  58.8318481   3.4154861   6.5897150  60.1717224   3.2223477   5.9126420
  70.4922791  21.4118423  32.2530441  69.5873032  21.1264763  32.1273079
  70.5146408  22.3006096  31.8983250  26.7372875  44.5526047   9.3770628
  27.4914799  44.8523178   8.8695192  26.1497059  45.3078384   9.4016151
  37.9206734  62.9850273  89.1878433  37.1132622  62.7651215  88.7231293
  38.4267273  63.4991188  88.5586777  19.9514980   3.8855770  68.7399216
  20.5104752   3.7440844  67.9758759  19.9815044   4.8309550  68.8868561
  72.1300812  66.8990860  29.5856419  72.0770264  66.0238647  29.9695683
  71.2215881  67.1975632  29.5433807   6.8118606  15.0133343  21.8566437
   7.0681372  14.6031866  22.6826782   6.8934817  15.9529018  22.0202980
  68.5644684  37.3987885  51.0816498  68.2415314  36.5585594  50.7561340
  69.4527130  37.4659691  50.7313156  21.9964218  34.7315063  21.6779366
  22.0171280  34.7872009  22.6332912  21.0652485  34.7503128  21.4570484
  54.6978607  61.9343376  88.9052353  54.3357315  61.1805038  88.4395828
  55.6403046  61.8844490  88.7454224   0.9596915  33.9680481  67.3288727
   1.2026980  33.9194183  66.4043121   0.1174497  33.5160255  67.3792496
   9.8229599  21.1310024  58.5165062  10.6666269  20.8050995  58.8299446
  10.0279007  21.9719830  58.1078682  80.4438477  39.1190338  65.3458023
  80.1415787  38.9189224  66.2317047  80.4490280  40.0753441  65.3048019
  80.9823456  65.9561615  17.1530781  81.2217941  65.9807053  18.0795193
  81.4607010  65.2051163  16.8018780  61.0135117  70.2138138  67.6329346
  60.1490440  70.3130493  67.2340775  61.6245880  70.2762375  66.8988190
  12.1829624  61.5715637   3.6602829  12.1863127  62.1161880   4.4474316
  12.9927988  61.8029671   3.2054749  81.2283859  19.2301292  22.6577454
  82.1732864  19.1984406  22.5081139  80.9081421  18.3833199  22.3469563
  78.9712906   6.3222957  72.6219711  79.4132233   5.5117121  72.8747177
  78.1407852   6.0342159  72.2431564  64.8841858  24.9903259  73.3777084
  65.6234894  25.5917358  73.2884293  64.1280746  25.4938164  73.0760040
  27.2678890   9.3365078   8.3487148  28.1529484   9.6470785   8.1578112
  26.7104073  10.1023130   8.2109146   3.9615481  48.6764832   7.9889336
   4.5511298  49.0271072   7.3213353   3.0858834  48.7936058   7.6205244
  36.8944778  42.3562622  64.8552475  35.9593315  42.2306671  65.0163727
  37.2681160  42.5123634  65.7225723  17.3718624  43.1517143  38.2657394
  18.1302700  42.8998718  37.7388420  17.5448990  42.7766037  39.1292114
  59.5256386  45.3414001  85.5562744  59.0227127  44.9863777  86.2892532
  60.4310646  45.0951653  85.7454834  44.6787682  50.5900230  54.2445869
  44.6523285  50.7758789  55.1831970  44.5059166  51.4344330  53.8282585
  20.7752285   4.8299294  85.0950470  21.2739944   4.8214450  84.2781067
  20.1057415   5.5005822  84.9599762  28.2037525  50.4491119   6.1238794
  27.2966518  50.7510872   6.0768943  28.6687126  50.9868622   5.4828892
   4.2296891  48.6207008  47.9185371   3.8716838  47.7543564  47.7248573
   4.1706176  49.0951271  47.0892830  72.3282547  20.3290424  40.0050354
  72.7005997  20.3727379  39.1243057  71.4021835  20.5388565  39.8842354
   9.6292515  41.1637993  16.5214043  10.3710794  40.7986794  17.0037022
   8.9010363  40.5753937  16.7206783  41.2136993  60.1770401  88.2945557
  42.0379219  59.6938286  88.3528519  41.4786682  61.0912094  88.1930161
  30.2198620  37.4983177  19.5830536  31.0740013  37.5173035  20.0146980
  29.7909317  36.7183266  19.9349976  40.7059097  66.2507401  61.6003838
  40.9988937  66.6793823  62.4045334  41.1683006  65.4126587  61.5935478
  76.9052887  67.4089508  37.0998421  77.5764999  67.5590363  37.7655602
  76.0810089  67.6174545  37.5395355  49.7566986  70.6059418  64.0937805
  50.7035942  70.6228409  64.2328339  49.5548401  69.6844330  63.9315987
  19.7199268  67.0328827   8.7762747  19.6193466  67.4776001   7.9346409
  20.5676270  66.5926056   8.7147274  37.2543564  33.5556335  78.3704834
  37.3115807  32.8724098  77.7025299  38.1232719  33.5717392  78.7716827
   0.4655435  21.0923748  43.3606529   0.9130651  21.3875847  44.1536293
  -0.1930704  21.7662697  43.1923561  51.4123192  63.9722176  22.9407940
  50.7802277  64.1975174  23.6233883  51.3131828  63.0272293  22.8250313
  83.1841736  14.8277149  56.0162354  82.3632050  14.9070368  56.5019913
  83.8521500  14.7123222  56.6920471   2.2972436   8.2400961  32.8844414
   2.0283659   8.0250645  33.7775803   2.4879169   9.1777401  32.9109001
  62.1410637  16.6536350  48.1563759  62.2212868  17.1356964  48.9794273
  63.0268669  16.3390846  47.9757156   9.7959070  27.8782883  45.4444389
   9.6495552  27.5895634  44.5436325   9.6432438  27.0960007  45.9744835
  10.6292191  57.2685890  13.4040308  10.3764410  56.7453880  14.1646843
  11.4148359  56.8376999  13.0673246  11.9852343  45.2716293  25.8165703
  11.0487709  45.1089783  25.7033768  12.1026707  45.3459396  26.7636280
   3.9358737  41.9803009  42.9650345   3.1486905  41.6787567  42.5115547
   3.7749915  42.9089279  43.1323662   3.5448639  20.2572670  86.5249252
   4.2854743  20.6774082  86.0876465   3.0365589  20.9835052  86.8860855
   0.7552007  44.2190628  14.8510399   1.4577405  44.8241844  15.0887299
   1.1211694  43.3502388  15.0167046  78.8916016  62.1950035  48.7139816
  79.0343552  63.0494614  49.1211090  78.3505554  62.3825493  47.9469604
   5.9478168  37.9734383  72.1204681   5.8140979  37.4235077  71.3485031
   6.5203991  38.6777229  71.8165512  42.8451309  34.0734558  87.4378052
  42.5378342  34.0545082  86.5314713  42.2177582  33.5302391  87.9148254
   5.4258347  56.3252831   6.9640622   4.6657434  56.5895500   6.4457431
   5.1201954  56.3567162   7.8706098  69.0630035   0.0977391  79.0364914
  69.1185760  -0.5745269  78.3573685  69.4830933   0.8653768  78.6485519
  84.9210815  30.9519348   6.2655735  85.2865219  31.1994953   5.4162207
  84.5324249  30.0899010   6.1170158  32.6014671  67.7009354  25.7547970
  31.7959404  67.5724716  25.2539387  32.8228455  68.6223984  25.6201496
  51.6108894  63.4688683  56.1443634  51.9568710  64.3609924  56.1191673
  52.1473999  63.0223160  56.7993279  84.7584457   9.1070681  22.7086487
  85.2551117   9.4335957  21.9583588  85.1386337   8.2479553  22.8919926
  61.1417580  30.5913181  20.0121861  60.4706078  29.9297962  19.8443146
  61.0914268  31.1800461  19.2591267  27.0055523  43.2561035  71.5438995
  27.7586670  43.0707130  70.9829407  26.3163700  43.5275650  70.9376297
  68.5348129  19.0585823   9.9183292  69.1306763  19.8016243   9.8231049
  67.9205017  19.1493149   9.1898899   8.5296307  25.0562782  83.6313171
   7.9444027  24.4525394  84.0887451   8.1229658  25.1804600  82.7737427
  18.6040440  35.6371460  82.0278931  17.6481514  35.5964546  81.9987946
  18.8667603  34.8104019  82.4325027  67.2169571  38.8570671  41.6287804
  67.0565262  39.6412086  41.1037903  67.0248718  38.1293983  41.0373116
  82.8624039  27.4251328  29.5776558  83.5420609  27.0186481  29.0400047
  83.2318954  27.4391270  30.4605598  33.3718987   4.9876404   1.7876821
  32.6269875   4.5211802   2.1668286  33.6870499   4.4104877   1.0921196
  26.9763737   0.3217386  81.9480209  26.9385452   0.1507312  81.0069809
  27.3706417  -0.4675575  82.3192291  51.9435272  17.6973877  55.2220688
  51.0277557  17.8195705  54.9717293  52.4423714  18.0510578  54.4856567
  81.4084473  36.8630524  68.4505157  81.5456848  35.9314651  68.2786331
  82.2444153  37.1670799  68.8040009  80.0533905  26.1627674  39.2648582
  80.9393234  26.4925690  39.1145630  79.7540207  25.8782787  38.4013329
  63.5589218  31.0740299  57.9821434  63.5069923  30.8068562  58.8998299
  63.5964851  32.0300026  58.0127640  71.9414597  46.8996735  87.5539398
  70.9883881  46.9325752  87.6363983  72.2656250  47.1642570  88.4148407
   3.0892403   1.6643023  73.9040298   2.9304125   0.8727378  73.3898010
   3.3252909   1.3415849  74.7737198  44.1546898  31.0170975  76.1082916
  43.5989838  30.9737835  76.8864594  44.3871040  30.1060276  75.9289398
  77.6633835  58.3586159  52.0317039  78.3508835  57.6934319  52.0649452
  77.4391403  58.5173264  52.9486351  65.9386444  13.8603344  43.2402687
  65.2040024  14.4505978  43.4079437  66.5333557  14.3687525  42.6888542
  52.6556129   5.9822006  79.7313156  53.4443207   5.7657018  79.2340240
  52.8203049   5.6310434  80.6064148  70.4654922  14.6639318  46.5576210
  70.3894653  13.7451544  46.3001328  71.2223892  14.9876986  46.0692406
  13.9356747  29.6263695  81.9085922  13.5290461  30.2403965  82.5200348
  13.3540573  28.8661385  81.9102936  76.8033066  49.6914482  44.5664635
  76.5777893  48.9463081  44.0095596  76.8175964  49.3318787  45.4534454
  56.7544289  14.9235401  87.0956650  55.9733315  15.1041985  87.6186142
  56.5413170  14.1234741  86.6153412  49.6507072  11.9350491   1.4020436
  48.7678528  11.5899725   1.2688965  49.9044113  12.2805653   0.5461915
  21.4730110  42.3308754  62.1579895  20.6665573  42.3822250  62.6710472
  21.8265400  41.4631462  62.3536797  21.1561413   2.3834536  66.3726273
  21.9203053   2.1475425  66.8985825  20.6496201   1.5737133  66.3094635
  43.3960609  66.4713669  75.7409286  43.3553505  65.5162964  75.7900772
  42.5378304  66.7307434  75.4056625  25.4330502  22.6915779  66.8198166
  25.5857792  23.1056976  65.9704590  24.5120621  22.4317474  66.7974396
  79.5595551   9.2548027  15.3154621  79.5041962   9.6070080  14.4271383
  78.7338943   9.5108471  15.7265139   6.7533126  32.0740204  28.6660881
   6.1308322  32.7166252  28.3257771   6.6071324  32.0766144  29.6120567
  29.9360409  13.7072821  72.8502655  30.6675625  13.5376129  73.4438248
  29.8493481  12.9017076  72.3405914  52.0539627  61.6408386  45.2904854
  51.4581070  61.7831421  46.0259705  52.7508316  61.0916252  45.6496048
  46.9698753  49.0762596  81.4393311  47.6072350  48.3771858  81.2933655
  47.1822433  49.4163437  82.3085098  65.5640182  67.1483383   3.6495378
  66.1397324  67.1537857   2.8848467  65.8995132  67.8504562   4.2069397
  30.9885216  61.4641228  67.9926376  31.3689175  61.7130127  68.8350067
  31.1930103  62.1968346  67.4116440  47.0540123  13.0715570  85.7232513
  46.6466255  13.3072042  84.8897476  47.6920624  12.3954182  85.4953003
  50.4783592  59.8229485  27.7887058  50.0438118  60.1684990  28.5684452
  51.1749039  60.4528923  27.6037025  41.3272629  40.5786667   7.7577457
  42.0065536  40.0951118   7.2876687  40.5494576  40.0247383   7.6912880
  24.7140923  59.9549294  75.2653885  25.1912174  60.7657623  75.0889435
  25.3227234  59.4263649  75.7815552  75.7490082   1.3120263   9.9152403
  75.6572342   1.5530066   8.9934273  76.6117859   1.6431726  10.1646185
  45.5146027  54.0390320  21.0544300  44.9698601  54.5758400  21.6300373
  45.6142082  53.2104187  21.5231609  45.5436707  37.0568962  80.7783585
  45.9971046  37.5692825  80.1089554  45.8954849  37.3811951  81.6073837
  82.1868439  61.9174385  13.6884098  83.1174316  61.6932983  13.6869030
  82.1696548  62.8681831  13.7980318   6.4004536  49.6306419  33.9110336
   6.2571902  50.2342453  33.1820831   7.0556698  49.0133591  33.5856285
  40.0878410  40.6396103  15.1712523  40.6000824  39.9612961  15.6113977
  39.1769524  40.3830528  15.3150854  48.1940918  28.0159760  70.7956772
  48.6915398  27.2456684  71.0702744  48.5760651  28.2596970  69.9525070
   1.1328450  38.7265205  42.9081535   1.8064198  38.4322281  43.5212746
   1.4059235  39.6091461  42.6578751  70.8839645   4.4829988  56.0163078
  70.4014893   3.8671587  56.5678444  70.3265152   4.6035342  55.2475739
  12.7587719  33.1757126  11.0060863  13.4139700  32.9822998  11.6765633
  12.1289711  33.7477837  11.4446249  36.2009430  19.1462498  77.3733292
  35.8241501  20.0181465  77.2547760  36.2291451  18.7755566  76.4912720
  51.2904625  42.7985153   0.3702849  51.9081573  43.2573433  -0.1990674
  51.5902748  41.8894920   0.3656651  33.5167122   5.6126308  76.3497009
  32.7064285   5.1085844  76.4245987  33.9272499   5.5354919  77.2109451
  37.8072357  28.4467487  12.8573589  37.3024750  28.3509426  12.0497255
  38.3373947  27.6511593  12.9042597  36.2977180  65.0783386   7.4537792
  36.9642181  64.6118546   7.9581580  36.6218987  65.0594101   6.5533457
  52.9154968  47.2482262  42.1613197  53.6380386  47.2013550  41.5352478
  52.2593536  46.6431160  41.8155594  65.5777817  24.7072163  36.2995872
  64.6541901  24.5157738  36.1365891  65.6131210  24.9454918  37.2259827
  52.9081802  47.0066338  35.6976738  53.6382675  47.6041145  35.8596115
  52.5118103  47.3268814  34.8873825  48.4697342  45.3387146  70.2830963
  48.7098541  45.9998817  70.9322815  47.6693153  45.6768761  69.8815918
  79.2279129  58.9601898  84.5350876  79.1101227  59.7349625  85.0847092
  78.3496475  58.7607307  84.2108994  41.3818016   4.3102355  11.1576786
  41.7141190   4.5603409  12.0197945  40.8166580   3.5567288  11.3281908
  70.1232910   2.3711743  77.7442093  70.7040176   2.9663289  78.2183228
  70.6970749   1.9185152  77.1260681  86.4111099   4.1518612   6.0863271
  86.2559891   5.0886192   6.2073836  86.4340134   3.7961159   6.9746699
  46.8509789  31.9719429  75.8321381  47.0853348  32.7311707  76.3658829
  45.9299660  31.8104134  76.0367661  61.4361725  11.9160776   1.0999603
  61.5695801  12.8520107   0.9500847  62.1375656  11.4919777   0.6055748
  18.2928181  24.3815727  85.8403702  17.8933411  24.7617722  86.6227341
  17.9850349  24.9339294  85.1217575  31.4884567   6.6720686   0.5775915
  31.6243343   7.1240244   1.4103611  32.2090645   6.0441818   0.5254793
  62.4260597   5.4075718  18.0464554  61.5221062   5.5738974  18.3137398
  62.3528862   4.7638812  17.3417988  76.2545319  47.2442589  86.8426361
  76.2689514  46.6631584  86.0821457  75.9190140  48.0741501  86.5036087
  23.8596611  12.6118250  85.2761917  22.9390221  12.4940033  85.0421524
  23.8363552  13.0326891  86.1355820  86.3704834  60.6681137  60.0092926
  86.1684189  59.7434425  59.8665276  85.6003571  61.1345177  59.6843224
  45.2153130  71.5604019  16.6303978  44.4036064  71.2301788  16.2452755
  45.2151146  71.2143250  17.5228462  44.0798836  65.6955109  23.6398754
  43.7936935  64.9751053  23.0783234  43.2709084  66.1459351  23.8825912
  49.9375076   4.1517549  71.1833801  49.0492821   4.1482177  71.5401382
  50.4786491   4.5009665  71.8915100  53.3320961  14.1473255  55.6315575
  54.1056824  14.1446066  55.0678291  53.6002579  14.6452246  56.4038391
  83.2916336   8.7230282  29.9571819  83.5791931   8.3330545  30.7826881
  84.1009674   8.8743076  29.4689960  42.6983910  42.4742088  51.4576111
  42.0420341  43.1527138  51.2993164  42.5992851  41.8689880  50.7226830
  72.4800797  48.4264755  11.2978420  72.3406754  49.0844994  11.9788733
  73.2787018  48.7086983  10.8519897  16.0419064  23.6951599  49.1939850
  15.6788464  22.9305344  49.6409378  15.8697824  23.5344028  48.2662125
  74.7220383  10.5784702  71.9337082  75.4853210  11.1381493  72.0764771
  74.9887619   9.7207260  72.2644119  49.9101448  21.1457653   3.3620503
  49.8863411  21.5279140   2.4847662  49.0196838  20.8266010   3.5085108
  15.0202827   5.1222339  51.3655663  14.8474951   4.6368237  50.5588760
  15.9310141   4.9177933  51.5777130   8.7278204  16.4189987  20.4339542
   8.7393599  16.8677692  21.2793560   8.9773531  17.0928955  19.8016338
  67.7463684  37.4220047  32.3179054  67.3114700  36.9759369  33.0446205
  68.1271439  38.2068100  32.7120171  48.8432999  21.1310120  22.7223320
  49.1036644  21.2225513  21.8057823  49.3493004  20.3838348  23.0415821
   3.2641084  70.7020035  49.2574272   3.3249454  70.4081116  48.3484917
   2.4026330  71.1147461  49.3185425  35.4667320  50.2287216  51.3567963
  35.1734772  51.1313820  51.2325478  34.7717743  49.8199768  51.8727379
  16.9427681  18.3938770   6.7888846  16.7923927  19.1516094   7.3540940
  16.7982025  18.7240658   5.9021444  15.9758358  56.0457573  11.4018145
  16.3311787  56.8417854  11.0064688  16.7472839  55.5465431  11.6699343
  17.0759468  60.4501114  15.6477737  16.6148281  60.2914886  16.4714489
  17.7084618  61.1377296  15.8559570  30.1982689  45.3022919  53.4724159
  29.3903713  44.9343567  53.1144257  30.6178875  44.5679398  53.9206085
  60.0898895  44.5122070  13.6745520  60.4189262  44.8880806  12.8580437
  59.3630486  45.0824966  13.9249630  25.4408779  61.8224831  64.8778000
  24.8954163  61.0360985  64.8952332  24.8160114  62.5466232  64.8404617
  33.7150154  54.1768799  61.7246284  33.6314011  54.9688683  61.1935959
  34.2467194  53.5859871  61.1913681  38.7187347  59.5022469  10.7752857
  37.9580383  60.0647125  10.9209089  38.8863487  59.1006050  11.6278248
  38.1840363  24.2345848   3.8918605  38.7034760  24.7560997   3.2799459
  38.8055840  23.9729805   4.5711794  31.5892353  18.3916874  63.9560089
  31.3735142  17.6107502  64.4657440  31.0311794  18.3332272  63.1805153
  23.8804245  49.2157402  65.5715790  23.6697845  49.7546921  64.8090897
  23.0293579  48.9813232  65.9416656  70.8333817  61.4463272  30.8905468
  70.8104706  62.2649117  30.3949394  70.2468109  61.5984535  31.6315060
  69.9289398  48.2748680  24.8383427  70.5592346  48.9816284  24.9778252
  69.2191238  48.6815834  24.3413754  75.8033829   2.6415443   1.4319575
  76.2857590   2.1175070   2.0714345  76.4831467   3.0656908   0.9082612
  27.9616737  54.8195953  30.7775288  27.9985085  53.8711014  30.9009533
  28.8685398  55.1094208  30.8766537  72.9792175   5.8635278  12.6931629
  73.1685333   6.2443585  11.8356333  73.7644806   5.3613262  12.9108496
  45.2903137  34.3210068  42.0624733  45.9364548  34.8783684  41.6287880
  45.6754036  34.1284485  42.9173775  78.5209427  35.4664421   4.9582977
  79.1727600  36.1422119   4.7720189  78.9804230  34.6412048   4.8030672
  24.3463478  60.3421173  38.4264946  24.4650555  59.4450951  38.1142540
  25.0961857  60.8201981  38.0723534  24.8017311   2.6269968  16.8239918
  24.8033562   1.8530895  17.3872833  23.8796349   2.7624738  16.6057835
  19.7316780  47.4600143  12.8705044  19.1529217  48.1593399  12.5668335
  20.5686016  47.6385994  12.4416742  15.6210814  21.5808830  27.1028194
  15.4006567  22.0841446  26.3190002  15.6493359  22.2310123  27.8047924
  22.5121422  33.6279793  53.9050522  22.6216908  32.7947693  54.3633041
  22.1836987  34.2281380  54.5745010   6.6915374   7.4262476  80.5911636
   5.8372831   7.7870531  80.3538818   6.8000746   7.6548948  81.5142975
  40.9372635  40.2834549  31.0936337  40.2754059  40.8859520  30.7542591
  40.4336052  39.5866318  31.5143433  43.0121155  10.9797573  61.6897697
  42.6654968  10.6313982  60.8683472  43.3993950  11.8212309  61.4485893
  25.7598133  42.7620583  74.0699844  26.1364880  43.3622055  74.7135468
  26.1862392  42.9963608  73.2456741  81.4860458  48.5824318  69.5629196
  81.5505753  49.4781609  69.8941879  81.9675140  48.0558243  70.2009659
  69.6632690  60.5176201  39.1791115  70.5903397  60.2812462  39.2090950
  69.2148972  59.7010689  38.9590263  67.8015137   3.3813131  73.3962708
  67.6359863   2.4706714  73.1522141  67.7314301   3.8661969  72.5739517
   1.9053824  53.4503899  51.7612572   1.5964222  52.5565071  51.6137772
   2.4792328  53.6313438  51.0168228  10.5642328  45.2803116  44.4922714
  10.3706179  44.3835640  44.2191582  11.5193472  45.3377457  44.4660225
   3.8132236  31.8720970  61.6810799   3.4739513  31.0193710  61.9530830
   3.1025136  32.2611465  61.1714134  69.4621277   5.1750898  53.8123093
  68.8333359   4.5082583  53.5362778  69.4751587   5.8049231  53.0916328
   3.9653656  61.9509392  87.8997421   3.1408219  61.4647827  87.9029846
   4.0071244  62.3458824  87.0288162  53.3969421   6.1143565  18.0874672
  54.0863266   5.4853487  18.3003769  53.3068428   6.0580921  17.1361809
   2.7158623   6.5907617  78.2752533   2.5169611   6.7754130  77.3573380
   1.9194282   6.8349819  78.7467194   5.9384680  38.2249947  33.7642326
   5.2931895  37.9941101  33.0959969   5.9309483  37.4843063  34.3704987
   0.8325441  26.4084225  12.9167986  -0.1238636  26.4078217  12.9557314
   1.0689234  25.4858551  12.8207493  62.7242775  56.1170654  87.3536987
  62.2388687  55.4159203  86.9189529  62.6804771  55.8973389  88.2843094
  13.7270641  61.8712502  18.5025864  13.2524920  61.5935822  17.7190609
  13.7170267  61.1030235  19.0735149  70.4327469  26.6257801  42.8132172
  71.0338364  26.5762062  43.5564919  70.9752350  26.9320278  42.0864792
  55.5087662  39.7819672  38.1260033  55.1465797  40.5164146  38.6216278
  56.4509125  39.8238831  38.2898102  33.5126114  17.1015930  12.7278719
  34.3499527  16.9239540  13.1562862  33.7295609  17.7088909  12.0205145
   7.8936276  41.0372124   8.4877939   8.6111736  41.5431252   8.1064615
   7.1025863  41.4200630   8.1084356  83.8199997  59.2817955  16.5450764
  84.4048080  58.6227341  16.9190750  84.2717209  60.1130638  16.6906071
  85.3705978  22.0613651  29.2644978  86.3095627  22.0458488  29.0791969
  85.0460129  22.8283978  28.7927570  56.4535904  20.3011837  15.3223066
  57.3510933  20.4169083  15.6342831  56.3430519  20.9779015  14.6544256
  82.4114075  18.3833942  67.3121033  82.6169205  19.1346531  66.7556839
  82.6612396  18.6623344  68.1930161  75.7347107  44.8910751  72.1599808
  75.3412552  44.8401375  73.0310822  75.8471909  43.9784050  71.8942337
  61.5801163  57.0342827  83.6407394  60.9285316  56.6394958  84.2202301
  61.6902199  56.3971825  82.9348907  84.3369064  69.6261673  59.4436073
  84.1751328  68.7372513  59.7596550  83.4642868  70.0043640  59.3352814
  76.5880203   5.4101682  71.6729584  76.4375458   4.8470044  72.4321899
  75.8815765   5.1882687  71.0663910  37.3753395   9.8546667  78.7552109
  37.4452820  10.7633448  78.4625626  37.2980919   9.9149675  79.7073822
  15.3464766  27.1064110  14.7299156  15.1187563  27.5187511  15.5631933
  15.5316668  26.1950130  14.9563904   2.9961205  69.8552704  89.0127106
   2.3811638  70.1250916  88.3306122   3.1664035  70.6543579  89.5113983
  38.9916496  55.3483620  59.4375954  38.7474213  54.5516548  58.9665985
  38.2495956  55.5210381  60.0170479  13.0302534  14.2342777  71.1295242
  13.1525812  13.7329168  71.9356918  13.8806000  14.1951704  70.6917877
  28.2693348   6.1886687  11.8670979  28.2426510   5.5721283  11.1353893
  29.2023563   6.3332906  12.0245342  18.8294964  45.3063812  16.4152260
  18.2386436  45.6557617  15.7481012  18.5082684  44.4196892  16.5790138
  31.9624615  58.3238945  59.4513893  31.6954498  57.5199318  59.8970070
  31.1406651  58.7756081  59.2594566  85.2754135  58.2761917  59.3941689
  84.8685303  57.4102669  59.4234314  85.6359482  58.3416557  58.5098839
  25.8344173  65.2639618  67.0542221  25.2778625  65.8190002  67.6004944
  26.4668941  64.8845978  67.6643753  16.9598713  39.1693954  69.6513519
  17.6041622  38.9880524  70.3356247  16.8586178  40.1211395  69.6638641
  18.6926460  64.0279846  33.8530655  18.2021999  63.3313217  33.4167671
  19.0092220  63.6271973  34.6626244  57.1577644  18.0599709  78.0303345
  57.9259720  18.3635273  78.5140076  57.4921265  17.8466415  77.1591721
  71.7798004  44.8952942  25.5254345  72.0946350  45.6660271  25.9977551
  71.7379990  44.2076569  26.1899948  40.0646553  68.5481262  16.9638195
  39.3819199  68.3331833  16.3282871  40.8800812  68.2834015  16.5380993
  60.0150986  44.3790016  48.5858917  60.9646187  44.3346481  48.6984787
  59.6645851  44.2950172  49.4726372  79.6142426  31.6065712  79.9700699
  79.4135895  30.8419476  80.5098038  79.2567749  32.3466034  80.4607773
  23.9391365  11.3909931   9.3110657  24.7958183  11.8046799   9.4168606
  23.4285679  12.0234079   8.8054934  45.6054688  41.1883316   9.4354324
  44.7972221  41.5596275   9.7891350  46.2998886  41.7411728   9.7937336
  31.1682777  42.6135597  68.2805786  31.6909733  43.0530319  67.6098404
  31.8017178  42.3671875  68.9545898  27.5121784   3.4521799  79.5589905
  28.2760773   3.9495313  79.2668762  26.8465786   4.1170993  79.7353134
  64.8058319  55.2989349  51.7411499  64.3170624  55.1698112  50.9283371
  65.1705399  54.4367676  51.9408684  24.2239132  47.0615196  84.3335571
  24.0564995  46.1432304  84.1215363  23.6288605  47.2522545  85.0586472
  51.4859238  20.9377136  78.8865662  51.3687935  19.9877167  78.8906937
  51.4558296  21.1787262  77.9606934  45.4718781  54.1103516  63.5748291
  45.4099922  55.0084000  63.2493896  46.3773613  53.8540344  63.3998032
  80.6775284  31.2154675  18.2839069  81.5148315  31.6387386  18.0941658
  80.7181396  31.0124207  19.2184410   4.7456579  57.9358406   9.0759411
   5.3195834  58.2984352   8.4011326   5.3353720  57.7073174   9.7944441
  58.9387398  38.2446938  64.4580765  59.6905556  37.9887543  63.9237480
  59.2353516  38.1275635  65.3605881  58.5637321  36.9455490  83.8139648
  58.1561279  36.0811043  83.7608109  59.4707947  36.7995796  83.5453415
  30.3491783  38.7502174   5.8598332  30.0902958  38.3016167   5.0548687
  29.6468315  38.5540047   6.4798679  11.9089956   6.0429425  71.5168076
  12.2932634   6.4932294  70.7646027  12.6235886   5.9831500  72.1508484
  60.6499901   5.8718171  71.1553192  60.2243004   5.5261822  71.9398880
  61.5280762   5.4911218  71.1718216  32.6575775  52.6429367  11.2786388
  31.7634792  52.6684036  11.6194782  32.9326134  53.5595589  11.2589931
   9.5092316  65.7677765  19.2083225   9.1394529  66.4960251  19.7074795
  10.4502754  65.9421234  19.1917992   9.4872799  37.7804604  73.6045227
   9.3752403  38.0114555  74.5266495   8.8548784  37.0776253  73.4551239
  76.8535461  56.5023613  25.4166889  76.9173431  55.6743393  25.8926506
  76.7652588  57.1657944  26.1010075   6.2486744   6.9956450   5.4485321
   6.3798795   6.9887509   6.3966722   5.7686253   6.1876016   5.2672863
  29.8215694   9.7634497  11.0948858  30.7514305   9.6918955  11.3104544
  29.7318039   9.2971287  10.2637901  30.3193340  66.1085510  45.2109833
  30.5694237  65.1978226  45.0552406  29.5807762  66.2584000  44.6208038
  15.5204077  51.0693665  84.9599075  14.7470655  50.8646431  84.4343033
  15.2296705  50.9622803  85.8655777  13.0930748  69.6145554   6.6931729
  12.8392696  69.6635132   5.7715344  12.6753511  70.3750687   7.0973592
  41.6878853  63.1591187  16.2409401  41.7629166  62.3653564  16.7706070
  40.7463226  63.2721596  16.1108818  31.2163506   6.4834552  12.2395010
  31.3393402   7.1691260  12.8959770  32.0689888   6.4060025  11.8114300
  40.5809288   7.2403479  85.6018753  39.8719025   7.8728542  85.7178497
  41.3272324   7.7669611  85.3156204  76.7914505  49.0404549  20.4365215
  77.0546951  48.1209373  20.3987694  76.5292206  49.2514954  19.5404606
  58.9865913  61.1650505   2.9906616  58.2701187  61.4928818   3.5341930
  59.7243576  61.7397537   3.1947470   0.5687543  67.0389786  35.4073029
   0.2540700  67.1427536  36.3053207   1.2965567  66.4213409  35.4784203
  30.5459690  26.1879749  87.7306290  30.1367283  26.1741104  88.5958252
  29.8859501  25.8131313  87.1474457  77.7727203  17.8824654  87.4759216
  78.6478271  17.5018902  87.5506363  77.4038544  17.8094883  88.3561783
  34.8254433  24.3776302  77.8921356  34.5818520  25.2035904  78.3100891
  35.4686317  23.9895554  78.4853745  20.6538486  44.1599007  60.2252693
  21.4747810  44.6458168  60.3039474  20.7811928  43.3844566  60.7718048
  64.2052765  26.6540699  20.4516087  64.8053131  26.0658531  19.9931431
  64.4690323  27.5307350  20.1721001   8.8052607  23.8735466   9.0566969
   8.6482401  22.9492378   8.8637466   8.7241011  24.3121624   8.2097845
  60.8248291  50.7688408  33.1542130  60.6432457  50.3844604  34.0118332
  60.3637352  50.2025070  32.5354347  33.9716454  48.0784950  20.9414749
  34.6032028  48.5989380  21.4379692  34.0282631  48.4204597  20.0492401
   7.2302146   1.5395023  23.4300632   6.9958162   1.8908817  22.5710964
   7.9540329   2.0918558  23.7254009   8.3341646  45.6637650  63.2420959
   9.0206461  45.1270523  62.8459702   7.5643849  45.5107651  62.6941376
  77.9350128  13.7247229  68.5704193  78.8178406  13.5928955  68.9160614
  77.5265350  14.3358488  69.1835327   1.7424104  45.0878754  67.3422165
   2.2181051  44.6142197  66.6598740   2.2777064  44.9774590  68.1280289
  51.5500908  22.0354557  71.1058884  50.6893997  21.6952858  71.3502808
  51.4065704  22.4676723  70.2639694  79.9978104   1.9229190   7.0467305
  80.1779785   1.1459736   7.5760012  80.1541138   2.6580524   7.6395044
   0.4961918  39.4398041  16.2609119   0.1472517  39.2629585  17.1345253
   0.1523381  38.7307129  15.7176008  84.5527573  66.1229248  11.9096498
  84.9645920  66.7373123  11.3020744  84.7296143  65.2602386  11.5345087
  11.6294413  56.5985031  52.2225075  11.0558844  57.0021324  52.8739243
  12.3680515  56.2616043  52.7296448  19.6368828  28.5129967  18.3928432
  19.9166508  28.0489273  17.6037922  20.1405945  28.1091270  19.0995235
  72.2469940  59.9728165  52.7849579  72.8916931  59.7433395  53.4542351
  72.6180267  59.6358643  51.9694672  36.7657471  55.5122910  49.2798882
  36.1729736  56.1188507  48.8361168  37.2981186  56.0697746  49.8473625
  44.6312294  29.1417770  66.6589737  45.1265984  28.4653873  67.1208649
  45.1912727  29.3882141  65.9228668  56.6416817   5.2674065  32.0377731
  56.5992622   4.3181973  32.1536827  57.1568069   5.5768924  32.7828217
  68.5948868  55.0372238  57.9106216  69.3297729  55.5288658  57.5439301
  68.1998672  55.6348572  58.5454636  39.2504425  66.1183319  50.0339546
  39.8504715  66.8246155  50.2734604  38.5439644  66.5552216  49.5582962
  12.4537363  64.8475037  33.0498695  12.1104412  65.1441650  33.8927078
  12.5229044  65.6451492  32.5252724  65.6240387  37.0752106  51.0557594
  66.5094986  37.3158455  51.3283081  65.0522995  37.5086746  51.6893616
  37.3005066  10.6620674  55.3919716  36.3480530  10.7561798  55.4064293
  37.5532684  10.6423216  56.3149834  80.2503052   9.6382265  23.2513733
  80.9781876   9.4226952  22.6683083  79.5366669   9.0685701  22.9642582
  54.1806145  49.6207314  35.7934380  54.5330696  50.4144859  35.3909874
  54.2097092  49.7958832  36.7340279  62.4826241  48.9529266  78.5871048
  62.9059296  49.3377953  79.3545151  63.0808411  48.2607765  78.3055038
  60.3918076  51.2407913  88.4085693  61.1336479  51.2818947  87.8050690
  60.3883591  52.0940666  88.8423309  38.2117462  23.1039581  61.2305031
  37.7812614  23.9504070  61.3506699  38.9467125  23.2898579  60.6461220
  70.1140366   8.7578411  11.1816864  69.2486954   9.1654081  11.1456423
  70.2461166   8.3981829  10.3045130  30.1494122  31.2213497  56.7648163
  30.2586422  30.2719269  56.8186378  30.9056454  31.5212326  56.2604218
  76.4151917  44.3610191  67.2662430  77.3469925  44.1420059  67.2634354
  76.3533020  45.1373482  67.8227615  37.5144958  28.4813309   3.5429399
  38.3249054  28.4360695   4.0503063  37.4758377  27.6453857   3.0782545
  26.6563454  54.8684692   5.5408635  27.2199860  54.7194862   4.7816896
  27.2160645  55.3253059   6.1687560  38.8583412  39.3579254  69.5136795
  39.5037880  40.0463791  69.6738892  38.9083481  39.1973114  68.5713806
  15.7418919  42.3673553  22.6058273  16.0351906  42.8216667  23.3956451
  16.5262203  41.9281769  22.2769165  82.2692947  62.9999199  69.3952560
  82.7144012  63.8458138  69.4460144  81.8752289  62.9885902  68.5230026
  20.4237919  24.8665390  69.1475296  21.1110535  24.8521080  68.4814301
  20.8594437  24.5726452  69.9475708  58.8769188  33.2996483  27.7730350
  58.9710312  33.3031693  26.8204784  59.6868973  33.6950912  28.0952015
  19.5273495  71.0347366  70.5466766  20.3925304  71.1060562  70.9499283
  19.1513615  71.9110565  70.6298523  40.1020050  23.2454185  13.5254049
  39.8567619  22.3817120  13.8572178  40.4516144  23.0755405  12.6506786
  12.0248270  65.8987732  24.2638302  12.8633623  65.6650620  24.6619129
  12.2403021  66.1027222  23.3537712   0.9031864  29.9340363  16.5807362
   0.6045176  29.5285130  17.3947258   1.1641338  29.1974888  16.0278912
  58.8706741  69.9610977  22.8587341  59.2428703  70.4625626  23.5841560
  59.6302338  69.5917435  22.4083138  46.8250999  34.4705696  29.4766045
  45.8870659  34.6422920  29.5592422  47.2425957  35.2932510  29.7318077
  34.6863060  23.2236271  82.2356033  34.7576790  23.2687435  83.1890717
  34.2539139  24.0411682  81.9888382  20.0723534  53.3212776  13.7804985
  20.2265701  52.3931503  13.9566479  20.6774387  53.5339813  13.0699625
  33.9681664  66.4405212  19.2017403  33.6309509  66.6816025  20.0645256
  34.5195122  65.6753464  19.3653088  16.4303322  28.7453480  62.0093422
  15.7513704  29.1928024  62.5143433  15.9520979  28.1141148  61.4716911
  35.7102852  27.7395210  77.8354187  35.4626312  28.6391411  77.6219177
  35.0469284  27.4508133  78.4621887  35.7983284  69.9277191  84.3290100
  35.4572601  69.5478821  83.5193024  36.2201767  70.7413406  84.0527802
  59.4751472  70.6909409  11.8385668  60.0524635  70.9533234  11.1215649
  59.7773056  71.2027359  12.5888977  71.6310272  14.2894983  57.7208443
  71.9392395  15.0178547  58.2600403  71.6725769  14.6211519  56.8238983
  26.5793667  11.9701738  86.6978302  26.3527851  11.0422268  86.6361160
  25.7389946  12.4257383  86.6481323  57.4953651  30.1820869  38.6118736
  56.9913673  30.4204082  37.8337860  58.0033226  30.9668045  38.8178482
   9.6371698  32.2162361  56.8103218   9.8192606  33.0453835  57.2525711
   9.2077913  32.4698219  55.9932785  12.7942867  42.6192894  22.9422379
  12.1502581  42.6098480  22.2341633  13.6299505  42.4474220  22.5082321
   1.7588363  14.5415192  28.9401073   0.8879080  14.1828966  29.1107121
   2.3543644  13.8083916  29.0953541  14.2653875  28.8942318  58.1460609
  13.4617748  28.8110523  58.6594009  14.3859529  28.0319004  57.7484665
  40.5027657  34.5557098  77.1197128  40.5377846  35.1377563  76.3606186
  39.9696198  35.0279427  77.7592239  27.5669880  71.2470627  23.2265797
  27.4892521  71.0550995  24.1611061  28.4622383  70.9922256  23.0033798
  33.1653175  41.6926956  44.4134560  32.9233360  41.0754509  43.7230301
  33.5137558  42.4513321  43.9451675  55.9824867  25.5767746  41.7060242
  56.3348618  26.4385700  41.4838219  56.7090836  24.9734592  41.5501328
  22.9417763  49.9349213   9.5327301  22.2443466  50.5521240   9.3116226
  22.5146122  49.0783501   9.5259476  31.0260849  13.1383801   2.6784499
  31.1399689  14.0553198   2.4284825  31.7465115  12.9639797   3.2840915
  75.8355560  51.2621231  60.6306839  75.4044113  50.5002937  60.2434273
  76.6643295  51.3346710  60.1572914  64.8395996  17.3011837  72.5732040
  65.0072021  17.4393806  73.5054245  64.2500610  16.5476093  72.5449753
   2.7335317  25.8995819  63.4031677   2.8259175  25.7139149  62.4687004
   3.0821893  25.1211815  63.8376350  13.3345566  40.7045670  59.4411392
  13.6006126  40.8527794  60.3485985  12.8589668  41.4989357  59.1981926
  35.0063629  24.7406597  65.4677734  34.2538528  25.1493893  65.0401077
  34.7626266  23.8188248  65.5517044  37.0407944  23.1251011  87.4491882
  36.3920860  22.4495525  87.2515869  36.9725113  23.2532978  88.3953018
  40.9179916  54.1528740  10.8106642  40.0934792  54.6378975  10.7764912
  41.3796310  54.4086952  10.0121193  39.3225555  68.3678970  60.1058159
  38.8143463  67.7977142  59.5288811  39.8011436  67.7663116  60.6761513
  82.8750229   3.2834332  52.1177979  81.9477005   3.1906519  52.3361931
  83.3062286   2.5771639  52.5989189  57.7579041  44.0355148  35.6922340
  57.1818237  44.2585373  34.9610558  58.4428291  43.4934044  35.3007927
   2.9638600  54.2876511   1.6357441   3.3141530  53.4484291   1.3370211
   2.8828754  54.1893425   2.5844321  14.8374834  34.9550819  61.3505859
  14.4572420  34.1485100  61.6985664  15.3075781  34.6783600  60.5640297
  31.2821941  30.4590073  68.9253693  31.0115986  31.0019283  69.6658096
  31.8918095  29.8251534  69.3032990  80.3764572   7.6871123  33.4150047
  80.5158615   7.9031692  32.4929886  81.0961914   8.1202106  33.8739662
   6.0012436  36.0798531   1.5882058   6.1671329  36.5782280   0.7879965
   6.2184267  36.6854820   2.2969201  62.2456131  46.7331734  64.7753372
  62.0743027  46.6307526  65.7114944  63.1444397  47.0592804  64.7305984
  55.9968109  52.2461395  86.2235413  55.1532364  52.0327988  86.6224136
  56.6417542  52.0294037  86.8968201  33.1262207  27.9860516   9.5948992
  33.5086403  27.5237465   8.8490696  32.2036476  28.0927048   9.3631363
  48.8798065  38.8808975   5.1470633  49.3095779  38.0474358   5.3390722
  48.4279938  39.1100922   5.9592009  29.7795658  13.9675655  63.7530785
  29.3639679  14.6730862  63.2573433  29.7126904  14.2451696  64.6666946
  59.2883759  12.8697319  22.3497181  58.4905128  13.1458158  21.8986874
  59.0379105  12.8228312  23.2723770  26.7218227  16.7790718  71.9333115
  27.2534714  16.0474682  72.2469025  27.0534439  17.5386658  72.4121399
   0.8331910  27.3435955  62.1150970   1.2576585  26.7577477  62.7418709
   0.4353161  26.7577152  61.4711456  69.4769745  18.7566700  18.5965118
  68.9865417  19.5722675  18.4939842  69.1765213  18.2041950  17.8748951
  12.2292166   2.2460721  19.7874985  11.8856430   2.8122296  19.0963726
  13.1241646   2.5553474  19.9276733  25.6673336  45.4902802  36.9163551
  24.9554329  45.5385742  36.2783127  26.3806992  45.9884872  36.5174408
  28.5971508  23.4466610  88.8687210  28.3133488  23.0692711  88.0360947
  27.8046322  23.8368855  89.2373276  16.3726959  29.8257160  67.2209396
  15.6948175  29.6231441  66.5762100  15.9302025  30.3728065  67.8698807
  62.5822105  22.9679775  23.2691917  62.9971581  23.1683655  24.1081791
  62.2443848  23.8092766  22.9620762  13.2165785  17.7997913  61.4024353
  13.0671215  18.1050797  62.2972488  12.5054827  18.1901188  60.8942833
   6.0093150  61.0993042  43.8400230   6.7042937  61.6500282  43.4795494
   5.2994704  61.1603851  43.2007866  64.5527039  38.8323517  82.1718445
  64.4118652  37.8988190  82.0139999  63.6914978  39.1651573  82.4244232
  47.6488075  37.2389526  34.6419716  47.3125076  36.8742981  33.8233376
  47.8838272  38.1408234  34.4237404  66.0884323  69.5187454  29.2837811
  66.4498672  69.0712662  30.0488701  66.2041779  70.4496994  29.4739342
  76.4744415  19.5416069  76.9501343  77.2061234  19.9377899  76.4769363
  76.2877274  20.1558094  77.6601486  50.4426651   7.9195151   9.2879658
  49.5281982   7.6408305   9.2398405  50.9280243   7.2269545   8.8396139
  72.2452774  27.3067894  69.6329117  71.4578171  27.4163342  69.0998611
  72.2388077  28.0574284  70.2268219  42.4853630   7.8352056  67.8063965
  42.0893593   8.3726606  67.1204224  43.2896118   8.2989016  68.0396271
  67.6376343  65.8709183  11.4120073  67.7441788  66.7072525  11.8652363
  66.6966171  65.8045883  11.2497711  76.6808624  16.4803505  56.6172943
  76.8116989  15.6849995  56.1010284  77.5648041  16.8130093  56.7729073
  39.5923119  54.3223572  70.5953140  40.2586937  54.7832909  70.0857010
  40.0890541  53.7248955  71.1543427  23.6034260   4.1581011  69.5489349
  23.6368122   5.0598612  69.8682251  23.5265713   4.2431903  68.5986252
  75.1914520  32.1696739   9.9437313  75.8553238  31.6055679  10.3403301
  74.4529800  31.5856438   9.7711039   6.4430876  59.6831970   7.8935652
   7.3605204  59.9546776   7.8644762   5.9578190  60.4946213   8.0430164
  81.2815552  37.2788506  37.1518860  81.8809814  36.5338135  37.1947517
  80.4612732  36.9476357  37.5174942  45.0083427  56.9036026  63.3625107
  44.9992218  57.8563690  63.2709427  44.1607895  56.6217842  63.0183258
   2.1674025  49.7488747  88.6211014   1.5078657  49.0794296  88.8030014
   2.9887300  49.2625961  88.5490799  75.9062729  45.9508667  59.7270851
  76.0405884  46.7103271  59.1601486  76.3293686  45.2281303  59.2635422
  83.6481400  14.1736364  72.3368759  83.9319611  13.9139957  73.2133865
  84.2669983  14.8560877  72.0770798  47.2906075  29.5998726  31.7664375
  47.3796806  30.0153217  30.9087086  46.7702293  28.8141022  31.5990887
   9.9534950  57.9426231  54.1236153  10.6012554  58.6088524  53.8938828
   9.1734314  58.4409752  54.3672943  46.7153435  52.4144135   5.4638472
  46.9892464  51.5353546   5.2021899  45.8539352  52.2883720   5.8617487
   1.6847960  45.5925407  25.9209995   2.2111073  46.3883858  25.8444481
   0.8705851  45.8824921  26.3323612  41.3232574  40.5142860  42.7019539
  40.9183731  40.7321625  43.5414963  41.5869446  41.3589172  42.3368492
  29.8306599  13.9348392   6.1778965  29.9463348  14.7093458   5.6274505
  30.6804962  13.8126621   6.6010776  23.6510162  64.1217270  48.1307869
  23.7202911  64.8133545  48.7888794  23.0423336  63.4887695  48.5117073
  41.1336517  26.8603706  61.9094963  41.7020950  27.5843620  62.1720619
  40.9108925  26.4209709  62.7301903  67.4715118   0.4781814  81.0587540
  67.5736465  -0.3345246  81.5540390  68.1014481   0.4026380  80.3420105
  74.8482895  24.2601547  62.9255104  74.7933884  23.7480469  62.1186867
  74.4706879  25.1093502  62.6963539  83.2850266  61.4195595  83.0367203
  82.4227219  61.6100731  82.6674423  83.8118057  62.1902275  82.8250580
  18.3479004  19.0321922  63.5075607  18.3273182  19.8384438  64.0230865
  18.4882832  18.3390064  64.1525574  85.2390366  12.5175629  83.5785065
  84.3911743  12.5674248  84.0199509  85.8531799  12.9187689  84.1934052
  50.8108063  10.0081530  38.7728462  50.9312553  10.7269793  39.3933411
  49.8781548   9.7994633  38.8261719  75.9568253  31.6354103  68.3370361
  75.6820145  32.0125351  67.5012817  76.8904419  31.8382301  68.3958817
  37.1313896  38.5937233   9.7347212  36.2386360  38.2583618   9.8169136
  37.5149460  38.4690514  10.6028061  74.4825897   8.5022039  66.5369644
  74.4462433   8.5775003  67.4905090  73.5694427   8.3965750  66.2700653
  82.7547836  70.2895660  54.3508301  81.8424835  70.2128220  54.0714378
  83.2267609  69.6629562  53.8023491  19.7931232  62.3837318  45.9790421
  18.8470001  62.3482361  46.1198349  20.0749054  63.1721191  46.4430199
  50.3288269  21.4624538  52.0901642  49.4260635  21.7264481  51.9125252
  50.3490639  21.2975388  53.0328331  67.9829941  59.1755409  49.2814598
  68.6551285  59.4462929  49.9068909  67.1641769  59.2211876  49.7751007
  85.8014832  42.3314362  60.2728844  86.5382309  42.3230667  60.8839188
  85.8680191  43.1768990  59.8290367  80.1792526  39.5980377  48.8029976
  79.9593430  38.7966995  49.2781067  79.5489883  40.2450027  49.1199226
  81.4536133  23.7905865   9.0871782  82.1696548  24.2841396   8.6872778
  81.8826752  23.2208347   9.7255516  11.5126581  32.9497681  14.6613264
  11.2267714  33.4643440  13.9065342  12.1663361  33.5001106  15.0926723
  69.3225021  19.0102425  12.5650835  69.0610962  19.2208767  11.6686850
  69.1762314  18.0674133  12.6419516  12.9596462  50.4303741  11.5154743
  13.5665627  50.3690186  12.2531195  12.0974522  50.5197868  11.9215031
  59.3392601  27.7482014   4.8028450  59.0278397  28.2486172   5.5570545
  59.8553123  27.0375385   5.1834764  68.1891022  20.7259941  55.4461403
  68.0032425  20.6968937  54.5076103  68.6386490  21.5611038  55.5755005
  20.9431477  47.6231956  75.2932358  21.3806248  47.9718933  74.5165405
  21.5083466  47.8797073  76.0219193  70.2790222  42.4638710  10.3557549
  70.9591293  41.7939758  10.2855949  70.2070770  42.8255768   9.4724522
  58.4910431   4.3724151  36.5935974  58.1772499   3.4717345  36.6744766
  59.3632965   4.3584461  36.9875603  65.6600113  55.6398659  87.4822235
  65.5258560  54.8476105  88.0023727  64.8795624  55.6996689  86.9312592
  70.1591110  26.3202209  13.2305584  70.3321686  26.8057404  14.0371275
  70.8309326  25.6386356  13.2124500  40.2340889  55.2097893  15.9232244
  40.9027100  54.6393089  15.5441084  40.7100067  56.0003433  16.1777000
  25.4046307  71.2106857   3.5247169  26.0828762  71.0045395   2.8815055
  25.0078506  72.0203018   3.2032828  49.5427589  62.9465752  41.3938141
  49.5849648  62.0369949  41.6889648  48.6364212  63.0642509  41.1093102
   1.0213510  13.8615026  11.5751867   0.6489154  14.6677227  11.9323034
   1.1371870  13.2933130  12.3367472   4.0334444   9.9560270  82.9726181
   3.7990119   9.1475840  82.5168839   4.9439631   9.8261051  83.2377777
  76.0865402   8.9121056  60.0572929  75.7613068   8.5153751  59.2491760
  75.5545349   8.5179911  60.7485809   8.8492289  20.5475178  73.1762390
   8.3331079  20.6113300  72.3726349   8.3990183  19.8831501  73.6979218
  68.6100540   5.2392831  48.0818901  68.4649582   4.3157740  47.8761978
  67.8139420   5.6790700  47.7835159  34.0352287  33.2680359  63.3304291
  33.5977516  32.6488190  63.9147339  33.4025345  33.4235725  62.6291885
   4.1747069  45.7901764  23.2755756   4.7104239  46.3587799  22.7224655
   3.9073262  46.3488350  24.0053997  43.1423264  69.4507370   4.0075541
  43.2690964  68.8615875   4.7512374  42.2932510  69.1988297   3.6444519
  19.4489613  19.8821526  77.6811371  18.7116089  20.4650593  77.5001373
  20.1537037  20.2061462  77.1202545  42.4007111  45.8792343   7.5295844
  42.2676315  44.9543037   7.3221679  41.7219582  46.0802803   8.1738720
  68.4412231  24.8781872  57.4173241  69.0007172  25.5972271  57.1237602
  67.9845276  24.5917778  56.6263580  78.3427200  50.5731010  77.5813522
  79.1187820  50.8529091  77.0959091  78.6622162  49.8896332  78.1704483
  46.4223442  60.8159714  82.4470825  46.6392212  60.3931274  81.6161804
  46.1204872  60.1013832  83.0078659  47.0561142  35.3779602  46.4147797
  46.1811371  34.9963646  46.3438339  46.9106827  36.2395592  46.8055916
  50.2267418  41.9238739   8.9265919  50.1821976  42.8522720   8.6978416
  50.9784279  41.5920219   8.4355984  16.6227207  63.8755379   2.5984962
  17.2592640  64.1408691   1.9346864  16.0221977  64.6179733   2.6647732
  75.5835724  45.2969780  28.7810192  75.2648010  45.5376930  29.6508904
  75.3111115  46.0209885  28.2172718  59.0940056  55.2895889  54.6089859
  58.2817345  55.3796844  54.1106606  58.8108559  55.2429886  55.5221596
  29.1036377  55.5826378   3.1454234  28.6559868  56.4043579   2.9438951
  29.8066425  55.8335724   3.7446318  50.4976768  27.6064968  39.5838089
  49.5903206  27.3366203  39.7255783  50.4752045  28.1012726  38.7647095
  45.4423103   4.3332243  74.4164963  44.8638306   5.0903563  74.5078430
  45.5505142   4.0053859  75.3092728   2.3745630  61.5466843  53.9904709
   2.6820629  61.7386513  54.8763771   2.9389076  60.8342438  53.6901779
  49.7599983  30.4864273  39.6922836  49.6615677  30.0531750  40.5401268
  48.9568634  30.2705860  39.2183456  52.4582100  70.3880692  64.5898972
  53.2421837  70.6682129  65.0622635  52.5943527  69.4537354  64.4327164
  27.7251740  58.6802025  32.1036797  27.0263596  58.4132919  31.5064793
  28.1564751  57.8615761  32.3487549  61.4622650  30.7792130  43.8495407
  61.2889671  29.9364605  44.2690277  60.7606659  30.8749352  43.2054710
  41.1465225  47.4522591  61.3507195  41.0456848  46.5452881  61.6396294
  41.5330734  47.9014969  62.1023788  59.4938927  67.2907257  46.3156128
  58.7788200  67.1819687  45.6886559  59.2388611  66.7531433  47.0654106
  29.5362625  59.6808395  26.3056107  30.2889252  60.1063690  26.7162914
  29.7754707  59.6109085  25.3814240  27.3628616  70.7567902   1.6056813
  27.8598747  71.0199890   0.8311264  26.5755634  70.3403702   1.2549798
  26.2227020  27.0022354  68.4300842  25.5691051  27.1425247  67.7449875
  27.0624657  27.0484352  67.9730377  81.2079697  64.6582870  57.4721298
  80.8528214  63.7986336  57.6981773  82.0939102  64.4765244  57.1585960
  47.1571808  25.5335999  38.8276825  47.1679001  25.3166580  37.8954506
  47.1120186  24.6860924  39.2703133   4.8796177  56.6100616  45.9083290
   5.7637329  56.2456017  45.8666000   4.4992471  56.2259407  46.6982689
  66.2503204  13.2384682   7.2981706  65.4206009  12.9463863   7.6756353
  66.1787109  14.1926184   7.2717094  15.2474957  65.9701920  50.4174194
  15.3353701  66.6452408  51.0903320  15.9485674  65.3475266  50.6098175
  57.0014915  40.7999458  33.0784950  57.8070831  41.3071938  33.1782570
  57.0913963  40.0819550  33.7051010  67.5331039  37.1304550  87.7084503
  68.2313919  37.6299477  88.1316910  67.7426147  37.1692924  86.7752686
  63.3599129  20.6886044  53.7497597  63.3922539  20.6934662  54.7064018
  64.0183868  20.0438194  53.4911270  32.6188126  60.3475800  51.5634918
  33.1451759  59.5818863  51.3335228  31.7416515  60.1409149  51.2408295
   1.1412095  28.6983318   3.9252827   1.8735973  28.2994900   4.3951383
   1.4118482  29.6058216   3.7858202  38.5843811   3.2624667  55.0206718
  37.9095192   3.4501767  55.6730194  39.1134109   4.0594835  54.9871826
  56.6603165  41.6103401  46.6682320  57.5884933  41.4637909  46.4859123
  56.2508545  41.6562614  45.8042488  29.6773815   6.6912713  73.5181656
  28.9451637   6.3377337  74.0232391  30.3245792   6.9413695  74.1775742
  34.4808006   4.5896530   7.9453111  34.6940269   4.3560710   8.8487520
  35.1957397   5.1641445   7.6713448   6.6118851  53.9602394   6.5589519
   6.0640197  53.1759796   6.5907311   6.1127477  54.6207199   7.0394278
   2.7335801  37.8498535  44.9312630   3.4960485  37.2716599  44.9074516
   2.0318327  37.3062172  45.2893753  23.5069122  17.4100876  89.0006104
  23.5071278  17.9012127  88.1790085  24.3443298  17.6277542  89.4099808
  14.8685780  41.5267487  77.6518784  15.2276344  41.7697372  78.5052643
  13.9492846  41.7899323  77.6950760  67.1061630  12.7572975  53.6276512
  66.5452499  12.1604071  54.1229553  67.5120544  13.3124495  54.2934532
  78.0149689   6.2207131  40.5341911  78.0389862   6.2833695  39.5793457
  77.8225021   5.2995019  40.7090034  76.7445221  63.5346565  83.6295547
  76.0696182  63.4503670  84.3030853  76.3636398  63.1197662  82.8555908
  49.6573067  10.5974464  27.6709194  50.1953354   9.8083181  27.6073952
  49.6431580  10.8030777  28.6056652  51.4526062  58.8514900  85.1206284
  52.0118332  59.2441101  84.4502945  51.1341438  59.5950279  85.6324539
  46.1272354  65.7245483  81.5263062  45.5621376  66.0528336  80.8269272
  45.9349136  64.7878799  81.5698547  21.2911053  60.5064888  47.5503807
  20.9140892  61.0662422  46.8715820  21.3750305  61.0785370  48.3132362
  58.4678268   2.8629534  53.6855965  57.7918663   3.4667678  53.3778343
  58.0228577   2.3143961  54.3316002  12.0925961  22.7074585  60.3897858
  12.7091808  23.2061176  60.9258766  12.0344181  23.1998672  59.5710182
  52.4081116  14.0235310  52.3743248  51.7649956  13.3151693  52.3449821
  53.1927757  13.6194439  52.7447891   9.0992842  38.4476166  27.1070862
   9.4683475  37.5885849  26.9019260   9.0069704  38.4473000  28.0598240
  56.0404053  24.0295792  14.9887428  56.1366501  23.3570976  14.3144007
  55.2493401  24.5073452  14.7393665  18.9075756  33.7431030  53.8814697
  19.4812946  33.0033188  53.6819649  19.3946609  34.2570572  54.5255394
  17.9822559  22.1584721   3.1523998  17.6097393  22.8683243   3.6754427
  17.9566135  21.3960381   3.7305603  86.4913254  23.2866611  75.5739288
  86.8305740  22.4966316  75.9946442  85.5630417  23.1020851  75.4309235
  85.4197540  38.3411255  48.0006714  85.6992645  39.2306519  47.7842178
  86.2352829  37.8460503  48.0783997  57.5144501  39.5670395  27.0017319
  56.9184799  39.2429771  27.6770344  57.3175583  39.0329552  26.2321758
   7.0705743  61.2408791  59.7508545   6.5982971  61.0064278  60.5497398
   6.8628111  60.5382957  59.1348648  36.6957359  47.7539024  74.9185104
  37.2396317  47.0191269  74.6347580  35.8051109  47.5001678  74.6763535
  81.6434937  58.3810120  28.4922161  81.9621124  59.2466545  28.7479000
  81.1313324  58.5389366  27.6991310  57.6840248  36.8485870  31.9494438
  58.1395645  37.3503075  32.6254578  58.2354088  36.9383049  31.1721649
  81.7421417  14.8408031  43.6116409  82.1319885  15.1418018  42.7908783
  81.0313797  14.2599020  43.3403358  45.7095337  67.4957352  74.6515656
  44.8391991  67.1815796  74.8966141  46.0876389  67.8166275  75.4702835
  76.9898834  65.0918579  66.6211777  77.5352402  64.5073395  66.0947266
  76.1394806  64.6543427  66.6614990  85.9621201   3.8869510  44.4317169
  85.4763260   3.3461804  43.8089714  86.6645203   3.3177707  44.7461929
  12.8279057  67.1853485  31.7302837  12.1546574  67.4738998  31.1140785
  13.5221767  67.8394012  31.6500664  69.5404892  61.7140045   0.9958598
  69.3546066  60.7838593   0.8673640  69.7402420  62.0417023   0.1189654
  35.4858932  51.8149338  46.6835670  35.7032814  50.9969559  46.2364769
  34.6206894  51.6584587  47.0619431  82.6418533  43.4974136  23.3779621
  83.1525269  43.8291664  22.6394596  82.6999893  42.5451012  23.3007984
  39.4175720  24.9033394  38.7463799  38.4605751  24.9228973  38.7484741
  39.6744232  25.7799644  38.4603920  52.4842606  46.3466988  16.1485481
  51.8328972  46.9520988  16.5027428  52.0992393  45.4795685  16.2753410
  29.3561325  20.2942410  78.9768677  29.0448074  20.9896431  79.5562820
  30.2801704  20.1893635  79.2035522  48.8914795  57.4769974  54.3876648
  49.3755150  56.9131470  54.9910011  49.4016151  57.4551811  53.5780220
  83.0437393  52.9775543  25.0300465  82.1266937  52.8009415  24.8201370
  83.3757019  53.4553642  24.2699604   0.7390288   9.6581383  67.7894592
   1.5781949   9.7937164  67.3493958   0.0832592   9.8533201  67.1200562
  41.4718323  17.9545898  81.0528336  41.9497108  18.1686478  81.8541031
  41.9480591  18.4126873  80.3603134  22.5242329  54.9870872  41.5570984
  23.0928936  54.9030342  40.7917290  22.5160065  54.1127357  41.9465485
  58.5039902  15.9657898  46.0778465  58.8611794  16.4362259  45.3246307
  58.1360893  16.6510715  46.6357613  65.3871841  55.5636215  10.2717743
  64.4690170  55.3440895  10.4299097  65.8551559  55.1878166  11.0174322
  33.1118050  63.6807289  22.7357082  33.5606308  64.2559433  22.1160984
  32.2129555  63.6328087  22.4101276  38.7663956  57.0577660   6.9571471
  38.1343269  57.2617340   7.6464348  38.6385117  57.7454948   6.3037663
   0.0314429  66.7602234  58.0395813   0.7023863  66.7447128  58.7220955
   0.3526115  67.3983078  57.4024544  53.3362045  70.6698990  81.1905365
  53.7014618  71.5323029  80.9928436  52.4074783  70.8347473  81.3534164
  56.0060730  27.6627178  88.0237198  56.3825264  26.9261208  88.5053177
  56.5271034  27.7164307  87.2225494  81.4525681  50.0196686  84.9364471
  81.1667480  50.0444260  85.8496399  80.9740295  50.7342796  84.5162430
  22.9400520  45.4887238  54.6495399  22.4961414  44.7337952  55.0358849
  22.6080952  45.5286026  53.7526321  74.7260513  43.9747009  64.8448944
  73.9157410  44.4497910  65.0290909  75.3022842  44.1907234  65.5780487
  45.7228127  43.6689110  48.2850952  46.1942291  44.3134956  48.8128395
  45.3654327  43.0518265  48.9236221  73.9615860  23.6355801   0.7699198
  73.3078156  23.8974190   0.1216531  74.1531982  24.4384403   1.2546152
  69.2176743  54.6515923  64.4435959  69.0519867  55.1593704  63.6492767
  70.1348953  54.3873863  64.3720016  56.6102486  31.2307339  23.6967869
  57.1002541  30.5002155  24.0742378  55.7233238  31.1279030  24.0417786
  22.0911293  69.9453506  86.4405899  21.3061409  69.6388550  85.9866180
  22.4216614  70.6576080  85.8931732  48.5121498  35.6302986   9.7212849
  48.0722580  36.4606361   9.9036608  48.7002449  35.6598778   8.7832136
  46.7511444  63.9682693   7.0963311  47.5362778  63.7890053   6.5789738
  47.0522270  63.9444809   8.0046339  49.1690140   3.1474028  43.0141907
  49.2896156   2.7068906  43.8554001  48.2194748   3.2034032  42.9071083
  60.3277550  26.8018456  71.2853012  60.2982101  27.1818180  70.4072495
  59.8429565  25.9802036  71.2071533  31.4258823  51.2851486  53.6908188
  31.9452686  51.4934349  54.4674072  32.0497818  50.8836479  53.0860214
  35.1988907  40.6697769  49.9405098  35.7521019  40.4267693  50.6828995
  34.3081665  40.4744148  50.2314949  33.5003929  60.4927216  34.4493866
  32.8071289  61.0589371  34.1102524  33.2205620  60.2781982  35.3392792
   1.7459532  46.2965660  57.6934891   1.2689729  46.7309799  58.4006004
   2.6625006  46.3290520  57.9675636  59.4732819  32.4667206  22.4896812
  60.1368332  32.9899635  22.0400696  59.9605865  31.7336140  22.8656044
  40.1304474  12.6261244  82.1530151  40.0029411  12.8093414  83.0838242
  40.6157150  11.8012342  82.1355515  54.9698105  19.2540531   8.8138952
  55.8909760  19.4875717   8.6991959  54.9098282  18.9544563   9.7210197
  35.5307655  51.5426369  19.5660496  34.9069176  50.8653984  19.3045292
  34.9984818  52.3313828  19.6698895  72.9679337   4.3033338  22.6739216
  73.0603561   5.2510557  22.7714596  72.7048340   3.9977393  23.5420341
  57.0335236  31.1413422  66.1174088  56.9081192  30.6665287  65.2957916
  57.9831810  31.2254448  66.2028961  68.4994659   5.9702334  50.8481407
  68.3896027   5.5682249  49.9864273  67.9206161   5.4684691  51.4220772
   1.3969297  43.1012115  73.4217224   1.6202322  42.5865173  74.1972580
   1.6721041  42.5557327  72.6848602  48.9949417  44.7065125  73.3815994
  49.2285805  44.3745346  72.5147476  49.2075043  45.6391411  73.3461990
  74.8905487  62.2200050  69.9974823  75.4913406  62.8483086  69.5968399
  74.3458557  61.9136391  69.2724457  62.5975266  49.4212341  46.6473274
  62.4264412  50.2564812  47.0824471  63.2366714  49.6322212  45.9667358
  50.9763451   7.4960866   2.4888983  51.0560989   7.3238645   3.4270940
  50.0334435   7.5575352   2.3359680  76.9658661   0.7193859  74.5622101
  76.2669220   0.1831114  74.9365311  77.2368164   0.2450977  73.7761612
  29.1440868  39.2007294  82.9412613  29.0771236  39.8771515  83.6152115
  28.4329815  38.5920258  83.1413727   0.7954138  28.5421333  26.0691967
   1.1369880  28.5276527  25.1751328   0.7821039  29.4696083  26.3055134
   8.4063072  51.6882973   9.5709448   8.2025785  51.3998947   8.6812534
   8.3719101  52.6438599   9.5267525  12.8609610  47.4192772  21.1857719
  12.5868797  48.3361588  21.2067432  12.6805553  47.0951233  22.0681610
  70.7232132  13.6621542  14.3997869  71.4296646  13.4903145  15.0223846
  71.1712036  13.9252558  13.5958481  71.9162674  10.9327602   5.4907732
  72.8694229  10.8522339   5.4555101  71.7261887  11.1280937   6.4083500
  50.8914452  70.9380341  85.0599136  50.8608246  71.8766632  85.2450485
  51.1995430  70.5429688  85.8755264  83.3228149  60.5698051  88.9580536
  82.6925201  60.4234276  88.2526932  84.0765381  60.0291557  88.7217636
  65.0072327  28.2737541  32.9999695  65.3732071  27.9286556  32.1855965
  64.0662613  28.3313904  32.8341942  51.1009598  70.4973679  57.2254372
  50.6094208  69.8975906  56.6642876  50.8185616  71.3693085  56.9493942
  20.1364212  30.5857220   7.4101968  19.9357758  31.5028725   7.5967698
  19.2987785  30.2066689   7.1439166  77.0583725   8.2132797  44.1775856
  77.9467239   8.0647421  43.8535347  77.1808090   8.5668774  45.0586166
  84.9310074  59.2826309  38.9569321  85.1775436  59.5790672  39.8330460
  84.0361404  59.6013718  38.8392258   4.3870792  61.7974854  79.0213089
   5.2623982  62.0132256  78.6995850   4.2971282  60.8583717  78.8594284
  67.9654694  26.9495201  12.1553564  68.2484436  27.6770535  11.6014118
  68.7778015  26.5895481  12.5114088  24.3169575  51.4178467  53.4131546
  24.6199226  51.7637863  52.5736504  24.9751873  51.7094727  54.0439644
  24.3105297  69.7177277  28.9976025  24.5507908  68.8931351  29.4201679
  24.8887482  70.3683243  29.3958683  85.3798141  52.8584328  43.8975754
  84.4399109  52.7126274  44.0050621  85.7537613  51.9790688  43.8417549
  79.0448074  40.4397583  46.4320641  79.3970718  40.2618065  47.3041153
  78.5709229  41.2657356  46.5291405   2.5922124   9.5708303   6.0595560
   2.5994384   8.8201618   5.4656911   1.7037673   9.9206972   5.9925485
  24.8192616  64.9371796   4.4394374  25.1860752  65.6898727   3.9756134
  25.0445099  64.1852493   3.8916268  45.2538834  61.0065155  44.1394348
  44.5853844  60.8834114  43.4654999  45.5768318  60.1238213  44.3205109
  11.7226124  65.7173843  65.5935974  11.1205053  64.9777985  65.5117035
  11.7028217  66.1386337  64.7342987  67.7963181  47.2624130   1.6375381
  68.3329163  46.9881210   2.3812180  67.5376205  48.1598854   1.8469331
   3.4695671   6.0338526  84.1184845   2.8317387   5.8592014  84.8105164
   3.1089132   6.7827353  83.6437912  25.8610954  -0.2347654  60.8929977
  25.5437737   0.6607187  60.7761803  25.9630032  -0.3311513  61.8398666
  86.3778839  55.8864365  85.1521301  86.5176849  56.8332253  85.1354294
  86.9317551  55.5500832  84.4476242  64.8903351  66.1983948  24.1524658
  64.7591934  65.2598419  24.0177269  65.0704041  66.2830963  25.0887527
  31.7520580  20.3287754  80.8760757  32.5751877  19.8563442  80.7515793
  32.0046082  21.2520256  80.8838577  40.9719429  70.4648666  28.1544514
  41.7869682  70.6489182  28.6214523  40.7803345  69.5495453  28.3586769
  65.4789734  55.7725716  73.9834213  65.3941803  55.0945511  73.3131027
  65.2845383  56.5893936  73.5238342  56.5303307  25.2198029  82.3636551
  57.3844376  24.8947430  82.0789185  56.4496078  24.9198933  83.2690659
  78.7406311  27.3385582  26.9276371  78.0745010  27.6091728  27.5595169
  78.7399139  26.3824596  26.9735222  56.5760422  43.6500893  22.1182060
  55.9691963  43.1836700  22.6930313  57.4436989  43.3611679  22.4009285
   7.1608653  47.5320396  50.4364853   7.3246021  48.1780434  51.1235809
   7.7095914  46.7847672  50.6746368  21.9145088  53.4929085  24.3856392
  21.1713696  54.0606270  24.1814957  22.2944736  53.2799568  23.5332832
  58.5757523   0.9921569  62.7725830  59.4183388   0.8809793  63.2129517
  58.3834038   1.9261316  62.8558006  26.0651455  69.8903198  74.8582993
  26.4605942  69.0186539  74.8653412  25.3057270  69.8041534  74.2820282
  49.7277946  15.1178226   2.7748227  50.4514313  15.6607828   3.0875087
  50.0217056  14.2188921   2.9223726  71.1521912  64.3976364  48.1636200
  70.2146988  64.3211975  47.9861641  71.4596558  63.4929771  48.2209473
  77.8587799  25.7826862  53.3020439  77.9439011  26.7246246  53.1545982
  77.0298538  25.6876411  53.7711792   7.9661298  48.1611786  21.3993301
   8.5766983  47.4240685  21.4096584   8.2174368  48.6695671  20.6282139
  39.7975426   6.5481181  20.9156876  40.3655663   5.8293896  20.6381779
  39.1559525   6.1365056  21.4946251  29.2341537  15.1102781  68.5423965
  29.3764629  14.1648426  68.5885620  29.4955444  15.4342060  69.4043579
  65.2451782  11.4894047  63.9045639  66.0486984  11.2714109  64.3768616
  65.3762054  11.1263237  63.0286446  74.4311295  20.2629089  24.0808582
  74.2678604  20.4260464  25.0098133  73.5845871  19.9801998  23.7349224
  35.0267296  36.1723824  55.5871506  35.1519699  35.3766251  55.0701256
  34.2168694  36.0172043  56.0732384  47.1750565  19.3525753  80.8950577
  47.8684578  18.7669258  81.1991043  46.8315239  18.9289303  80.1084595
  36.0141296   9.0996828  72.6787643  36.9336929   9.3635225  72.6466904
  35.9929428   8.3814745  73.3111877  82.3467178  34.3220596  69.1591339
  82.4241486  33.8731651  68.3172760  82.0954666  33.6339569  69.7752686
  33.5662727  56.2323418  81.3462143  34.1611595  56.0312920  82.0686493
  32.9150658  56.8204079  81.7287521  24.5993633   8.5898676  71.7998276
  23.9243793   8.5375834  72.4765015  25.0470257   9.4183197  71.9715729
  38.8731194  49.6498566  69.1734924  38.3541107  49.4433403  68.3961792
  38.4253769  50.3979301  69.5686417  77.0564499  63.1161919  40.8882751
  76.1557388  62.8074722  40.7900810  77.5702667  62.5395699  40.3228302
   2.1779544  44.0623512  17.9232082   2.6490860  44.2803688  18.7274075
   2.7438128  44.3813286  17.2201519  85.1398926  46.0148582  10.2514544
  85.0016708  46.8803596  10.6362047  85.7654648  45.5892448  10.8377476
  67.0568390  39.5854874  48.7961082  67.7281418  40.2196617  48.5443077
  67.1025620  39.5550079  49.7517281  80.6838226  58.0255127  77.2915878
  81.2184601  58.7275810  76.9207840  79.7845840  58.2658463  77.0683441
  37.0543861  50.7898331  34.4165878  36.5462837  51.5901909  34.5488625
  37.6849670  51.0166664  33.7331047  18.6783371  42.6851692  57.4157333
  19.1464806  43.5021782  57.5876884  19.3596191  42.0128288  57.4221916
  81.1029510  15.2138643  29.9884109  81.9074631  14.8948202  30.3973255
  80.4168777  15.0217419  30.6276474  34.8576164  63.8229713   1.3649362
  34.8384705  63.2311821   0.6128380  35.2639084  64.6224670   1.0303351
  39.6223717  55.7735634  67.0681534  40.2599411  55.5582314  67.7488632
  39.0040932  56.3648529  67.4974976   9.8777637  47.7230911  60.7009544
  10.8034515  47.7126999  60.9443207   9.4691229  48.3088226  61.3382645
  55.2743950   0.0713452   9.7057447  55.7374382  -0.3892311  10.4055233
  55.2923813   0.9907755   9.9713688  21.1380920  66.7395248  80.1616364
  20.4680882  66.4006577  79.5679169  21.2035980  66.0787048  80.8510208
  72.6571655  16.7240868  18.3246975  72.7521362  17.5730553  17.8928795
  72.6875610  16.9262714  19.2598057  31.6440296  61.0474892  27.2194576
  32.5368118  61.1615982  27.5452633  31.4729118  61.8381462  26.7077789
  53.2208595  63.5099945  40.1801720  53.3007584  63.4873772  41.1337662
  52.4285126  64.0220566  40.0182877  63.5232811  21.0253048  47.5755997
  62.9437408  21.6680813  47.1666946  64.3448563  21.1006203  47.0902443
  79.9085541   5.2023883  62.8707542  79.5078735   5.9395723  63.3314552
  80.3163071   4.6809235  63.5621605  10.1784458   2.4124198   4.3937497
   9.4525709   2.0675490   4.9137516   9.7559547   2.8862126   3.6773322
  20.3930283  36.0483818   7.9005413  19.4409218  35.9529724   7.8756113
  20.5758228  36.7809105   7.3121395  19.5424366   7.5483966  17.0932655
  19.8494892   8.4244080  17.3268318  19.1732044   7.6500053  16.2160091
  49.2272377  21.1797752  37.6196404  50.1164894  20.8280392  37.5778236
  49.2229652  21.8962383  36.9849014  15.5727301  52.9124298  22.3203754
  16.4821148  52.8792076  22.6172733  15.3315239  53.8360939  22.3903522
  69.3507996  43.1848984  64.1046143  70.1682587  42.6987267  64.2125015
  69.6199188  44.0280724  63.7401085  10.2333279  36.6027107  67.5337372
  10.3761225  36.8510742  66.6204147  11.0995255  36.6630516  67.9365921
  34.7695732  63.5629005  75.4656143  35.2321358  63.3883629  76.2852554
  33.9010735  63.8582573  75.7389374  45.7742577  70.8757095  87.8167877
  45.6894112  70.1650925  87.1811371  45.9821815  71.6462326  87.2883072
  13.5480824  67.6553268  40.6789894  13.2134266  68.5014114  40.9762802
  14.1876173  67.4032669  41.3450928  25.7809410   0.7103755   5.9813695
  25.8903847   1.6332880   5.7522702  25.5118904   0.2909916   5.1640806
  50.0485611  67.9863968  65.9010544  50.9295959  67.8231888  65.5643463
  49.4971085  67.3483124  65.4483032  48.0233765  10.7219009  40.2183189
  47.4832764  11.4996595  40.3583641  48.1249657  10.6687927  39.2680092
  84.9057770  43.5451202   8.9533682  85.6428528  43.4516945   8.3498526
  84.9773865  44.4412918   9.2819691  46.8400955  29.5401993  81.9947662
  46.6628151  30.0124874  81.1812820  47.5671120  28.9561234  81.7790527
  39.6645241   6.1635680  63.7103806  39.1174660   5.5711122  63.1946678
  39.0561218   6.8243728  64.0411682  15.9897289  53.7828712  85.9009933
  15.8585491  54.4240799  85.2025146  15.8634672  52.9351692  85.4747391
  23.6046314   8.7806664  10.2947798  23.7728214   9.7096968  10.4524040
  23.7596989   8.6648684   9.3573484  50.3722305  43.2766762   4.2619958
  50.6486893  44.0037613   4.8198085  49.4427223  43.1627617   4.4601521
  52.1548500  21.0823689  37.5747795  52.4921532  20.3007221  38.0123672
  52.9064827  21.6730995  37.5266800  10.9402637  54.3925896  47.5083618
  11.8962936  54.3470192  47.4955788  10.7132845  54.8832321  46.7184372
  59.5784187  25.2326050   3.0674253  59.5217438  26.0312691   2.5428736
  58.6818581  24.8982449   3.0922701  86.3641357  59.4837608  78.5348740
  86.5809479  60.2854652  79.0107956  85.9972382  58.9018898  79.2004929
  11.9425573  51.9787178  77.2468796  12.6367159  52.6360970  77.2940750
  12.1438227  51.3666267  77.9547501  77.4435501   8.2016878   5.1371474
  76.8498993   7.7965422   5.7693400  77.6780167   9.0412159   5.5326886
  35.3143463  42.3596344  21.3121510  35.9694481  42.0444031  21.9348087
  35.8226280  42.6394768  20.5508575  77.7213593  40.3340263  21.5299110
  78.4014130  40.1881447  22.1875420  76.8990936  40.2129860  22.0047436
  39.2040977  41.5819054  54.9031181  39.7972527  40.8954163  54.5979462
  39.7787437  42.2344513  55.3033714  29.8865204  30.6024036  75.9876328
  30.2853069  30.4372978  76.8419952  29.6331863  31.5250397  76.0158310
  55.7579384  57.1332092  16.3754883  55.3335381  57.2489853  15.5253630
  55.9370155  58.0238380  16.6770611   9.0009975  66.8273315  85.3018036
   9.8521471  66.8977356  85.7340317   8.8161554  67.7136002  84.9910126
  11.5161285  15.7051783  76.4183273  12.1894426  15.1892691  75.9748001
  11.3932743  16.4712143  75.8576736  30.1180172  71.1309204  22.0896492
  29.6355476  71.7886047  21.5887375  29.8785458  70.2976761  21.6839676
  77.3692322  43.4366074  35.8949471  77.5505753  43.3034630  36.8253326
  78.0842438  42.9867821  35.4447899  33.4157906   0.5222354   8.4342136
  34.0071144  -0.2192278   8.3045959  33.5811386   1.0943102   7.6847987
  13.5666380  26.3031578  78.2923431  13.4211464  26.0454884  77.3820267
  12.7309084  26.1315689  78.7263260  49.6506577  36.8141899  75.9647903
  48.9478989  36.3825188  75.4789658  49.9887428  37.4750328  75.3604584
  22.8602657  48.9801292  79.7185745  21.9549446  48.8579979  80.0044250
  23.2168503  49.6304131  80.3237228  60.4066544  24.2517014  63.8924332
  60.0543861  23.6986084  64.5897293  61.2047806  23.8039989  63.6117401
  57.5611382  18.7959404  47.2482605  56.8961563  18.7787743  46.5599785
  58.0471382  19.6055698  47.0916100  60.6395912  69.9085464  15.7414703
  60.3647614  69.1889877  15.1731977  61.2900391  69.5178757  16.3250122
  12.3298817  46.4126816  39.5079384  12.5229368  47.2002869  40.0165024
  12.0107641  46.7422752  38.6678391  49.2561684  69.6541214  51.9731865
  49.3988914  70.3747025  51.3594894  48.3219681  69.6951599  52.1776810
  71.1096268   6.1548796  19.7396240  70.3301620   6.7070251  19.6778851
  71.6894836   6.4813099  19.0515594  35.9325371  56.3246574  41.9650650
  36.8844910  56.2252235  41.9763374  35.6875763  56.3897820  42.8880959
  68.8852386  27.4243774  35.4911461  68.9216919  26.4847450  35.6700096
  68.0862122  27.7203770  35.9272270   9.0346813  54.1189461   7.9886398
   9.5654669  54.7819023   7.5470667   8.2523146  54.0363388   7.4433775
   4.4920759  41.2896576  64.7726440   3.8727677  40.5696106  64.8918991
   5.0181890  41.0302658  64.0162354  21.5293293  25.1258736  12.8185186
  20.6134567  24.9155083  13.0006075  21.6333790  26.0270557  13.1239271
  71.2330246  70.9285736  10.6562576  71.8997421  71.0793152  11.3263330
  70.9241409  71.8043976  10.4244223  71.9232788  52.3833351  30.6527634
  71.0767365  52.5565033  30.2409248  72.4179916  53.1940460  30.5334339
  22.8764935  41.7290001   9.9619112  22.6110191  41.2088280   9.2035074
  22.5537567  42.6100960   9.7728548  56.2024841   5.7021708  22.0019894
  55.9718781   6.5672660  22.3406086  56.4108200   5.8535514  21.0800819
  74.2011795  64.4548645   8.4401217  74.6107864  65.0532837   9.0648994
  73.8564987  65.0251312   7.7529383  55.1384048  15.3761187  63.7347755
  54.2852402  15.5169973  63.3242912  55.1683998  16.0123520  64.4492950
  64.3799286  51.3540764  79.2851868  64.4034348  52.2064629  79.7200623
  65.0539017  51.4120445  78.6079559  83.7754059   9.0120249  56.0581779
  82.8822098   8.7239437  55.8699188  84.2166214   8.2273130  56.3834343
  46.2170906  22.6228237  10.2060032  45.3821335  22.1880989  10.0325184
  46.8307838  22.2154427   9.5947332  45.3416939  66.7972107  25.9531555
  44.5116997  67.0382233  26.3645649  45.0879097  66.3528976  25.1441956
  25.2477016  11.6956902  80.0478516  25.2615948  10.7485600  79.9100723
  24.9354801  11.8024540  80.9463806   6.3188071  32.0108070  64.5387955
   6.2149100  32.2413063  63.6155930   5.6658616  31.3274078  64.6899872
  25.4246063  46.8140717  58.7728844  24.8346252  47.0869141  58.0702400
  25.5723724  45.8819351  58.6131401  37.0512924  48.8457146  66.9111252
  37.0429497  48.3264847  66.1070404  37.5236206  49.6442757  66.6756821
  74.1847382  66.3847733  82.4025421  75.0684433  66.6427002  82.6648102
  74.0835419  65.4960632  82.7434082  74.3696823   5.1993985  52.0367546
  75.1372528   5.4519663  51.5236549  74.7301865   4.8617558  52.8566742
  67.8144302  41.5203857  57.0486755  67.9023514  40.5740509  56.9348717
  68.5317154  41.8911095  56.5345764   6.0885315  62.8123474  10.8165426
   5.9306836  63.4619751  10.1314898   6.9041505  62.3838577  10.5569382
  13.7385283   7.7685084  59.3150978  13.3637619   8.6489286  59.3404465
  13.1767330   7.2864408  58.7082787  45.6079140  61.2716866  19.4221249
  45.4098053  60.4052963  19.7775860  45.1409874  61.3004456  18.5870285
  74.2416306  41.6313210  38.0796013  74.0386429  41.8203850  37.1634789
  75.1918564  41.5170822  38.0957298  81.8900223  49.4181862   0.7979600
  82.7389755  49.2997437   0.3719598  81.4521561  48.5728302   0.6985721
  74.2492905  64.2919388   4.4167204  73.4682846  64.6951675   4.0376678
  74.5528030  63.6804848   3.7457302  42.8136864  67.2738876  87.4035950
  42.8469925  67.4576797  88.3423996  42.2424965  67.9539337  87.0465164
  68.0157471  48.4998016  58.6896973  68.7241745  49.0417137  59.0371056
  68.2386398  47.6100082  58.9632301  52.6632996  48.4328880  30.3496552
  53.0094948  48.0463371  29.5453186  52.0464592  47.7809906  30.6824818
  17.2569599  60.9878693  38.0010338  17.7011471  61.3352509  38.7745018
  16.3458710  60.8827324  38.2750664  56.3194847   7.9255648  55.6042480
  55.4564781   7.5288744  55.7229309  56.8369980   7.2476330  55.1697121
  58.9306145  35.1636467  17.7772694  58.6890373  34.2401886  17.8486328
  59.6365051  35.1772995  17.1309223  77.3170624  59.3102875   2.0552886
  78.0274124  59.0301552   2.6324863  77.6391983  59.1270943   1.1727347
  78.8228912   0.9862719  76.7916489  78.2719269   1.6014807  77.2755814
  78.3487473   0.8316589  75.9746323  20.6010532  49.8853188  21.5642815
  20.1837368  50.6196175  21.1138573  21.3308620  50.2804375  22.0412445
   9.2053165  54.2063408  27.7865982   9.0717249  53.3263893  28.1388340
   8.8756952  54.7903328  28.4696331  76.9337387  67.4557800  85.1964874
  77.5313187  67.9865646  85.7231827  76.3985825  66.9892654  85.8385162
  54.3815956  34.8269424  47.8622780  53.5898628  34.7857628  47.3259048
  55.0012398  35.3324814  47.3362503  35.8221931  38.8605957  62.7342567
  34.9605103  38.4561081  62.8348961  36.4164429  38.1247978  62.5869446
  38.4918289  41.8018150  42.3141632  37.7155685  42.1977119  42.7102928
  38.1498871  41.0797501  41.7869720  77.8507919  47.5214500  52.1239166
  77.9513092  48.3285942  51.6192932  77.0726547  47.6701889  52.6611481
  30.7313213  66.8862305  58.3575821  30.4263783  67.4951706  57.6849518
  30.1076221  66.1608734  58.3245087  25.6248894  69.5147552   6.9628825
  26.4030190  69.7078247   7.4858270  25.3056087  70.3725891   6.6828504
  56.9879417  23.2022800  32.1308784  57.7913284  22.9174805  31.6953354
  56.2831993  22.8646908  31.5780621  84.3029099   2.8217843   5.1422935
  83.7667313   2.9191213   5.9292297  85.1683731   3.1380203   5.4015279
  65.2216263  19.6218929  64.1359634  65.2728043  20.0725956  64.9788666
  64.2834244  19.5256252  63.9724159  21.3534184  54.6166954  34.2860069
  22.1159153  55.1940918  34.2479477  20.9026394  54.8680611  35.0921402
  55.6203995  70.5383301   2.0301051  55.2121201  70.2076263   1.2299956
  55.0514297  71.2551041   2.3107152  51.8432465  47.3218422  69.6864777
  50.9681664  47.5724258  69.9825745  52.3397408  48.1402130  69.6869507
  48.9637413   8.0179071  46.9540939  48.6288223   8.6765471  47.5625763
  49.6803703   7.5961847  47.4282494  28.9289265  -0.1440709  88.3867340
  28.3443031  -0.0941514  87.6304550  29.2544956   0.7492602  88.4971695
   9.4327641  50.4178238  50.1884766   9.5180912  49.6899071  49.5727768
   9.4831638  51.2015533  49.6412430  74.2584152   3.0641558  27.7946777
  75.0702362   3.2417762  28.2696934  73.9032135   2.2796004  28.2124519
  49.1286926  13.3942137  12.0380611  48.9967651  13.9721107  12.7896347
  48.2741508  12.9869595  11.8961611  11.6263151   4.8647346  55.2273941
  11.2822275   4.0508237  54.8594513  11.7227812   5.4464846  54.4734116
  80.2550278  60.5602531  24.8333874  81.0360718  60.7293320  25.3602734
  80.5368881  60.7128792  23.9314499   8.6670065  45.0873032  54.2295189
   9.5994749  45.2990494  54.2730942   8.3036747  45.7299767  53.6202621
  66.9352951  52.7996712  68.2301636  67.4807968  52.2204514  67.6980286
  66.3527908  52.2086182  68.7072067  45.7090950  35.1789474  18.4807816
  45.5070763  34.7221985  19.2973595  46.2466087  34.5598907  17.9867382
  11.4639130  42.9075890  31.2216434  10.7351627  42.4467087  30.8060207
  11.4248381  43.7929688  30.8599701  82.5753479  47.4618492  34.7391014
  83.2266998  46.8731117  34.3578415  83.0460587  48.2842064  34.8747292
   7.1274614  68.3815155  57.0734749   7.7929282  67.7043762  56.9515152
   6.2996874  67.9413528  56.8803902  16.1026630  10.1448336  20.9118500
  15.1898050   9.9888153  21.1538849  16.5050926   9.2764053  20.9226284
  35.8237915   7.6632423  38.9663925  35.0905190   7.5926528  38.3552017
  36.6011963   7.6704373  38.4079819  46.7900620  26.0023956  86.4764862
  46.7186089  25.1067696  86.1463699  47.0141258  26.5244522  85.7061081
  49.9295540  63.7613258  85.7787704  50.1095428  63.4175072  84.9037704
  49.2455292  64.4168930  85.6424789  70.1569366  17.0690289  53.6404839
  70.3581009  17.4605942  52.7905197  69.2405548  16.8015709  53.5701141
  40.6229057  50.9263763   7.3354216  41.2415543  50.3154793   7.7358055
  40.3262253  51.4764099   8.0604582  33.4324417  21.5369949   9.3516455
  32.8661728  20.7659836   9.3182869  34.0853577  21.3843670   8.6685371
  55.1065331   7.1244464   2.3948514  55.7811165   6.6936073   1.8699291
  54.7572403   6.4296637   2.9529760  70.0338364  30.1560783  36.2224350
  70.5226593  29.8457165  36.9846420  69.4410934  29.4356041  36.0084229
  64.5340347  61.0443954  21.4437428  64.3018799  60.9272842  20.5225353
  64.9099808  60.2036972  21.7047462  85.3772659  45.3193893   5.3024688
  84.9665298  45.6644287   4.5097041  85.4748840  46.0818138   5.8729177
  53.1623497  13.3236322   4.5866208  53.3344383  12.8693991   3.7618232
  53.5125008  12.7395639   5.2592945  20.4411106  47.1065903  28.0283260
  19.9268913  47.3193130  27.2495079  19.7901821  46.8575096  28.6844406
  62.6936378  14.1944838   4.0242958  61.7696724  14.1228628   4.2638664
  63.0348244  13.3050032   4.1172867   4.7046847  24.4681301  82.2689667
   3.9639452  24.9101753  81.8540802   4.9849319  23.8161831  81.6265869
  10.9710178  22.3619804  86.6035309  10.7416191  23.1410942  86.0969849
  11.6088762  22.6731281  87.2458344  57.6577225  27.9139061  85.7903595
  57.7137909  28.7112255  85.2637024  58.5110931  27.4942799  85.6812363
   4.2478328  34.3011856   5.1337352   3.4621396  34.7538567   5.4403410
   4.4772091  33.7081985   5.8492665  77.0285416  36.4144592  49.1929474
  77.9514236  36.6458359  49.0881500  76.9304810  36.2385635  50.1287231
  65.3704681  31.6378021  78.6744614  64.5706406  31.1227360  78.7803116
  65.4726410  31.7295837  77.7271652  25.5951328  49.2247658  89.0980072
  25.9914188  50.0276909  88.7596283  25.9986343  48.5241470  88.5856094
  40.5332336  36.8009529  82.9356003  40.6551056  37.7377701  82.7814789
  41.2549744  36.3847961  82.4642944  72.3923264  32.3902168  50.7992706
  72.7924423  31.5219822  50.7511787  72.1514893  32.5933533  49.8954086
  47.8423233  27.0862331  84.0654449  48.7071457  26.6879368  83.9671021
  47.6614876  27.4799423  83.2119141  62.8125267  41.7434502  56.4962502
  63.4277649  42.3153038  56.0372353  62.0676117  42.3085175  56.7012520
  85.4589386  27.0822811   4.2007651  86.1845627  27.6537971   3.9496219
  84.9361801  27.6101055   4.8043900  64.6898804  65.2205124  71.6135025
  64.3364334  64.3995895  71.9561234  64.2608414  65.3303375  70.7649155
  11.1439362  68.2379074  83.6240005  11.9339542  67.7595520  83.8755493
  11.2500534  68.3994370  82.6865158  25.5877304   5.2642584  79.7217026
  25.6633511   5.6653414  78.8558807  24.7840710   4.7462769  79.6763535
  80.2047653  35.2961731  83.8251953  80.3448868  35.1593323  84.7621460
  80.2397766  36.2462502  83.7140274  79.9323959  45.8700829  33.3889122
  79.2649994  46.1926575  32.7833061  80.3266068  46.6618919  33.7547989
  52.6468925  46.3468132  20.3088284  51.9878349  45.9342041  20.8670692
  53.2316399  46.7951088  20.9198399   0.2684273  35.2249832  11.7026987
   0.4600945  35.9839973  12.2535133  -0.1114686  35.5966072  10.9065790
  18.2390442  14.7204399  78.1669312  17.9657440  15.6332340  78.2582855
  18.0501156  14.5040922  77.2538376   1.8236623  36.8673477  21.9132080
   2.7720253  36.7736511  21.8234272   1.7017690  37.2463379  22.7836895
  38.9403076  18.0037994  82.9374008  39.3910713  18.4106941  83.6773148
  39.5946732  17.9853802  82.2390442  51.6415329   1.0530722  31.1804943
  52.2686501   1.7431589  30.9643059  50.8072090   1.3709335  30.8353920
   4.0711393  37.4077377  67.1690216   3.6247406  38.1365089  67.6001358
   4.8088093  37.8141060  66.7141190  82.6358185   0.0020581  63.1480293
  82.8045959   0.7225302  63.7552071  82.8892136   0.3462755  62.2915611
  35.5255508  53.8103409  81.9951859  36.0524254  53.8367767  82.7938919
  36.0487862  53.2965317  81.3799896  31.2089157   6.3661499  81.5554047
  31.7546272   6.5846910  82.3108292  30.8383102   7.2037406  81.2773285
  67.8005905  57.6896248  13.7263565  68.7378082  57.5966721  13.5554419
  67.5162506  56.8130760  13.9852839  14.7424002  65.3764420  25.5515175
  15.4650021  64.8211288  25.8442802  14.8187866  66.1688690  26.0829735
  24.9225426  45.7341805  72.1137085  24.9959068  46.6692810  72.3045883
  25.0497704  45.6722755  71.1670227  76.5848007  35.8241959   7.1638808
  77.4095612  35.7061539   6.6926408  76.0308914  35.1046181   6.8611884
  26.8368855  26.3814449  71.1924210  26.5156136  27.1029739  71.7331696
  26.4518833  26.5384369  70.3302383  47.9296112  44.4329948  86.4093933
  48.3142509  43.6815987  86.8607101  48.6819572  44.9451523  86.1128998
  47.7229958  12.5685139  67.3520355  47.8371468  12.3959246  68.2866058
  47.1063042  11.8979950  67.0582199  10.4985523  54.5547791  72.8781204
  11.2007294  54.6996384  73.5123062  10.9437466  54.2176590  72.1007004
  77.2056198  19.0725822  12.4845390  76.5159683  19.7105160  12.6679726
  77.9812393  19.4265919  12.9196529  71.6819305  27.1625233  40.2566566
  71.7571411  27.8051834  39.5512733  71.1241226  26.4739304  39.8948326
   0.9060891  56.3663597  76.5790939   0.4929695  56.6447945  77.3964310
   1.8246274  56.2278671  76.8100510  -0.2753489  36.8281288  20.0611687
  -0.1465783  37.4051018  19.3083401   0.5075132  36.9552917  20.5970669
  64.9401703   4.5372024  41.4750710  65.2199707   3.6826549  41.1469040
  65.1977844   5.1532168  40.7892189  62.4056473  13.6976261  85.7681885
  63.2838135  14.0030107  85.5406036  62.5091782  12.7571306  85.9130325
  65.2229691   0.6884792  15.3062859  65.5476685   0.4422749  14.4401512
  65.3078461  -0.1086390  15.8293829  85.5513077  22.2567825   8.6986837
  85.3385773  22.7292728   9.5035000  84.7693405  22.3471546   8.1540756
  29.3519726  56.6415482  17.5177746  30.2808857  56.7919922  17.3425102
  28.9783516  56.4283905  16.6626701  20.7261105  59.0454559  14.2241154
  20.5576038  59.1795578  15.1567745  19.8728466  58.8136253  13.8574734
  43.3800125  49.6134033  27.3144855  43.6577759  48.9817886  27.9779167
  42.4236412  49.5836754  27.3410282  66.3632431  30.2922535  36.2356377
  66.3950119  29.3730640  36.5008049  66.5276184  30.2753620  35.2928047
  45.2600288  33.9103775  58.2140274  45.8141861  33.4990044  58.8772888
  45.1256180  34.8024559  58.5339622  26.5634460  22.9453297  76.8574295
  26.9464397  23.4327221  76.1280441  26.7385674  22.0273628  76.6502991
  67.1748123  69.7987137  57.2610779  67.4393539  69.5289459  56.3816032
  67.5869522  69.1591644  57.8418999   7.3616476  46.9911308  43.6382866
   7.1001158  46.0712280  43.6784859   6.9631939  47.3183937  42.8318329
  61.8198128  42.7947884  83.3627167  60.8706512  42.7144203  83.2685852
  61.9979515  43.7227478  83.2097778  44.9711494  24.8098125  14.2800455
  44.1907082  25.3263111  14.4809761  45.6771660  25.2478485  14.7553291
   1.3515999  64.9378815  50.4113998   1.0736775  64.3066177  51.0750999
   1.3177420  65.7843933  50.8569374  78.8058319  20.3829231  43.9290695
  77.9397659  20.0799103  43.6563988  78.9882355  21.1304874  43.3597641
  56.9646416  32.1392632  49.5606842  57.2730522  32.3241005  48.6735840
  57.7449341  31.8415108  50.0283623  48.2809868  66.7884750  79.8151550
  47.5596390  66.2244797  80.0940781  48.1952591  67.5727081  80.3572464
  28.7921276  49.2923203  47.9221497  28.9625778  50.2270699  48.0380173
  28.4569168  49.0029907  48.7707672  59.3081284  34.4799728   8.2432594
  59.6479683  34.8460999   7.4267473  58.7701454  33.7378845   7.9673719
  67.3883820  39.5346146  68.5188599  67.4290009  39.5429230  69.4751587
  67.9651871  38.8156090  68.2608719  35.2458725  65.4384155  50.6352577
  34.3950348  65.4879684  50.1995354  35.0958519  65.8243561  51.4982605
  43.2524872  55.3624802  81.3351822  43.2606888  54.8202744  82.1239624
  42.3710022  55.2530479  80.9784698  71.8026733  49.4921875  41.4403267
  71.7050934  48.9695206  40.6443825  72.1619797  50.3258781  41.1368637
  37.8237991  19.3482437   3.1402981  38.1294327  18.6097164   2.6136115
  37.9036751  20.1054325   2.5601971  52.2716713  14.4536133   8.0831547
  53.1791992  14.7470598   8.1638441  51.8045998  15.2127819   7.7342443
  71.2088699  39.1557846  62.4488602  70.6404343  39.9115105  62.5971565
  71.3691788  38.8013725  63.3234634  82.8081284  16.0577049  87.2998962
  83.1959915  16.2752972  88.1475067  83.5007782  15.5910358  86.8322601
  28.8316727  34.5000381  12.3291960  28.8371124  33.7754364  11.7037716
  27.9142799  34.5856476  12.5886040  53.2949219  57.6870232  56.9540138
  52.7021637  58.2158546  57.4880600  53.0720062  57.9150543  56.0514946
  31.9306602  46.6228714  67.0716324  32.6994820  46.5183563  67.6321793
  31.9885807  47.5229149  66.7510071  46.0872421  31.9262981   4.4092412
  46.1440048  31.0971317   4.8841043  45.1484680  32.1019897   4.3454485
  14.8022327  47.5284996  33.6987419  14.8182344  46.7427673  34.2451820
  13.8814859  47.7895813  33.6815605  45.9207687  44.9494324  58.3408318
  46.0063896  45.7887459  57.8886642  46.5417061  45.0042763  59.0672340
   1.1636373  70.3061218  32.5617142   2.0385754  70.0228653  32.8271942
   0.7775072  70.6696396  33.3585777  19.3318729  33.0591049  83.4157562
  18.6122799  33.0189095  82.7858353  19.1947441  32.3016472  83.9846878
  61.8075066  43.6199150  85.9396896  61.8777161  43.1794815  85.0927429
  62.5864716  44.1741982  85.9867172  72.0926590   5.3510170  38.8328667
  72.5529404   4.7260575  39.3930435  72.0802383   6.1629610  39.3396454
  79.5878525  55.1871567  21.9636478  80.4958649  54.9230881  21.8153057
  79.3155365  55.5838242  21.1361618  67.2061844  10.7010832  80.1910934
  67.4372025  11.2712002  79.4577255  66.3255615  10.3886585  79.9834137
  38.1346397  68.1930008  30.4096584  39.0797462  68.3400040  30.4469452
  38.0388222  67.2411728  30.4424381  54.9777603   4.0126562  17.5471268
  54.4132957   3.3117528  17.2210159  55.5460701   4.2263646  16.8071384
  32.8557777  46.8518524  61.8874741  32.9098511  47.8020897  61.9892502
  33.2418594  46.6806183  61.0284920  60.6284142  35.4320297  55.0490723
  60.4717216  36.2768974  55.4708252  61.0486298  34.9009285  55.7255211
  23.3727245  30.4712982  63.5055275  23.5636826  31.2952194  63.0572815
  22.5282478  30.6201763  63.9308815   3.1185303  48.3733826  17.6965828
   3.3092966  49.0428581  18.3535767   3.2673669  48.8110580  16.8584194
  74.7269287  59.9563103   2.4301851  75.5191879  59.5234833   2.1120350
  74.9415436  60.8890381   2.4162781  52.8864288   5.8114433  50.9695129
  53.2668953   5.9997201  51.8274345  51.9415283   5.8065801  51.1223946
  40.8352318   1.4080747   9.1536551  41.2345390   1.4744372  10.0210562
  39.8977013   1.3238827   9.3273783  66.4228897  23.0624466   8.3023558
  65.7720566  23.7642803   8.3109951  65.9235306  22.2702675   8.5006456
   0.0706986  20.8792782  15.3756495  -0.3306663  21.2054501  16.1810989
   0.3766696  20.0003357  15.5994148   9.3262949  31.3303986  76.4640808
  10.2100983  31.6857204  76.3699036   8.8786545  31.9510174  77.0391312
  14.2203064  58.9678574   7.5165501  13.7950964  58.2210808   7.0949435
  13.5110807  59.5921402   7.6698413   4.8873997  64.9851456  19.8344421
   5.3934684  65.6444626  20.3092289   4.3344288  64.5805359  20.5028343
  37.9822578  57.9956474  34.6500702  38.5828362  57.9841156  33.9048157
  37.2297821  57.4804268  34.3592720  49.0368233  66.2836304  22.8656731
  48.3416214  65.6319885  22.9567242  48.9441376  66.6092300  21.9703369
  65.9924927  47.4930496  31.3809204  65.1513824  47.1695366  31.0582733
  65.9689178  48.4344025  31.2090816  70.9878082  23.7560921  56.9914932
  70.2635727  24.2868614  57.3231430  70.5707932  23.1143646  56.4165878
  85.7088928  31.3953342  11.2789984  85.7369919  32.0357132  11.9898834
  85.3259964  30.6131458  11.6762400  34.4058075  49.3153648  18.4162102
  34.9016838  48.6078568  18.0041733  33.6418076  49.4327393  17.8516235
  34.9937096  40.7407799   1.9622546  35.6206627  41.4484825   2.1116416
  34.7653275  40.4339333   2.8397052  38.7009926  66.1792755  58.4252930
  39.3507385  66.3985062  57.7574577  38.3873405  65.3094254  58.1778831
  66.7607727  65.5803757   5.6011181  65.9919739  65.4862595   6.1635427
  66.4134674  65.9168854   4.7750602  80.4445038   3.6552351  48.8214188
  80.3990860   4.2489276  49.5708809  80.5475006   4.2322578  48.0646667
  11.3316393   6.9522090  87.3666916  11.7322636   7.7498307  87.0209579
  10.3967581   7.1531000  87.4099579  19.3870029  12.4165764  86.0962296
  19.7107048  11.7637043  85.4755783  20.1565971  12.9425631  86.3137131
  78.4014893  61.0419960  67.8295288  79.1976852  61.2797050  67.3543472
  78.2607727  61.7667389  68.4387741  74.9349136  29.6979237  30.9693260
  73.9788361  29.6686821  31.0053825  75.1304703  30.4418983  30.3996868
  16.1777363  57.8032341  48.6472321  16.5560551  58.6433449  48.9066963
  15.3373232  57.7677078  49.1040421  33.1670189   8.4273996  78.6772537
  32.2796326   8.1244116  78.8695526  33.6190758   8.3951902  79.5203629
  22.3573017  26.5028305  19.1937904  22.5825729  26.6866035  20.1057720
  23.1103325  26.8167210  18.6931438   3.7947869  16.6199665   3.4072497
   2.9072385  16.6266975   3.0488582   3.6888752  16.9058552   4.3145990
  43.5314827  59.3989754  27.0117683  43.4714050  58.6492462  27.6038284
  43.4424248  60.1624184  27.5822563  50.8031921  57.6919441  63.3129730
  51.6631508  58.1095390  63.2648163  50.1915169  58.3693085  63.0244179
  58.6109848  23.1885052  59.7803307  59.1329727  23.9397945  59.4986877
  58.3260269  23.4133701  60.6660309   8.0995464  59.9636383  63.8671799
   7.6041603  60.2266655  64.6428375   7.8152261  59.0661278  63.6943703
  56.5567093  49.3216553  10.8403893  56.8659668  50.1107330  11.2852964
  55.8652687  49.6318092  10.2556276  19.0060120  24.2567596  79.6827621
  18.0722313  24.3989410  79.8379059  19.4282017  25.0454216  80.0233536
  64.8721313  38.0813217  67.7424927  64.4148560  38.7870026  67.2851639
  65.5530777  38.5252533  68.2479324  79.0155182   1.4081478  64.6083298
  78.9607697   1.0016397  65.4731903  79.5940781   2.1603739  64.7334366
  77.4952927   1.9218866  67.1788712  76.7266541   1.7359440  67.7181702
  77.9534531   1.0836816  67.1177521   4.6554217  56.7650909  32.4567795
   5.0060406  56.2988434  31.6978912   5.4287095  57.0155220  32.9622917
  60.2673492  14.6969490  86.6802597  61.0806580  14.2702141  86.4107056
  59.6253014  14.4246740  86.0246201   2.6110342  16.9909821   6.2233162
   1.8329316  16.9322758   6.7777004   3.0308464  16.1349678   6.3083549
  58.8720093  51.5495834  50.4569931  58.9765396  52.5010529  50.4603653
  59.1884537  51.2708168  51.3162842  39.3180923  45.8050385  85.4446259
  39.6871147  45.4972992  86.2724838  38.3848038  45.6021843  85.5083084
  72.5017395  42.7105064  30.6620197  72.8671112  41.8632774  30.9168472
  71.8032608  42.4941025  30.0443401  51.1816406  60.3765297  33.3767357
  52.0541229  60.3179359  32.9874115  51.0915680  59.5704727  33.8850594
  45.4876862  71.1157684  68.1759491  45.0219002  71.3352356  68.9828568
  44.8241348  70.7075272  67.6198273  41.0803528  54.5022125  64.6339340
  41.6938820  54.6346207  65.3566208  41.2483101  55.2338791  64.0400620
  12.0400743  48.2174263  33.9534073  11.9604626  49.1462097  33.7360268
  11.1881351  47.9838333  34.3220062  65.7000504  64.8801651  47.1709938
  65.3568649  65.6794739  46.7715302  65.0600967  64.2053604  46.9444427
  22.6859741  35.8739243   0.9779050  22.6420212  34.9221916   0.8856930
  22.6323624  36.0258713   1.9214464  19.0923939   6.8286867  84.6286850
  18.2710342   6.4406266  84.9303665  18.9242992   7.7709956  84.6232071
  75.9735489  41.9443512  61.5415649  76.4273224  42.6177292  62.0483971
  75.7846451  41.2533417  62.1764297  51.4602509  43.0325546  69.8949356
  52.0773773  42.6768074  70.5343323  50.6047325  42.9502411  70.3162994
  56.4638901  43.6239548  37.9869270  55.5219193  43.7850876  37.9325523
  56.8225937  44.0321770  37.1989441  22.2475529   9.7719784   1.8973062
  22.3144093  10.4829531   1.2599080  21.5522041  10.0495682   2.4936848
  18.4210129  19.7623501  16.9041824  18.1166840  18.9753342  17.3560905
  18.3190136  19.5591927  15.9743671  31.3759251  14.3013086  88.2246475
  31.0147552  13.4397202  88.0161896  31.8216248  14.1778069  89.0626984
  38.0424805  66.3099594  80.8286209  38.3687668  65.9921341  79.9867477
  38.7215843  66.0643082  81.4568787  31.3978500   9.1032085  63.2626534
  31.9377270   9.4908724  62.5738297  31.1469135   8.2466898  62.9167671
  85.2515182   8.9844990  46.4786530  84.7633972   8.4229574  47.0808487
  85.4604721   8.4161491  45.7373390   4.5392356   5.6312804  75.8963394
   4.9001164   6.1520047  76.6138687   5.0453205   5.8978395  75.1288376
  78.4263840  63.7382507  23.4003506  78.7662277  62.9167099  23.0456600
  77.4749756  63.6415710  23.3590660  55.0456314  25.8835278   9.7243023
  54.9730682  26.7840538  10.0405626  54.1714478  25.5143948   9.8498936
  62.5616226  67.4051514  15.5571413  62.1447220  66.5797882  15.3097506
  63.1582642  67.1686859  16.2673073  58.6580048  29.3596554  19.3880730
  58.2329826  29.6424198  18.5783615  57.9390221  29.0577221  19.9431705
  71.3256531  28.6826782  21.6551018  70.4056625  28.4447384  21.7701588
  71.6256561  28.1353416  20.9293938   5.2491393  38.0975876  39.6998863
   6.0195432  38.6155357  39.9332123   4.6679816  38.1787071  40.4561310
   7.2983642  36.9919357  42.1254578   7.5443721  36.0704269  42.2062874
   6.4524422  36.9756317  41.6778183   0.6508632   5.7759519   0.2102240
   0.1599114   6.5794678   0.3821546   0.0476356   5.0714245   0.4468457
   2.1092901   0.2904507  61.3418694   2.4852276   1.1538475  61.5134735
   2.3304930   0.1102032  60.4281883  53.9371796  57.3663864  82.6513748
  54.6023865  57.6777306  82.0375366  54.1666298  57.7802353  83.4834290
  14.8244028  61.0141487  67.3736496  15.2579212  61.8660851  67.3236618
  14.3301334  60.9486198  66.5565567  60.4645309  68.5763550  48.7085114
  61.2942314  69.0453568  48.7972221  60.2257881  68.6840286  47.7878380
  35.0721474  30.2207108   6.7876616  35.5017929  31.0355568   7.0477772
  34.1396790  30.4362659   6.7712288  81.9955902  39.5157585  51.5600777
  82.1586761  38.9158134  50.8322716  82.8199005  39.9899979  51.6688690
  54.8943176  10.9872818  51.7530518  54.9655762  11.6933937  51.1107445
  55.4602852  11.2617884  52.4745483  82.8460312  22.1525879  39.6765251
  83.0175858  22.8316727  40.3289375  82.5331726  22.6313992  38.9090004
  68.1554718  46.3257904  64.9541168  68.0216217  46.6122169  65.8575974
  67.9543152  45.3900566  64.9672165   2.7703896   3.2609777  31.6504364
   3.5022957   3.6338017  31.1589622   2.7729650   2.3327756  31.4166298
  62.2307396  62.0408516  25.6443291  62.7840042  62.4768257  26.2924461
  62.5538635  61.1401482  25.6206474  54.5851555   3.4268389   6.5607061
  54.4325142   4.3536782   6.7448306  53.7086754   3.0460758   6.5056295
  79.6537628   6.0508418  15.8645258  79.8554459   6.9753871  15.7203970
  78.9992599   5.8417530  15.1980886  67.8314972  60.2051849  70.5055313
  68.5005569  60.7581024  70.9091034  68.2648468  59.3618240  70.3744659
  10.3526487  10.9160442  20.9652748  10.6152439  11.7385397  21.3785267
   9.4106054  11.0092888  20.8235283  18.4745522  48.8606453  22.8416538
  18.1630173  47.9655609  22.7074738  19.3258419  48.8859825  22.4047356
  78.9901047  30.1698875  49.9576340  79.8352509  30.1502781  49.5086708
  79.0777893  30.8716259  50.6026993  55.6155624  51.9999542  46.6738892
  56.1719170  51.2374649  46.5147858  55.5452652  52.0504227  47.6271706
  33.7189598  65.2681427  69.1083984  33.8283005  65.9306335  68.4262085
  33.2470512  65.7201843  69.8078156  55.4493294  24.9251919  45.1096115
  54.6728630  24.7893944  45.6526489  55.2881355  25.7574310  44.6650581
  53.6036987  18.5871239  59.4936142  53.1492882  18.7378178  60.3224907
  53.3226509  19.3092384  58.9316597  37.7309036  31.3194733   3.8361070
  37.5986633  30.4284115   3.5124526  37.0258560  31.8272667   3.4345052
  58.3664360  54.5481796  46.4487267  57.8513222  55.1707840  45.9356461
  58.1234894  53.6908569  46.0991402  43.2208672  40.5707855  29.6158009
  43.1424026  41.5081673  29.4386158  42.4699745  40.3688736  30.1740322
  55.9255447  30.4426403  44.4963722  56.3934402  30.5025578  45.3292656
  56.0730286  31.2904816  44.0772705  53.0160866   8.8097486  76.7738113
  53.4601517   8.0025177  76.5141678  53.6402702   9.2520809  77.3491135
  50.4062996  54.5701637  40.5712967  51.1202736  54.2002983  41.0905991
  49.8146515  54.9554100  41.2176476  56.1933708  42.2719498  64.4677811
  55.5119057  42.5339622  65.0867996  56.9386787  42.0332565  65.0189438
  84.3857040  71.2307053  75.8433685  83.5443192  70.7826309  75.7565918
  84.1939621  71.9980011  76.3825531  67.7685852  22.8985062  85.3684387
  67.1954498  22.4873734  84.7213516  67.1769638  23.1871662  86.0633469
  75.9664841   0.8522956  64.3147888  76.1577454   0.6638705  63.3960152
  76.8266830   0.9368086  64.7260590  17.2868633  40.8729095  50.3890495
  18.1069298  40.8869171  50.8825340  16.6300850  41.1942902  51.0067787
   3.8620172  34.9133873  76.9813232   4.1115131  35.4789734  76.2505035
   4.2474341  35.3323479  77.7508392  47.0610580   8.7441683  58.0371475
  46.6113396   9.4671345  58.4745331  47.6383514   8.3801260  58.7082939
  24.5897675  64.7437363  31.4403038  24.2013454  64.2048416  30.7511368
  23.8640747  64.9306030  32.0358582  62.8841896  37.8966026  31.3128891
  62.3355713  38.5595551  30.8936768  62.8258095  37.1364670  30.7340813
  24.3981094  56.5554008  11.6711569  23.5570889  56.7920113  12.0622215
  24.1964111  56.3924141  10.7497530   7.2422156  32.0733604  40.1446800
   6.7473140  31.2948456  40.4000626   7.4068189  32.5332451  40.9678688
  70.2943497  48.4258995  30.9857502  70.0338516  48.0595894  30.1406536
  70.2851944  47.6785736  31.5837879  82.4213409  45.3351669  58.7005386
  82.0302200  46.2021446  58.5928040  81.8393784  44.7482033  58.2178116
  32.7551880   1.8041092  26.5158024  32.9510918   2.4721234  27.1727734
  32.3255348   2.2835550  25.8074512  20.7590141  45.0567207  63.9442101
  20.5512581  45.3976440  64.8141785  20.6187668  45.7989769  63.3563156
  53.8970337  23.5293331  67.6783600  53.6862144  23.3479004  68.5942612
  54.8212738  23.7780819  67.6900635  23.7638149  56.8301849  81.3653336
  22.8768673  56.5842743  81.6281738  24.2699261  56.8050117  82.1773987
  15.3549824   5.8364625   1.0437304  14.9007902   5.9629321   1.8767653
  16.2029343   5.4650879   1.2872252  72.1976547  70.6601944  86.8147354
  71.7809067  70.6648712  87.6764374  71.7145081  71.3155746  86.3114624
  39.3354263  60.7615547  27.6927586  39.7179527  59.8986168  27.5338879
  39.1798363  61.1191940  26.8186188  39.5535622  57.2012787  80.2104492
  38.8944397  56.7682648  80.7529297  39.8693619  57.9260674  80.7500610
  71.5544586   1.7117803  75.3650360  72.3678436   2.2147679  75.4056168
  71.8351440   0.7980373  75.4152603  65.2118378  35.8119888  35.1933670
  64.6595230  36.2167816  34.5245438  65.2430115  34.8866692  34.9503746
  61.4831123  38.6894951  75.9417267  60.8614235  38.2317162  76.5075607
  61.6218452  39.5333633  76.3716965  52.9884224  18.7476673  53.0306168
  53.1863365  19.6806698  53.1116524  52.7148628  18.6390858  52.1197891
   4.1313958  62.7074814  81.7228928   4.2649961  61.9722404  81.1247253
   4.5034161  63.4604683  81.2637177  24.3704300  27.6944504  63.6887665
  24.0751228  28.5994301  63.5885887  23.6019840  27.1663971  63.4722443
  28.5805016  50.1985931  82.4378586  28.1856060  51.0630112  82.3235474
  28.1736813  49.6579857  81.7607498  56.0050735  26.5346813  27.8694115
  56.4328003  25.7427883  28.1952782  55.0715790  26.3790398  28.0129356
  54.1947861  57.9954033  14.0296602  54.2856369  57.0573387  14.1970329
  53.4090271  58.2500076  14.5133877  12.8926573  61.3219681  84.0236816
  12.6284657  60.9249382  83.1937408  13.7969036  61.0343857  84.1496506
  36.8474541   6.7357569  10.4993649  37.7980347   6.8409953  10.5387945
  36.7138596   5.9766345   9.9318113  14.2224922  22.7028122   2.1253176
  14.7895079  22.2853584   1.4768904  13.4499149  22.1391754   2.1661696
  52.3775520  21.2391624  22.3891563  51.9282265  20.4129562  22.5672665
  52.9831467  21.0337582  21.6769085  65.2510605  -0.1720711  26.2389698
  64.9275436  -0.0690761  27.1339340  65.9902802   0.4331975  26.1803646
  51.7216568  33.0626106  64.9752808  51.6768532  32.1072083  64.9374084
  52.2671585  33.3066330  64.2275467   5.8234196  30.0477638  83.8278122
   6.7375083  29.7688217  83.8813400   5.5688481  30.2097492  84.7362061
  30.7868328  51.8717346  67.2139511  31.4466038  52.5519447  67.3490372
  29.9505901  52.3330231  67.2783203  60.0737534  33.0284081  69.5627747
  59.3602333  32.5063744  69.9296570  60.0524139  33.8461189  70.0598907
  16.0580063  12.4046183   1.3314245  16.4440212  13.1287384   0.8386021
  16.8039932  11.9755945   1.7505583  72.0004272  37.9095078  19.6098747
  72.6388931  37.2079773  19.4816265  72.3575897  38.6507721  19.1208038
  23.5909691  39.4881706  82.7652206  23.6947193  39.5440063  81.8153000
  22.6444035  39.5157852  82.9048080  26.1935539  38.3436508  79.2336197
  25.9792519  38.1713371  78.3167648  27.0498581  38.7703323  79.2033310
  68.7125168  37.6296425  34.9533806  69.1299362  38.3834915  34.5365982
  67.7885513  37.8717232  35.0159302  71.9393387  31.0970631  62.4636650
  72.1430817  31.9750042  62.7860565  72.7384872  30.5935249  62.6187363
  82.5622711  33.6063690  19.0324745  82.7357788  33.1341515  19.8468056
  83.3990402  33.5979195  18.5677509   1.8973737  59.4635811  36.7634697
   1.0384641  59.0635986  36.6273727   1.7815229  60.0246124  37.5303154
  52.2976341  44.1018753  31.7519779  52.0740089  44.2542114  30.8338184
  53.0098381  43.4630394  31.7222157  57.0099258  19.8407192  80.9826889
  56.9943695  20.1499405  80.0769424  57.0787544  20.6385765  81.5070114
   6.9663200  21.9379425  55.9418106   7.0864325  22.4760284  56.7242851
   6.1607442  22.2690601  55.5447731  73.2275238  16.0615711  74.8284302
  73.8371353  16.7363396  75.1272583  72.6357956  16.5204525  74.2321701
  54.7465668   2.8853908  35.7194252  54.5817375   3.3536716  36.5378227
  55.5747871   2.4288697  35.8673172  67.9792175  41.8118248  20.6205750
  68.0136490  40.8603821  20.7195835  67.0796432  42.0441856  20.8507824
  29.0304317  55.7207184  20.2282600  29.2707729  56.0402527  19.3585682
  28.9286938  54.7755280  20.1164837  71.5341263  25.1245823  54.3198395
  71.9305649  24.5197945  54.9469757  71.8023605  24.7914944  53.4634895
  36.2764816  63.3022614  77.7020187  36.6288185  64.0410995  78.1982117
  36.2263832  62.5886955  78.3380508  15.2094564  34.3321152  76.5815735
  15.5205402  33.4936905  76.9228973  14.5084410  34.5892715  77.1804733
  39.4055634  53.8610039  48.6857758  38.9375687  54.4177971  49.3080254
  40.3285179  53.9677391  48.9159851  34.3608818  68.0281754  45.6983833
  33.7200851  68.6897736  45.9589500  34.8598251  68.4422302  44.9942207
  51.7367859   3.6899805  36.9607506  51.3330345   4.5548058  36.8879967
  52.5659065   3.7723303  36.4895668  58.3490868  13.9370279  69.2231369
  58.2427750  14.4311552  68.4102631  58.8451996  13.1593494  68.9675598
  16.2164345  59.5561256  18.3269997  16.5297184  58.7455673  17.9256554
  15.3277893  59.3514481  18.6179409  73.4268951  67.2512512  40.0975494
  73.6469574  67.7518234  39.3119087  73.7229996  67.8013229  40.8227844
  20.0994492  17.1566257   5.3453240  20.1702480  17.4719963   6.2463021
  20.8329906  17.5687866   4.8889556  46.5579376   7.6024246   4.1468701
  45.7226410   7.7433953   4.5925617  46.4133720   7.9281936   3.2584968
  71.8789062   2.0839825  10.9708567  72.7896576   2.0036595  11.2542515
  71.9320297   2.4930587  10.1071053  23.9631691  43.1370049  41.6456985
  23.5784798  42.4515305  42.1919327  23.2634048  43.7819138  41.5424767
  14.8173847  28.1472282  70.1728897  14.3573732  28.4008465  69.3727036
  14.8208981  27.1902218  70.1540604  60.9880753  69.5977783  86.6108551
  60.4625435  70.0477829  85.9493866  60.4499931  68.8525620  86.8779755
   4.4475641  21.8710403  71.0727386   4.6116986  22.8106556  70.9926453
   3.5566876  21.8120842  71.4178391  12.9194212   4.0197983  68.4302902
  12.9636345   4.6538959  67.7146149  12.2545052   3.3901284  68.1516647
  80.3117142  57.5437279  23.4765968  81.1731339  57.7854500  23.1363754
  80.1274185  56.6926537  23.0791721   7.5204439  64.2212448  45.3922119
   7.7737017  63.4672775  44.8596497   8.3454351  64.6674652  45.5832939
  30.4673862  63.5466805  40.2811165  31.1011696  64.2638931  40.2688026
  30.9272270  62.8281326  40.7152519  79.6400223  47.7312737  21.9393101
  80.4810181  47.2773781  21.8851585  79.4605331  48.0109024  21.0416317
  53.3156319  61.7787704  61.0166321  53.8089714  62.0749779  61.7815590
  53.4481010  60.8309517  60.9985123  27.9176731  71.0821915  67.4151459
  28.1586761  71.1906738  66.4951553  27.1227818  71.6054840  67.5178146
  79.3108978  43.7952843  16.4966183  80.1852570  44.0633354  16.7792377
  78.8759232  43.5111923  17.3005619   6.4771137  44.4937248  43.4206886
   5.8858991  44.3377571  42.6842270   6.5999041  43.6307411  43.8161774
  18.9943752  64.3236847   4.7778139  19.6665535  65.0039291   4.7368989
  18.4706917  64.4566116   3.9876754  46.2811584  46.3304253  15.0637274
  45.3636971  46.2792702  14.7956171  46.2691269  46.1265411  15.9988842
  67.4741516  52.8386154   6.5331244  68.3385315  52.6687393   6.1586652
  67.6534195  53.3200378   7.3407907   4.0694137  44.0265694  10.5233898
   4.6534233  43.5425949  11.1072836   4.1558309  44.9387321  10.8003836
  18.7076912  68.4383011  59.7796974  19.5423050  68.1576080  59.4043770
  18.4681377  69.2162323  59.2760429  81.3065948  17.4727497  15.2550449
  80.7065582  16.9154110  14.7595072  82.0046234  17.6838665  14.6350250
  24.0223408  34.3197250  58.1066628  24.4225140  33.9751816  57.3083000
  24.7317009  34.3198318  58.7493439  68.3847656   1.0787085  23.0977535
  67.6581650   0.8941106  22.5026035  69.0396423   0.4121584  22.8901939
  15.4229765  32.1250191  68.9054260  14.8262825  31.9083710  69.6218491
  14.8496447  32.4120216  68.1946869  59.8771019  31.0677624  41.4882660
  60.5980453  31.3095894  40.9068985  59.1038322  31.4671974  41.0898476
  43.2070122  67.4573135   5.9944158  43.5480385  67.5324860   6.8856411
  42.2794533  67.2508621   6.1095142  14.5485954  19.8106709   8.2070303
  14.1617918  18.9443569   8.0800810  14.1705742  20.3462982   7.5095820
   4.5086222  55.7174950  77.4665680   5.2931180  56.1332817  77.1089096
   4.2718835  56.2599144  78.2188797   3.3049884   4.4566317  43.9237480
   3.5068364   3.8193767  44.6088715   4.1228905   4.9369001  43.7948647
  61.3248062  28.7984200  59.2315063  61.1095924  28.1494370  58.5616302
  60.6030884  29.4262657  59.1973572   3.9998987  49.0146561  31.1996746
   4.7001972  48.3733368  31.0791702   3.2262847  48.4890862  31.4034672
  69.6211853  54.8825417   3.6242259  69.2061310  55.5142097   4.2115598
  70.5430832  54.8859024   3.8817501  65.4270630  62.8383827  18.0348930
  66.2391510  62.7753448  17.5321217  65.2507401  61.9413452  18.3185482
  49.1269608   5.9249444  17.0023975  49.3318825   6.8167405  17.2833576
  48.9412804   5.4545016  17.8150711  31.5029202  31.9971256  42.8254051
  31.7981777  31.1508274  43.1613159  30.5955200  31.8463421  42.5606003
  40.4704323  26.7014046  15.3482084  39.9943504  26.5168171  14.5385771
  39.8044128  26.6531754  16.0340080  12.3943567  58.0281982   3.3637099
  12.1513357  57.5956650   4.1822982  13.3358383  58.1811752   3.4439785
  83.9675980  40.3037682  76.6699905  84.1999588  40.8502159  77.4207458
  83.6655502  40.9241371  76.0065613  28.4827061  47.2465897  55.7300072
  27.7363071  47.0159912  55.1768837  28.3525543  46.7396698  56.5314560
   1.6859181  38.6265488  48.0886192   2.1716957  39.0224113  47.3650551
   1.2543459  39.3643913  48.5193977   5.3119283  33.6540260  21.2439079
   5.1559334  33.3388710  20.3536415   4.9093680  32.9922409  21.8062382
  74.7614059  33.1668739  70.6816559  74.9289780  32.5005112  70.0152435
  75.5868149  33.6461372  70.7540131  83.6535187  48.0246162  56.3122559
  84.5784760  47.7793274  56.3349419  83.3878174  47.8734627  55.4051781
   4.3900185  67.5151825  15.4069138   3.7623289  67.3709259  16.1150284
   4.0310736  68.2540359  14.9154949  26.4488297  40.8319397   7.7973294
  26.2869663  39.9486809   7.4658365  25.8545094  41.3890533   7.2946997
  10.6558714  57.7702217  84.7726517  10.3758240  57.4339180  83.9213562
  11.1863480  57.0661354  85.1455994  35.0920372  40.1845169  58.6885414
  35.4687233  40.9795723  58.3114128  34.3605270  39.9684258  58.1102409
  80.5061340  49.0741196  35.3045654  79.7800140  48.4974823  35.5421906
  81.2140198  48.4787827  35.0581856  14.0636282  56.5616570  79.0278702
  13.4449968  56.4125443  79.7429199  14.7213669  55.8742180  79.1329422
  45.3010635  41.6652489  42.0854797  44.6372910  41.7982101  42.7622070
  46.0218811  41.2287407  42.5394821  28.2330189  15.7547283   7.4591622
  28.5138779  15.3656282   8.2873840  28.4458771  15.0942326   6.7998676
  80.9189377  16.2172241  49.8073311  81.2514496  15.3301630  49.6702728
  81.2504425  16.7153759  49.0602150  53.7312126   1.3143216   1.4883332
  52.9706764   1.6767557   1.9427083  54.3643379   2.0320160   1.4710284
  83.9356461  46.6687164  18.1669807  84.6692581  46.3205757  18.6737785
  84.2952347  46.8101425  17.2912369  15.2979136   5.7384663  66.4172592
  16.0138817   6.3501377  66.2455597  15.3112888   5.1386418  65.6714325
  75.4164505  24.8968639  73.7196808  75.6674881  24.8365459  72.7979584
  74.4646301  24.9967518  73.7026443  18.9520359  45.9981079   5.0962496
  19.1142960  45.1162300   4.7612934  18.0603313  45.9625320   5.4424129
  56.6310234  50.5471191  27.5102196  55.8850975  51.0531502  27.8323364
  57.2175331  51.2008781  27.1296444  81.5666428  14.2628489   6.0302792
  81.9058151  13.4389973   6.3802257  82.2363358  14.5539551   5.4114070
  43.9857941  68.4574585   8.9245138  44.4013634  69.1404419   8.3981419
  44.5313225  67.6831970   8.7861280   5.4644766  49.1095924  26.6685143
   6.2672429  48.6028404  26.5460434   5.7263436  50.0159454  26.5067024
  84.2385941   1.4354775  46.5129738  84.1846313   0.8632051  47.2783623
  85.1628494   1.6788565  46.4605751  85.1924744   8.1051922  66.0048370
  84.3068848   8.3837767  66.2379608  85.3241501   8.4423571  65.1187134
  86.7253571  24.9102554  67.7485580  86.6883621  24.0327129  68.1290588
  86.6275558  24.7674274  66.8071365  78.2653885  30.2034187  34.8261909
  78.0305099  29.7640285  34.0088768  77.4306946  30.5060844  35.1838493
  28.3113804  68.7220688  54.2758255  28.5729237  68.6156158  55.1904259
  27.3782272  68.9313889  54.3163681   0.4940454  17.1443233  75.4521484
  -0.2417494  17.3127651  76.0407639   0.0856127  16.8820000  74.6271667
  46.0464630  59.8491478   1.8808370  46.9185829  59.8434792   2.2753065
  45.6259956  60.6302414   2.2404678  83.0328827  46.9261055  73.9914780
  83.2808151  47.5421181  74.6808929  83.5513763  46.1422157  74.1728973
  66.8936539  42.2239990  35.9441338  66.5216141  43.0428085  36.2718010
  67.5731354  41.9984894  36.5794945  20.3017368  10.2041359  17.2034397
  21.0678120  10.7434034  17.3997784  19.8520336  10.1120338  18.0433903
  24.3205242  54.1449738  28.2773972  24.9147930  54.7482262  28.7236710
  24.5401592  54.2345924  27.3500576  45.7972488  20.7954674  18.9900837
  46.6549759  21.0721741  18.6676426  45.9543457  19.9362659  19.3816528
  41.2133865  68.9252853   8.8422184  41.9550629  68.3484268   9.0249138
  41.5887947  69.6445084   8.3342590  15.0539513  53.7165489  63.0888977
  15.2915068  53.9240494  63.9926338  14.2605228  54.2268143  62.9266167
  70.3309250  21.6940422  52.5044250  70.6634827  21.4094925  51.6531487
  69.4204788  21.3988094  52.5167503  81.2865448   7.6447783  55.8857079
  80.7742691   7.8891382  56.6564865  80.6343994   7.5053320  55.1990509
  38.7063751  44.2565880  33.8247185  39.2226372  43.8160400  34.4997177
  37.8567200  43.8163643  33.8475952  76.5245438  25.4544601  79.9457855
  77.4597931  25.2767544  79.8460159  76.1055069  24.6008911  79.8359451
  78.2246552  19.8676567  74.7548676  78.4696198  19.3903656  73.9621429
  79.0224762  19.8792667  75.2836227  71.3277206  56.3523216  67.0875549
  72.1462936  56.8462067  67.0402222  70.7367096  56.8104095  66.4899826
  54.2932053  30.0566292  87.0056686  54.6311417  30.5939369  86.2891998
  55.0561600  29.5737095  87.3233566  21.3972569  60.4701767  59.0190277
  21.8741913  60.4609756  58.1891632  22.0644951  60.2882118  59.6807785
  38.2612724  21.0232182  66.1090164  37.5625496  20.4830322  66.4780960
  38.2577820  21.8173065  66.6434708  24.3871880  51.8380928  48.5575714
  24.9979973  51.1286469  48.3579941  23.5419731  51.5238762  48.2364578
  51.9323845  44.9120216  10.2543440  52.0101395  45.5943336   9.5875320
  51.3465042  44.2626534   9.8653765   0.2065304   5.7554026  14.9218807
  -0.4165074   6.2296734  14.3713150   0.8658465   6.4089422  15.1551619
  17.4454308  21.8091908  76.6488342  16.8453274  22.2476006  76.0455856
  16.9715977  21.7814198  77.4800644  34.6977730   1.7805678  32.5991135
  35.5388412   2.2328687  32.6643639  34.3407211   1.8095851  33.4867516
   3.0172358  25.1791668  57.1234436   2.1824675  25.6373520  57.2207031
   2.8587749  24.3112755  57.4947777  31.8298645  64.5697250  62.5124893
  32.3764496  63.8474808  62.2029114  31.0336895  64.1467590  62.8341064
  79.7885590  17.5359306  61.1165543  80.3034134  18.0934982  60.5332222
  79.0431671  18.0796814  61.3714180  60.6483421  16.0889587  26.7730179
  60.0453300  15.3459005  26.7947998  60.1565704  16.8081989  27.1693573
  68.9197998  58.7890320  45.3905525  69.2525101  59.4101830  44.7427025
  68.6965714  58.0093079  44.8821945  77.0984116  67.8924561  66.3906250
  76.3564301  68.2398453  66.8856201  76.9513626  66.9468307  66.3706818
  41.9251251   9.6050587  59.4557076  41.7749748   9.4159117  58.5294724
  41.8733063   8.7515574  59.8859177  10.9092484  54.6918335  31.9824963
  10.6225700  55.5798111  32.1958961  10.4617567  54.4864502  31.1616421
  53.4797554  45.8417358  85.5305862  54.3261681  46.1411400  85.1986542
  52.9645042  46.6423340  85.6295319  70.9153214  30.8304329  75.0675201
  71.4072647  31.5620689  75.4402618  71.3027649  30.0523415  75.4683838
  22.8846436  56.8618584   4.2862992  23.1983795  57.4633369   3.6110039
  22.7593670  57.4132004   5.0586705  49.0903587   8.6467171  35.9175491
  49.6091385   9.4054880  35.6504097  48.7242699   8.8938475  36.7667465
  59.1133804  19.3692780   5.3500829  58.2024612  19.0909958   5.4450393
  59.2589684  19.3938541   4.4043384  12.3726950  69.1134491   1.2420125
  12.7345381  68.8471756   0.3967920  12.7236071  69.9921875   1.3866478
  16.2593193  55.5448380   7.6813598  16.8751793  55.2986336   8.3715267
  16.7999134  55.6254921   6.8955579  34.4588814  60.7435875   7.2094336
  34.6795692  61.4917946   6.6547089  34.7062836  59.9788322   6.6896529
  22.3999672  45.9973946  48.4358978  23.0209198  45.3331833  48.1367760
  21.7854404  46.0955811  47.7086105  71.7547226  62.2035217  40.4189377
  70.9962311  61.9684563  39.8844528  71.5037613  63.0240707  40.8431435
  13.8269920  12.2256413  73.3875504  14.2266102  11.6118193  74.0037918
  13.1892328  11.6995821  72.9050980  44.9122314  39.4570656  73.3247757
  45.2948685  38.6000710  73.1366806  45.3717651  40.0583878  72.7387161
  86.4764709   3.5597565  77.6206589  87.0353165   2.8011758  77.7894211
  86.4761200   3.6497135  76.6676941  84.6013947  22.2402096  43.9081917
  84.6201477  22.9077835  44.5939217  84.8754120  21.4360676  44.3492126
  23.2860432  70.5701370  65.6799850  23.3947678  70.1892776  66.5513992
  22.3424435  70.7060013  65.5940094   2.0941200  33.2973328  77.9637756
   2.3330135  33.2964211  78.8906860   2.6820967  33.9391403  77.5655289
  46.5155602  36.4638710  71.2063522  46.7402306  35.5434494  71.3426590
  45.8104630  36.6333618  71.8311234  37.9379311   3.9993315  62.2983017
  37.8762550   3.1977627  61.7787666  37.1854324   3.9606280  62.8886261
  80.1201248  60.0130920  48.5713577  79.4828262  60.7025642  48.7576675
  80.8741379  60.4761696  48.2063065  15.3598871  23.5519447  29.1270447
  14.5971222  24.1264114  29.1934662  16.1069393  24.1491852  29.0889816
  52.1271858  17.7214832  50.5384903  51.1907120  17.8000774  50.3566513
  52.5440292  18.3055782  49.9050026  12.0738811   1.6059284  87.9243622
  12.7394962   2.1701584  88.3178482  11.4332132   2.2133482  87.5544739
  25.9127197  32.8309708  15.0191088  25.9649830  32.5775032  14.0975590
  25.1781006  32.3244629  15.3655376  30.4879913  59.6058502  38.6865616
  30.2064648  59.4950981  39.5946960  30.0407562  60.3993149  38.3922348
  24.5610123  69.2055893  63.3674126  24.1040649  69.6324844  64.0921097
  23.9287014  68.5741577  63.0243187  35.0905571  60.8299255   1.8317631
  35.2908478  60.7873764   0.8967204  35.1026344  61.7647896   2.0369968
  11.2022972  57.4539452  23.4599724  11.4037228  58.3665276  23.2529736
  11.8006811  56.9463120  22.9118137  36.3731194  56.2315445  13.5056353
  35.9718475  55.3809090  13.6834812  37.1811028  56.0219650  13.0371599
  49.7936859   1.1533519  73.2854233  49.0885620   0.6452608  73.6865234
  49.5405006   2.0658917  73.4247055  50.9357834   1.8476255   2.0650170
  50.0322456   1.7686177   1.7590557  50.9378548   2.6386988   2.6039331
  74.6771317  28.3122883  66.3885040  74.7213974  27.4352093  66.0077133
  73.8039551  28.3606453  66.7776871  73.1471024  54.3441010  15.0770702
  73.3235550  53.7676544  14.3335619  73.9253006  54.2678909  15.6291933
  48.0484047  58.1801605  63.8310471  47.6633568  58.0843849  62.9599609
  48.0449486  57.2941170  64.1931915  74.2539062  12.6241579   8.1790876
  74.9475174  12.2901525   7.6102552  74.3411331  12.1170731   8.9862356
  19.2879868   3.6524980  61.5073395  20.1462345   4.0114918  61.7326469
  18.6860542   4.3899579  61.6076584  78.2313538  20.0063133   6.0240936
  78.2333984  19.0662746   5.8436604  79.0838318  20.1750259   6.4253912
   7.5244656  43.9500313  20.5495281   8.0616226  43.2058983  20.2775707
   6.6545067  43.5775795  20.6933403  61.0483322  65.9214096  53.6342125
  60.6730499  65.3854675  52.9355240  61.9375229  66.1141739  53.3368683
  16.7267761  52.0893250  28.8215256  16.1535149  51.7089310  28.1560154
  16.9163895  52.9704056  28.4990749  54.2970467  32.8172417  35.6263657
  53.9308586  32.1038094  35.1037254  53.7568207  33.5764236  35.4072113
  45.3765755  56.7918396  66.0121460  45.0204010  56.7930641  65.1236801
  46.2205009  56.3474579  65.9312515  61.9018517  24.3820724   1.5186043
  61.1741829  24.5193405   2.1251421  62.1608696  25.2640781   1.2517561
  16.0511818  10.2733202  87.7234497  16.7666206   9.6387138  87.6827927
  15.7786274  10.2685318  88.6410141   0.0945263  37.8484230  79.2789154
  -0.0739138  36.9860077  79.6585159   1.0479355  37.9328308  79.2897797
  40.6160622  69.8788757  64.8864059  39.7056580  69.7839508  65.1663742
  40.5946388  70.5806656  64.2358170  58.6760941  43.5884438  51.8500328
  58.8446579  42.6682739  51.6472816  59.5092812  43.9154739  52.1892700
  38.6401291  26.9064465  84.0021667  39.0845451  27.7150917  84.2567596
  39.2858620  26.2179890  84.1611786  49.2124710   5.8451538  63.0618324
  49.3947906   4.9477220  62.7832489  49.8673439   6.3748283  62.6070595
  51.5456276  57.8154831  25.6508465  51.5762444  58.6466103  26.1246815
  52.0441284  57.9778519  24.8499947  85.9874191  15.8986130  13.1948147
  86.1748581  15.7723055  14.1249466  86.7264099  16.4125099  12.8691969
  75.9552841   6.5454817  47.3626328  75.3762360   7.3075724  47.3503456
  76.8377914   6.9146533  47.3290520   9.8085699  16.3809814  10.0841684
  10.3014994  17.0588932  10.5464325   9.5433512  16.7954903   9.2631493
   1.3209618  33.1721802  85.6420975   2.1162102  32.6695290  85.4655914
   1.5731798  33.7846832  86.3330765   0.5805125  48.6144981  72.7388306
  -0.3254443  48.8805389  72.8959808   0.5361507  47.6642036  72.6329803
  18.9966450  11.8750648   1.4611970  19.3220692  12.7651157   1.5958806
  19.2624683  11.6554108   0.5682682  21.0654240  57.2087631  35.4899673
  20.7295113  58.0755615  35.7181320  21.0402527  57.1863213  34.5333595
   1.7051483  28.4018497   1.1255755   1.2439413  29.1769714   0.8050989
   1.4083055  28.3034935   2.0302534  19.3101959  47.6999207  35.8922310
  18.5181961  48.2169380  36.0394020  19.5806503  47.9242401  35.0018539
  35.8850288  24.2629490  75.2568817  35.5753136  23.4710789  74.8172836
  35.6034126  24.1580963  76.1656876  24.9416161   6.7456903  87.9724503
  25.3158722   6.2159204  87.2685242  25.6015434   7.4176612  88.1432800
  17.3274651  49.6882057  35.2727165  16.9468307  49.6872940  34.3944511
  17.2311764  50.5914536  35.5745468  14.8849983  41.3876266   1.0768615
  15.8278236  41.5261421   1.1670083  14.8003016  40.7951927   0.3298109
   7.4487767  49.4207573  10.4506750   6.5108986  49.5391960  10.6009665
   7.7662015  50.2933998  10.2183743  52.0313454  20.0407619  76.0840073
  52.8617058  19.9376965  76.5488815  52.0135651  19.3138885  75.4614563
  64.2760773   1.8705925  72.3901062  64.8092651   2.2189913  73.1046371
  63.4784050   2.3994362  72.4066162  22.7230206  45.4705582  44.1974182
  22.6493092  45.2298279  43.2739220  22.4473076  46.3866501  44.2288780
  63.3445206  62.7861443  72.8277893  64.1533508  62.4642258  72.4297943
  63.4340935  62.5745735  73.7570038  66.0415955  52.1088600  46.6286011
  66.1626511  51.3908043  47.2498703  66.4158554  51.7830276  45.8100662
  34.4662056  42.1773720  66.1962585  34.0765114  41.7614594  65.4272461
  33.9553757  42.9772568  66.3206329  67.7254715  18.3754883  64.6342316
  68.4467316  18.6637096  64.0748138  66.9401093  18.7195740  64.2087479
  78.4656906  56.1309204  40.4884109  79.2056503  56.6985397  40.7040787
  78.4277115  56.1399155  39.5320091  83.6181717   5.4938731  22.6358547
  84.5022659   5.2307982  22.3801079  83.1724167   5.6723261  21.8077927
  26.3289948   5.1799374   8.2752333  25.5338078   4.6560960   8.3726997
  26.0192547   6.0855594   8.2633266  63.9603462  69.4618149  62.7435989
  64.7144318  68.8982773  62.9168243  63.6154518  69.1499481  61.9069290
  69.5672073  25.0524521  25.8360538  69.7994232  24.1265163  25.7656994
  69.7668076  25.2811337  26.7438507  55.5335846  61.4205894   9.4041271
  56.2779694  60.9284439   9.7504206  54.8363380  61.2830009  10.0453339
  66.1419754  30.4003677  15.8402939  65.6095734  31.1840668  15.9766493
  65.5135880  29.6784592  15.8545179  33.7549782  36.9566383   5.2453322
  33.4215660  36.3044739   4.6290922  33.3989143  36.6894875   6.0927300
  59.3949852  43.1622009  76.2784119  59.3528671  42.3644142  76.8056641
  58.4798622  43.3854446  76.1082840  69.8973389  36.9953461  41.1974030
  69.8675079  36.5292244  40.3618965  69.3641815  37.7773743  41.0545464
  54.0586662  65.2828217   3.4066288  53.7937393  65.6961899   4.2283173
  53.8058815  64.3651581   3.5077691  34.1826706  15.2051401  74.4343414
  33.4287987  15.5092888  74.9397125  33.8502998  14.4605312  73.9330215
  86.7375793  70.5600586  58.4202728  86.9205017  71.4718323  58.6470718
  85.7885132  70.4761353  58.5122871  30.4080772  64.4210663  70.2250900
  31.1503372  63.8170128  70.2052231  30.8073082  65.2894440  70.2777252
  33.5839958  38.9114876  56.3821640  33.0331306  38.2537231  56.8065758
  33.4149055  38.7981453  55.4468575  58.0637474  35.5814056   1.1654878
  57.8394852  34.6791725   1.3933289  58.9730301  35.6807289   1.4475644
  66.7341156  49.5586624  20.2941971  66.0320053  49.0135880  19.9389954
  67.4930954  49.3586655  19.7463112  56.3309021  20.0597591  74.6413422
  55.7717667  20.4451828  73.9667664  56.9240456  19.4829464  74.1599884
  71.4826279  33.9273491  23.4502010  71.6728516  32.9909897  23.3929844
  71.8564301  34.2970085  22.6502934  85.8795166  39.1834373  61.7506676
  85.4025269  39.1981125  62.5804214  86.7141418  38.7649193  61.9615631
  45.7103539  27.6107464   9.0504131  45.9273949  27.7376480   9.9740057
  45.9461746  26.7003975   8.8718519  12.0742197  37.5539131  13.7849865
  11.6623793  37.1959000  14.5713997  11.4871159  38.2564964  13.5058470
   1.4677429  55.8594894  31.4911938   1.5946158  55.2333336  32.2039795
   1.0141425  55.3604469  30.8119030  48.8346596  46.1898727  49.0056000
  49.7747536  46.0197449  49.0648575  48.6799011  46.3585548  48.0761757
  25.9159260   0.4075497  29.7230129  26.5916748   0.3319160  30.3967133
  26.1949081   1.1492940  29.1861553   4.2113938  49.8835945  62.8822289
   3.6012437  50.0628319  62.1668129   3.6830184  49.9720268  63.6754723
  51.1904869  68.3605652  83.8371735  50.8605118  67.9827576  84.6524124
  51.0181580  69.2984009  83.9208298  52.0924683  30.9023781  27.6252995
  51.9818802  31.8293819  27.8366470  52.1607475  30.8808327  26.6707802
  79.9047852  70.8733597  38.7945518  80.8468094  70.7057571  38.8213463
  79.7310104  71.1192627  37.8859444  23.3540268  59.9012527  71.1872406
  22.7973156  59.8126869  71.9608459  23.7180824  60.7840042  71.2539368
  79.0426407  56.0695610  12.8516884  79.8181610  56.1442032  13.4077740
  78.3065567  56.0897598  13.4632473  18.2733269  47.1282082  32.2928200
  19.1789265  47.1072922  32.6021538  17.8281364  46.4566612  32.8096008
   8.3255730  60.6306953  29.4648685   7.4735045  60.5963554  29.8996468
   8.2647600  61.3843651  28.8779125   9.3001766  44.8363152  32.5039291
   9.3422661  44.1357231  33.1548004  10.2041874  44.9428062  32.2078590
  74.4338150  27.6446114  88.4039001  75.1941299  28.2017612  88.5704422
  73.9046936  28.1416721  87.7800446  51.5009079  44.6264610  29.1667900
  51.9577637  45.4142609  28.8720150  50.8259087  44.4790115  28.5043221
   2.4121976  15.8025026  57.3902283   3.3599210  15.9202871  57.3255844
   2.1414585  16.4115543  58.0772438  52.7967682  26.1122379  38.3043213
  52.2692719  26.4855347  39.0104599  52.1598778  25.6937790  37.7251015
  45.6817703  20.9508991   5.2216706  45.6860008  20.0672932   5.5897102
  44.9372902  21.3817215   5.6416450  65.7154160   5.3602638  35.0412102
  65.1763916   5.8384719  35.6712952  66.5566864   5.2464747  35.4834099
  57.7438774  59.1244164  25.8518124  57.8743820  60.0726585  25.8454494
  56.8061409  59.0106621  25.6970749  23.9000854   9.1116505  67.6940079
  24.7205276   8.9495201  67.2283707  24.1362095   9.7269907  68.3881531
  71.5072708  32.6705437  54.6056099  72.3881607  32.9607658  54.3688736
  70.9523621  32.9813499  53.8902740  30.0717316  36.0959854  78.0890274
  30.5291786  35.4697952  77.5279007  29.3437996  35.5975533  78.4603958
  15.8346167  55.7953987  84.3572693  15.0180235  56.1972427  84.0607452
  16.2930889  55.5610886  83.5503464  71.5882187  61.7795372  48.0705872
  71.3531189  61.5809708  48.9769707  71.6350708  60.9246712  47.6425209
  79.8633347  27.5063782  22.4950237  80.7942963  27.5670261  22.7091541
  79.4149323  27.7509499  23.3045654  59.9385452  41.1479645  51.3741646
  59.4205856  40.4321938  51.0058975  60.7402802  41.1571045  50.8513145
  49.2613220  16.4412823  58.9578896  50.1243324  16.0272541  58.9524727
  48.6559601  15.7361784  58.7285538   4.2707424  31.9322453  26.4880199
   4.4415660  32.6852913  27.0536823   4.7334728  31.2072544  26.9081383
  55.8060684  44.4547157  28.0804119  55.8206100  45.4115486  28.1024818
  56.1594124  44.1901512  28.9297543  71.8940430  39.2678719  69.6018219
  71.3436966  39.9862747  69.2899780  72.1324768  39.5187836  70.4942474
   0.3260006  12.6539774  36.6690102  -0.3764758  13.0843315  37.1564026
   0.9267530  13.3627005  36.4387054  17.0050697  49.2929535  39.9047966
  16.9500370  48.6944199  39.1598396  16.0950756  49.4355583  40.1651955
   6.4249063  43.2456131  27.5867462   6.9544210  42.5436592  27.2084579
   6.9054804  43.5124245  28.3703880  63.9204636  46.3629723  29.7384777
  63.6729012  46.4808083  28.8213844  64.1385727  45.4337158  29.8101902
  74.8193588  60.6831703  51.0822220  74.4392319  59.8049088  51.0623703
  75.5278168  60.6521072  50.4392929  32.7566948   5.9618297  31.3176880
  32.2617264   6.3615255  32.0328674  32.9877472   6.6949744  30.7472973
  44.2923431  52.2585526  44.1216774  44.2354546  52.1459694  43.1728249
  44.4027786  51.3707428  44.4620132   6.0257006  56.5641403  13.7952862
   5.2855625  56.0077057  14.0377979   6.5413780  56.6401291  14.5981150
  28.0168724  54.0326996  27.5270767  28.6467686  53.3124771  27.4997921
  27.4207630  53.8026657  28.2397995  12.7861271  30.8753910  17.5335484
  12.9369144  31.7999420  17.7302761  13.2583427  30.7246418  16.7146969
  71.3856049   3.4114559   6.4438801  71.4094772   3.1087096   5.5361319
  71.3467712   2.6083581   6.9632626  24.5696526  56.4225960  74.9576187
  25.1198883  57.0476913  75.4295654  24.9947948  55.5763893  75.0969772
  52.7887192   3.9382975  48.7910461  52.8529778   4.4912806  49.5697060
  53.2546463   3.1363366  49.0276947  21.8320694  61.5193977  37.4511185
  22.5237045  60.8648834  37.5484886  22.0872192  62.2273026  38.0427284
  48.4125175   8.6605034   0.9854873  48.0270882   9.5237865   1.1352178
  49.0285683   8.7948923   0.2653135   1.7049670   7.6851029  25.3087215
   2.3999701   8.2254152  25.6845722   1.6238461   6.9458985  25.9114056
  82.3274918   9.4827127  26.4935131  82.7581100   9.5444307  27.3461494
  82.3272400   8.5468578  26.2924957  58.5433807  22.1050739  57.5026321
  58.4963913  22.8310852  56.8805923  58.3881760  22.5102692  58.3558388
  73.5300903  56.0353165  78.6036911  72.8748474  55.8639946  79.2801056
  73.3404999  56.9252434  78.3065033  40.2820358  40.0358200   2.0762663
  40.1733627  40.5206032   2.8944402  41.0968437  40.3733711   1.7042744
  12.7679434  59.3105011  62.5636978  11.8712549  59.0536957  62.3486786
  13.1539135  59.5588531  61.7237091  44.9360161  41.5720100  82.0502167
  45.8644333  41.6416969  81.8279343  44.5942230  42.4582367  81.9318695
  56.1077080  12.4087057  56.8614502  55.2325668  12.2685966  56.4998856
  56.4446068  11.5271978  57.0216827  46.5326691  56.4270401  53.6349945
  45.8046188  56.8992920  54.0389175  47.3159180  56.8705597  53.9606285
  57.9430847  51.1144943   3.8094437  58.6738586  50.5422096   3.5755794
  58.0526695  51.8835640   3.2501976  44.5204201  64.0114288  28.6985779
  45.0934410  63.3941154  28.2438183  43.8414307  64.2242050  28.0583210
  84.5076904  66.0013809  21.2443657  84.5405502  65.2277451  20.6816521
  85.4201431  66.1610641  21.4855366  71.1010895  23.9277649   4.9013124
  71.9820557  23.8754730   4.5306516  70.5592804  23.4109669   4.3049936
  30.5118752  30.1737823  66.3886490  30.7410164  30.3722057  67.2965851
  30.1892796  29.2729492  66.4144287  37.0678902  64.2311401  60.1324120
  37.3687325  65.0084610  60.6030540  36.3167610  64.5353470  59.6230011
  34.2989273   0.4307044  76.0122528  33.9023743  -0.4364513  76.0960464
  33.7563171   0.8806489  75.3646774   8.2885952   3.0325153  12.9965153
   8.1206064   3.3618288  13.8794441   7.6726422   3.5106416  12.4413319
  25.9359093  17.6444759  81.4991684  25.7273655  17.0080280  82.1830368
  25.7346516  17.1910381  80.6805573  66.8702469  20.1026936  25.4520130
  67.7769318  20.1308651  25.7575588  66.8354187  20.7476349  24.7455673
  54.7937355  51.9862671  28.6782475  54.0420799  51.7170563  29.2062378
  54.5590553  52.8554268  28.3531075  19.7555199  19.5739536   4.0282459
  20.2923470  19.7214661   3.2496004  19.2780724  18.7658710   3.8404226
  61.0126610  52.9988632  46.3881874  60.1363945  52.6612358  46.2027206
  61.0136337  53.8803406  46.0150490  66.9554062  33.6702843  56.6376762
  66.9082718  33.0933189  57.3999901  66.9594955  33.0759506  55.8873558
  57.9237175  41.3274307  85.4417038  58.6682014  41.3077049  86.0430222
  58.0236931  42.1506653  84.9636688   0.3329489  66.0455170  85.4020996
   0.7511888  66.8905945  85.2373276  -0.4972019  66.2673111  85.8238678
  77.0968475  15.2715406  15.4554138  76.9840393  14.3454504  15.2412548
  76.2243042  15.6501989  15.3480835  72.7051010  40.8364639  71.7608337
  71.9021072  41.2665977  72.0547867  73.1436920  41.4924927  71.2190781
  34.6302567  69.9388428  28.1650028  34.7780685  69.3436279  28.8999233
  35.3807869  70.5326462  28.1830177  71.1335831  63.1551018  45.0647202
  71.0098877  63.1657219  46.0138359  70.5969772  63.8804665  44.7451210
  50.8788528  15.4112768  45.7089615  50.5235939  15.6203117  44.8450584
  50.2716789  15.8231936  46.3236923  69.4472351  29.6739864  67.6763000
  69.4346008  28.7421246  67.8947144  68.5422668  29.8767490  67.4393616
  63.5856094  65.4163055  34.7231140  63.0913811  64.6261444  34.9413300
  63.5963593  65.4354477  33.7661667  27.1321678  60.9732742  33.2861214
  27.6396675  61.6535187  32.8434677  27.5163803  60.1512566  32.9813156
  60.1832199   3.0779371  39.0419426  59.6110344   3.4900751  39.6892281
  60.8069458   3.7634504  38.8026352  66.7151413   0.5891496  29.1877365
  66.9103851   0.5498226  28.2514839  66.6428452   1.5244095  29.3782444
   1.7867428  61.3050461  29.7148151   1.0222932  61.8760529  29.7909718
   2.0428624  61.1257668  30.6195221   2.4152603  19.5576763  72.8001099
   2.1747148  20.4530830  72.5621719   3.2525508  19.4097385  72.3604660
  46.4360161  60.8189049  30.9702511  45.8421288  60.0825615  31.1162815
  47.2706757  60.5302811  31.3393936  23.5932198  56.3683968   0.1386839
  22.7136574  56.0779266  -0.1026224  23.7795982  55.9117851   0.9590514
   0.7724681  53.7082787  32.8843689   1.2491407  53.6824722  33.7140350
   0.0994907  53.0334816  32.9736977   2.6042080  55.6452827  73.2758865
   3.3882854  55.8857651  73.7694702   2.9117773  55.5359993  72.3760605
  18.2126923  26.9223652  70.9242630  17.4481850  27.1502209  70.3952637
  18.8433609  26.5718880  70.2952499  25.1492100  35.5406876   5.3208976
  26.0103855  35.6146622   4.9096341  25.0730515  34.6150246   5.5523777
  19.1302929   5.1863790  12.6004066  18.5443306   5.4211397  11.8808460
  19.9039650   4.8222613  12.1701946  42.2650948   1.3373226  61.2389984
  43.1653786   1.0257775  61.3320618  42.1545715   1.9667096  61.9516602
  69.7635345  69.6253815  71.6781693  70.1740875  68.8665619  71.2635956
  69.0486069  69.8632431  71.0878067  84.4804535  30.8138123  45.2045364
  84.6532822  31.3407001  44.4243088  84.7944260  29.9386787  44.9769402
  53.7612686  19.7572422  20.0963249  54.3316956  19.0841751  20.4675674
  54.3467216  20.3064690  19.5749569  29.3794346  63.1795959   8.1538353
  29.3240051  64.0732574   7.8154144  30.2866688  62.9190941   7.9947839
  66.5031204  19.0306625   8.0102444  65.9591675  19.7995434   8.1810322
  66.0295486  18.3065243   8.4196148  13.3656683  58.4838562  47.1207161
  13.7698221  58.2239838  47.9485779  12.7009087  57.8145866  46.9582214
  36.7598000  34.7940102  68.9514008  36.3119125  34.0784874  68.5001144
  37.2675095  35.2287560  68.2662277  23.8062649  26.4292011  69.8845825
  23.0515709  26.7786961  69.4107437  24.5219860  26.4579010  69.2496338
  60.4340744  18.0133801   3.2275476  60.7957687  17.5052814   2.5014310
  59.9609528  17.3713512   3.7568715  19.9108467  40.2498207  68.4835434
  19.2977695  40.8756943  68.8690872  20.6059647  40.7931328  68.1122589
  46.9422035  42.5881004  62.8604507  47.0977707  41.6523056  62.9881821
  46.4303474  42.8523445  63.6249199  58.5315933  54.3307800  65.0409470
  59.2974586  53.9198685  64.6399002  57.7890396  53.8211060  64.7167816
  50.5058556  15.9463634  33.9691849  50.5619469  16.2431870  34.8774681
  51.1456528  15.2369432  33.9090958  32.3314667  44.0541496  66.2822113
  32.2037048  44.8613434  66.7805557  32.6345024  44.3484001  65.4232407
  23.6239414  46.1618309  25.7028370  23.0315132  46.9052582  25.5906754
  23.0444202  45.4058418  25.7970219  16.6405773  20.9467030   5.6011696
  16.6698208  20.3433208   4.8586698  15.7170677  21.1860714   5.6790471
  72.6186218  19.0143585  35.0508766  73.4547729  18.8072109  34.6335258
  72.1629791  18.1742611  35.1043091  69.8911133  52.3682594   5.0850477
  70.7184982  51.9072609   4.9467049  69.8363419  52.9860687   4.3559752
  22.7026424  58.9960976   9.9942198  22.7636013  59.1582146  10.9356194
  22.3613186  58.1044006   9.9263487  78.2746048  68.5442047  59.7434654
  78.2211304  69.4858551  59.5801659  77.6927338  68.1545334  59.0909195
  34.9892731  49.3913307  71.8745193  34.5694504  50.2355804  71.7095184
  34.5391884  49.0467033  72.6458130  39.5233765  52.2608032  51.5699577
  39.6739998  51.4559364  51.0742416  38.6787834  52.5820503  51.2542191
  81.5877686  48.0339508  52.1767120  81.8804703  47.9620781  51.2681999
  81.5076065  48.9755936  52.3287392  12.6827030   5.4644938  14.3350067
  13.5955019   5.5694418  14.6033640  12.1803684   5.5908079  15.1399527
   1.3769226  28.0260048  76.9866867   1.2987273  27.5153637  77.7925186
   1.3097657  28.9369373  77.2729111  39.7975235  54.4448853  32.6314697
  39.1219025  53.9495926  32.1683769  39.9419899  55.2192039  32.0876007
   1.7359047  17.0050755  13.0278511   2.0728495  17.8710289  12.7980137
   2.4036446  16.6335030  13.6042967  68.5245056  30.5095177  42.4410095
  69.3872681  30.1311817  42.6105080  67.9322815  30.0211811  43.0128784
  55.7410278  42.0124626  40.2456055  55.9081306  42.5877533  39.4990463
  55.0959702  42.4845924  40.7721291  24.9909573  70.1172409  14.3076706
  25.4455719  70.0392456  13.4689369  24.1577320  70.5353394  14.0905027
  17.4288311  45.1940422  34.0664711  17.0629025  45.7082024  34.7861710
  17.0181236  44.3338356  34.1536407  76.0415649  47.4209213  43.0503998
  75.2829208  47.9865379  43.1945267  75.6873779  46.5322533  43.0828819
  15.0238094  66.2863770  82.3444595  15.4354525  67.1477890  82.2755814
  14.2303696  66.3569489  81.8137054  52.5225868  52.0381660   2.6243083
  52.3046875  51.1193390   2.7808452  51.8749695  52.5276680   3.1314723
  84.9017868  30.8651733  37.5994873  84.5843582  31.5753078  37.0416565
  84.8963776  30.0942478  37.0321465  12.2061806  31.1362915  73.5908203
  11.3856926  31.2186451  73.1047668  12.6346645  31.9854202  73.4830627
  78.9242020  36.3710327  21.0822525  78.2320099  36.9619560  20.7857494
  79.2940826  36.0117035  20.2758389  16.5642128  31.2176590  83.5865479
  16.6682873  31.6367817  82.7322998  15.9047031  31.7474022  84.0344849
  81.1881180  65.6609268  28.7317410  81.5570679  65.7456818  29.6109028
  81.0519104  64.7202225  28.6188126  12.1181593  45.5612411  28.4542618
  11.6581163  46.1596603  29.0428925  12.9773865  45.9635429  28.3273163
  14.4978170  26.4092236   0.2820466  14.1956425  26.1037350   1.1373823
  13.9368029  27.1589622   0.0835892  64.0231400  67.5159302  48.7458305
  64.7219315  68.0988235  49.0427513  63.2952690  68.1015015  48.5371590
  16.7615948  41.7561455  42.7291336  17.2754269  40.9519272  42.8029060
  16.9805946  42.2534294  43.5171585  58.0939369  53.5252228   2.4670348
  58.1306725  54.2309570   3.1126530  57.4709473  53.8344269   1.8093832
  30.2359390  55.0280724  67.8360519  29.2974014  55.1797447  67.7248154
  30.4289875  55.3553772  68.7145920   4.8606820  37.8058052   3.7384605
   4.3205581  37.3455658   3.0960603   4.6145105  38.7258835   3.6431420
  56.9733238  51.9758110  64.3180466  56.0991859  52.1846924  63.9886818
  56.8149223  51.5102081  65.1392365  65.2034760  14.6473370  85.3253403
  65.4919739  13.8337574  84.9117126  65.3656693  14.5119953  86.2589417
  53.2130280  37.3917046  31.0149136  54.0139275  37.1271553  31.4674683
  53.5041237  38.0363693  30.3700085  37.6163940  58.8232803  47.6086082
  37.1909332  59.3543892  46.9354553  36.9254036  58.6475296  48.2472572
   6.6421971  34.1081848  16.7575684   6.1165452  33.9122429  17.5331516
   6.0087023  34.4204941  16.1115208  80.0403824   0.0271628  73.5819321
  79.2071991  -0.2360799  73.1911087  80.0920258   0.9697532  73.4235382
  84.3629837  65.5769119  64.9118118  85.1190414  65.1046677  64.5631180
  83.8625488  65.8331909  64.1371384   0.9953064  49.0695839   4.0350285
   1.4597846  48.2405281   4.1497478   0.8237716  49.1198921   3.0946686
  67.5870590  17.0785561  67.2775650  67.5418549  17.7910023  66.6399078
  68.4919205  17.0932808  67.5894089  59.7852821  43.6407814  81.4237595
  60.6744156  43.4430656  81.1295090  59.3700790  44.0571861  80.6684799
  71.6050797  11.0827885  15.1932192  72.1313248  11.7908173  15.5646954
  71.9454193  10.9717989  14.3054771  55.0135422  42.1709099  57.9872551
  55.0410271  43.1263161  58.0389214  54.3449326  41.9858475  57.3277550
   5.5185051  60.7251549  30.3811741   4.6693330  60.6422348  30.8150673
   5.6093230  59.9171295  29.8761177  19.6577282  32.3965378  88.6272964
  19.2037220  33.1849327  88.3297195  20.4475174  32.3569794  88.0879440
  65.0033646  44.0144081  34.2352524  65.5444946  44.2160301  33.4718628
  65.5313644  44.2930641  34.9834480  53.5500031  12.9271469  82.4113693
  54.0122261  13.4392986  83.0749054  53.9097023  13.2334280  81.5788803
  27.4621086  40.7438889  72.9394913  27.6312428  41.2903137  72.1719971
  27.6273956  39.8504028  72.6385040  26.7599545  18.9693489  74.9721756
  27.2421131  18.8169708  74.1594391  27.3203011  19.5595818  75.4760284
  75.1243210  61.0723915  31.6625996  75.5945435  60.2890396  31.9480343
  74.6053925  60.7804642  30.9131145  13.6533566  46.6046295  10.8475380
  14.3227310  47.2881050  10.8154325  13.7314215  46.2340355  11.7266273
  43.4535141   6.7591639   5.4000983  42.9068298   6.6175599   4.6272359
  43.2075768   7.6303945   5.7110724  43.5105858  39.2228622   6.7837710
  44.0750618  38.4627724   6.9246893  43.5048447  39.3441925   5.8343096
  59.3707275  38.3091316  33.8245888  59.8083153  38.8271217  34.5001907
  59.6818886  38.6804314  32.9990311  14.6365318  37.2169495  70.5479889
  14.9688606  37.6124878  71.3537979  15.3040724  37.4147263  69.8910980
  69.4422760  57.2669144  47.7510948  68.7182388  57.6452484  48.2499504
  69.3858719  57.6855621  46.8921509  29.4282780  24.2807159  68.7760315
  29.6378021  24.5150776  67.8719254  28.5005627  24.4966660  68.8705902
  33.5212212  23.2150650  14.8636789  34.3782959  23.5316830  15.1489944
  33.7046623  22.7057953  14.0742331  67.2782440  25.6581955   4.9279590
  67.0712357  26.5766392   4.7552114  66.4726486  25.1870041   4.7153153
  84.0996246  69.0458374  66.5738907  84.9060669  68.5782166  66.3566055
  83.6141205  69.0817719  65.7497330  31.5388374  53.8414345  74.3643341
  31.7091808  54.5884933  73.7906494  31.5467854  54.2108307  75.2473450
  43.1301308  12.4907169   9.7357454  43.0191498  13.1456251   9.0465355
  43.2044716  13.0015459  10.5418224  15.2954454   5.7105417  15.1594162
  15.5891066   6.3681026  15.7899780  16.0909157   5.2336664  14.9226685
  14.5196762  51.3697395  87.6010056  14.6910028  50.8440933  88.3824005
  13.6544580  51.7498932  87.7530365  67.3812485  24.3757973  61.5358582
  67.9283218  25.0261784  61.0954704  67.6153641  24.4526691  62.4608002
  54.4701385  68.2643204  36.4979935  53.6212616  68.6796341  36.3458214
  55.1096992  68.9528427  36.3159828  60.3897400   4.5745387  53.4871559
  59.8914070   3.8096402  53.1993599  60.6939468   4.3456373  54.3653908
  49.0929947  47.8113747  35.7390366  48.6954803  46.9660149  35.5302658
  48.4290428  48.2669792  36.2565498  47.9333496  22.7079830  39.5553322
  48.4216042  21.9988327  39.1370659  47.2786636  22.2630730  40.0935440
  68.7676697  69.2873154  68.0865173  68.7716446  69.5422668  67.1639099
  69.6472855  68.9442139  68.2439880  68.0311661  27.2139759   8.0985050
  68.0049210  27.9472656   7.4838257  67.2080460  26.7482071   7.9509768
  72.0162201  47.9008179   8.6617632  72.3102570  46.9985199   8.7867937
  72.1999512  48.3305321   9.4971209  26.1337986   6.4112163  69.0375519
  26.1037903   5.4725375  68.8525772  25.4292812   6.7826099  68.5065536
   7.5568299  66.1680679  34.5250626   7.0426965  66.6227264  35.1922836
   8.2452765  65.7204819  35.0169334  59.9234238  17.2007542  60.5458832
  59.8254356  18.1000061  60.8588905  60.8682861  17.0475960  60.5492477
  85.6575165  27.0552483  59.4111748  85.1798553  26.2872524  59.0977135
  86.4760056  27.0472393  58.9149513  77.6647263  60.1230011  43.4118614
  78.0366669  61.0042076  43.3748627  78.3448105  59.5602417  43.0417023
  86.5266190  22.3116016  68.6773834  86.1013489  21.5445671  69.0608368
  87.4596863  22.0982857  68.6876297  50.9305077  67.8047867   3.0122011
  50.1963768  68.3143463   2.6692240  50.9391060  67.9982147   3.9496145
   6.2428617  58.4436722  -0.0427669   5.8797073  59.0085030   0.6393732
   7.1568961  58.7174721  -0.1189635  27.9002361  52.9530106  40.3422089
  28.2442951  52.3093567  39.7228813  28.0046387  53.7937279  39.8966484
  62.7877579  45.2582932  67.1944962  63.6916428  45.2838402  67.5084610
  62.5858841  44.3254852  67.1213760   1.1860334  32.8874702  17.0043640
   0.7990177  32.0470352  17.2495518   1.9727689  32.9557838  17.5452995
  25.0389652  44.4697647  87.2653656  25.5489216  44.0269241  87.9436493
  25.6362705  44.5338783  86.5201492  82.8807678  52.6166611  75.7170258
  83.5601730  52.3518486  75.0969391  83.3111191  53.2552567  76.2855530
  69.7093277  19.1668568  69.3673096  70.1745987  18.3422356  69.2267532
  69.4007263  19.4190903  68.4970322  11.8814354  58.0624199  33.7312698
  12.7156487  57.6780853  34.0007286  11.8148432  58.8707657  34.2395782
  77.1864548  44.0519981  48.8352432  76.3500595  43.6176720  49.0026741
  77.0566483  44.9487648  49.1437798  64.4708176  30.7417107   1.2290235
  64.7273102  31.6339092   1.4623193  63.6991539  30.8518562   0.6734700
  38.1012688  54.9041481  28.3044052  38.2745476  55.1647873  27.3998203
  37.4912338  54.1703300  28.2295532  79.9841843  26.7501392  79.5286713
  79.8166885  27.3745651  80.2345581  80.7888031  27.0647163  79.1165390
  41.6474457  66.8461533  33.4466515  42.4637756  66.6383743  33.9012604
  41.1844254  67.4347534  34.0427971  15.4377470  44.2891006  10.3035326
  15.8385668  44.7499428   9.5665102  14.5175438  44.1970367  10.0565891
  68.1364212  32.2286797  50.6090088  67.2834320  31.8075275  50.7151451
  68.4465332  31.9295578  49.7542610  66.0132370   1.5508060  19.3313274
  66.3805161   2.1694760  19.9626598  66.7528000   0.9974454  19.0802021
  68.8946915  38.3815842  60.7200737  69.1481094  38.7998161  59.8972206
  69.7179565  38.2698898  61.1954651  16.0669804  69.5682449  12.6339989
  15.9777355  68.7692337  12.1145353  16.7874985  69.3831024  13.2363319
  20.0082436  51.0849876  67.1857224  19.3735714  50.3687706  67.1643906
  19.9950848  51.4431801  66.2981644  55.8728828  12.1018496  45.9302444
  56.7682152  12.3418789  45.6915016  55.6426620  11.3999701  45.3214798
  21.2463818   5.7083368  15.9914608  20.6622581   5.9783874  16.7000561
  21.6538525   6.5217309  15.6938229  26.8925648  57.5928841   7.4525766
  26.9559555  57.9660530   6.5733957  26.0159473  57.8335915   7.7523031
   6.5046268  15.9160147  71.5980988   7.3259320  15.4293222  71.6675262
   5.8739624  15.2757969  71.2685318  22.5226059  68.2635345  59.9094048
  21.8712578  67.6156464  60.1781387  22.0214195  68.9213104  59.4273491
  84.6263885  35.7198029  79.9353714  83.8118668  35.7162209  79.4326096
  85.2724152  35.3282166  79.3475418  46.2646484  42.2139397  18.8412075
  46.9951630  42.4248466  19.4226723  46.5646095  41.4512177  18.3467274
   5.2177954  28.8931503  20.2394180   5.4482541  29.1770267  19.3548069
   4.6395984  28.1419163  20.1068764  29.3113384  42.1225319  60.7416153
  28.9126987  42.9879608  60.6502151  29.4761238  41.8385620  59.8424835
  54.6650124  37.8258362  22.3811054  55.2355232  37.0753288  22.2153091
  54.8707504  38.4428444  21.6788197  75.9864502  30.1883259  71.9139175
  76.7784042  29.6623917  72.0254440  75.6482010  29.9329071  71.0556717
  45.4488144  51.3700752  80.9380341  45.1501846  51.5290833  81.8334503
  46.0845604  50.6592331  81.0202560   8.4502344  30.8070068  44.5265350
   8.7132273  30.1029034  45.1192474   9.1963062  30.9146824  43.9366074
  22.5269108  43.1411819  23.2785110  22.3390293  43.9756279  22.8488235
  22.4281425  43.3252182  24.2126465  24.7932434  36.5239296  88.5718002
  24.9179096  37.4166527  88.8938828  24.0100994  36.2127113  89.0257416
  63.3349915  38.9688759   7.1315684  63.3807182  38.3096161   7.8240418
  63.9627151  39.6404419   7.3983951  85.1368561  36.5570679  73.3255539
  84.7060928  36.3896904  74.1638031  84.4221954  36.7814102  72.7295914
  55.5467758  25.0027485  61.0362167  56.2726822  24.4423275  61.3104744
  54.8052330  24.7107887  61.5664177  73.1611557  24.7748089  83.9127655
  72.3196411  25.0210667  83.5287857  73.1501083  25.1672764  84.7857361
  61.8107452  19.5588036  20.5142326  62.2719688  20.2264919  21.0218697
  62.4826813  19.1844292  19.9445171  56.5220451  21.6996822  42.9492416
  56.8053055  22.3679638  43.5732574  56.5963364  22.1235218  42.0942154
  73.0350952  30.6372471  68.6111984  72.4445038  30.6126518  69.3640823
  73.6927567  29.9680767  68.8007202  61.3780327  59.5285263  45.6419754
  61.0980797  59.8595123  46.4953880  62.2521896  59.1713829  45.7986069
  78.1892776  31.1971722  30.2559414  78.0684738  31.6838608  29.4406071
  78.0340500  30.2838974  30.0149765  36.8217888  48.3835335  86.1338577
  37.2682648  47.9111862  86.8365479  37.3707962  48.2408333  85.3628464
  10.3733377  18.3426113  13.7507257  11.2426767  17.9457607  13.8054314
   9.8898621  17.9623051  14.4841089  10.9619064  61.7980919  67.7545013
  11.0032253  60.8491821  67.6357727  10.9045029  61.9185982  68.7023468
  43.1511192  26.7430801   4.1301517  43.4500771  26.4637032   3.2648160
  43.9542427  26.8357830   4.6426249  39.4486084  47.9023399  30.3843613
  39.6488991  47.8914185  29.4484138  38.6984291  47.3148575  30.4756298
  52.1659622  16.2904606  87.1799240  52.5250244  17.1455021  87.4170151
  51.2189293  16.3943615  87.2724762  71.3439636  37.3840332  31.7917881
  71.5503922  36.5115433  32.1270256  70.7555923  37.2240791  31.0539112
  15.0179129  43.1120377  82.6321335  14.1039486  43.3929634  82.6766510
  15.0123796  42.2221069  82.9845886  81.0952988  40.9508133  68.1126938
  80.9888382  41.4420738  68.9272842  80.4701920  40.2294884  68.1845627
  45.1764030   2.1081221   8.6052628  44.7688904   1.8926535   7.7663713
  45.2991638   3.0569417   8.5752144   7.0656834  59.9024696  13.9608412
   6.2022777  59.8958855  13.5476589   7.6677051  59.6473541  13.2617569
  19.1323471   8.4733028   0.6686205  20.0355072   8.1838112   0.7979646
  19.2091427   9.2708321   0.1449022  71.4602890  62.4440079   2.7316811
  70.6010132  62.2111244   2.3800476  71.5567017  61.8963432   3.5107837
  14.0379133  63.7550507  72.6099548  13.8849945  64.6379166  72.2732086
  13.1623240  63.4113617  72.7873001  77.2898483   4.7903733  51.4837914
  77.4199753   5.7270222  51.3355141  76.9948196   4.4527192  50.6381073
  69.9847031  49.8521538   8.4502935  70.6364441  49.1916695   8.2152958
  70.0038376  49.8777733   9.4069586  81.1371078  50.6736794   4.1899047
  81.3694839  51.4965858   4.6200852  81.6391983  50.6793060   3.3749759
  79.8482590  16.8507881  44.5070457  80.1878891  17.7028179  44.7807770
  80.6134872  16.3850174  44.1698303  64.8239670  34.5635948  10.9345446
  65.6433563  34.1741829  11.2398214  65.0783539  35.4218597  10.5955687
  50.3377304  39.9845200  53.7684669  49.6387634  40.5835266  53.5060425
  49.8894615  39.2904053  54.2516747  82.2698059  48.5388107  66.7248688
  82.7737503  47.7270050  66.6678925  82.0793076  48.6374931  67.6577148
  10.5427771  43.1549721  21.1877880  10.1395350  43.9201164  21.5978889
  10.7362175  43.4365425  20.2936230  44.7712135  49.7759018  45.5215721
  44.8767471  49.0139961  44.9518394  45.0217133  49.4618301  46.3903847
  61.3299561  71.2783661  62.2177010  61.4203377  72.0589752  61.6711540
  60.9544792  70.6193390  61.6338120  40.7387276   4.8629794  83.4545212
  41.2391930   5.4882994  82.9303589  40.2169609   5.4078126  84.0437088
   1.7541924  67.4191360  51.1798439   2.0842154  67.7980881  51.9945297
   2.5187273  67.0019226  50.7827911  17.0298767  40.4104195  60.8274040
  17.8910904  40.5321198  61.2270699  17.0800495  39.5519066  60.4070816
  76.1370468  30.1317787  79.0560303  76.3596039  30.9846764  78.6828384
  76.8975677  29.5819969  78.8674088  22.1102295  52.7745934  19.2573490
  22.1591721  53.7075920  19.4655628  22.6642170  52.6725159  18.4834557
   0.6151274  17.8337116  30.2844067   0.4435335  18.6427402  30.7663403
   0.1659293  17.9534893  29.4476833  21.6243839  36.3374290  10.4871826
  21.3690205  36.1473312   9.5844736  22.5772171  36.4224052  10.4537134
  12.0002480  44.9166565  34.5635414  11.6056442  45.7050629  34.9362793
  12.2509651  45.1711884  33.6755180  69.6005783  42.7723541  15.0469627
  69.4053802  41.8378029  14.9781170  69.8571625  43.0293236  14.1613178
  47.3772087  60.5129242  26.6316624  48.2282906  60.7050056  26.2379627
  47.1244774  61.3279839  27.0652981  66.9546204  40.0870476  79.7250977
  66.7868881  40.2182732  78.7918930  67.9055862  40.1561050  79.8095551
  55.0193901   1.5958742  48.3445969  54.4597092   0.9078876  47.9845085
  55.4404869   1.9871413  47.5792084  36.3109131  35.6531181   2.3909929
  36.6422691  34.7553406   2.3702126  36.9334908  36.1254768   2.9437203
   8.2965326  41.1761322  41.7703056   7.6610193  41.5112190  42.4028168
   9.1222458  41.5929565  42.0166550  54.0518837  33.9271736   2.1218200
  54.8358688  33.6415215   2.5908678  54.3192444  33.9550400   1.2031393
  75.3133163  67.3359756  31.0432892  76.0993729  67.8638458  31.1836643
  74.6238861  67.9756699  30.8651962  30.3121796  41.1257324  33.4437981
  29.9519882  40.9029846  32.5853844  29.9827080  40.4416351  34.0266304
  33.8831520  51.7086525  13.7753601  33.7008324  52.0768623  12.9108295
  33.2788048  50.9704971  13.8536081  83.1383896   0.2372262  51.6522598
  84.0163803   0.3959918  51.9989014  82.7655640  -0.4223083  52.2372780
  58.9284477   3.0823057  10.9476633  58.8014488   2.5562282  11.7371864
  59.0301819   3.9777339  11.2702942   1.4878814  67.2323608  60.3557129
   0.7965050  67.7391739  60.7815895   1.9638952  66.8224640  61.0779495
  78.0343781  53.9128494  79.5133057  77.8235550  54.7765999  79.8678818
  78.9296341  53.7451286  79.8076019  36.6783905  49.0559540  81.8558121
  37.5282898  49.4114342  81.5959320  36.0744858  49.7939072  81.7724304
  77.2993622   3.0039449  73.2325363  77.1391296   2.1782906  73.6895447
  78.2527084   3.0884867  73.2178802  12.6217899  32.7494583  56.2488174
  12.7716970  33.1649551  57.0980072  11.6791534  32.8324280  56.1046486
  64.3986435   6.9299150  58.5471954  64.3535385   6.7090955  59.4774818
  63.7031097   7.5751514  58.4201851  78.1466827  49.5905571  63.8535652
  78.3649139  48.9030495  63.2243271  78.4075546  50.4032898  63.4203911
  55.0135918   0.2589165  39.6732750  55.0719376  -0.1045549  40.5568581
  54.2997627   0.8947280  39.7224922  60.7543106   5.5668855  26.0611229
  60.6851158   5.1299238  26.9099503  61.4786491   6.1835237  26.1675110
  15.4922037  58.9269218  57.8296661  16.0239182  58.1532784  58.0167160
  16.1106720  59.5602913  57.4655609   4.4230456  15.0107279  73.4363327
   3.8167267  15.4846869  74.0055237   4.1734972  15.2721930  72.5499954
  73.6101761  22.8466282  68.6944046  74.2442551  22.4271793  68.1128159
  74.0536423  23.6372051  69.0019150  34.3756943  25.4296227  12.1252069
  34.2792206  26.1651402  12.7301350  33.6134529  24.8766994  12.2969418
  64.5545578  44.8083344  69.7406769  65.2443695  44.3612213  70.2310638
  63.7717361  44.2784691  69.8912354  70.0399323  59.6351318  57.1614571
  70.0233612  60.0373764  56.2930374  69.2007904  59.8768501  57.5534325
   0.9787612  68.5997009   3.8360651   1.8174939  69.0313339   3.6734257
   0.8376061  68.6976547   4.7777190  70.4799271  36.3057365  27.3945961
  70.0589905  36.6160393  28.1963196  71.1606445  35.7052879  27.6984348
  21.4400291  40.1629715  88.4632950  22.3699951  40.3883781  88.4875183
  20.9983864  40.9890976  88.2665787  31.3106289  67.0329056  36.2344475
  30.6379280  67.2535095  36.8786850  32.0987549  67.4749680  36.5501595
  10.6232939  61.7249298  24.0165825  11.0901899  61.7798538  23.1827812
  10.1340294  62.5457954  24.0716457   2.3772271   0.1665247  28.5219002
   1.8748738   0.5318856  29.2501755   1.7722760   0.1854075  27.7803421
  82.1153717  69.3776245  38.4212570  82.9770126  69.0062027  38.6106110
  81.9271545  69.1010208  37.5244331  45.4317741  18.5503273  78.8593216
  44.4967499  18.7067871  78.9915390  45.5357742  17.6062260  78.9780273
  39.6614838  49.2637901   2.4732192  39.2881241  50.1239586   2.6654315
  40.4307022  49.4513474   1.9353023  30.0712624  28.5022926  84.1249161
  29.5335503  28.0638695  83.4654617  29.6854858  29.3744278  84.2073135
  68.7559357   0.9287643  72.8985901  68.6652451   0.0528056  72.5234833
  69.3533554   1.3830409  72.3044968  45.0272751   0.8864272  55.3496056
  44.6285477   1.2607651  54.5640335  45.5204048   1.6101311  55.7360077
  27.9091339  32.8247299  56.2127762  28.6810226  32.3768196  56.5588913
  28.2510452  33.6367912  55.8387718  18.0640430  47.4683571  78.8849335
  17.5651093  46.7595444  79.2909851  17.7087536  48.2662430  79.2765732
  47.2819748  45.5711975  38.6257095  46.5662079  46.1976967  38.5189056
  47.0660744  45.0953102  39.4276772  78.0311432   3.8490467  59.3029137
  78.8245468   4.3254199  59.0583458  77.5230637   4.4774041  59.8159981
  50.6561317  53.3221283  76.2775574  51.2179718  54.0970802  76.2817612
  50.8806038  52.8679543  75.4654160  17.3409519  65.8396378  83.4540787
  16.4907475  65.7626114  83.0211258  17.9154415  66.2175751  82.7882309
  72.5105362  59.7652397  41.3710060  73.4174042  59.9344292  41.6263466
  72.1031570  60.6310692  41.3463135  77.0757217  21.0653076  16.2014065
  77.8738251  20.6161556  15.9229774  76.4110031  20.3771343  16.2295589
  34.5942688  39.9987984  71.6418762  35.3665009  40.4069633  72.0333939
  34.9258194  39.5628128  70.8568802  23.2046242  31.7813377  87.9239578
  22.9308586  32.6502533  88.2176743  24.0072308  31.9384861  87.4266052
  77.5405731  68.8615952   9.5485153  76.6718369  68.7373886   9.1662941
  78.0982895  68.2380447   9.0833569  33.5393753  55.8842659   6.8552685
  33.2954636  56.7215462   7.2498579  34.0328789  55.4318199   7.5393591
  85.6892166  38.1524277  68.1251907  84.9425278  38.7397232  68.0078278
  85.2975616  37.3106995  68.3582916  41.3329620  56.2352753   6.6738157
  41.3006248  55.9629707   5.7567353  40.4173698  56.3780022   6.9137111
  14.0428839  41.8515167  49.1264191  13.9375925  41.0763092  49.6779633
  13.8910542  42.5886688  49.7178497  74.3988571  58.5270996  39.5919571
  74.8897324  58.9491348  40.2970505  73.5270691  58.9195557  39.6388245
  50.0598259  40.2201729  19.3914700  50.3268509  39.3252335  19.6012611
  49.3384476  40.1156654  18.7710457   8.7297888  67.8562317  21.0194950
   8.3295279  68.6825943  20.7490444   9.3391285  68.1017838  21.7156582
  16.5615177  40.9483337  56.4700241  17.2349758  41.3979759  56.9804230
  16.1960354  40.3011742  57.0732117  49.8737717  52.2059898  80.9682617
  50.4464035  51.9667931  80.2394867  50.0954781  51.5839691  81.6612015
  51.2572479   4.7077746  73.4939194  50.6952934   5.4825935  73.4842453
  51.7292938   4.7646160  74.3246841   5.5261607   3.3998425  70.2743988
   4.9431820   3.2044835  71.0080185   6.2434344   2.7724876  70.3648148
  12.1571569  20.7288742  81.0026627  12.4826584  20.8190289  81.8982925
  12.4621973  21.5187798  80.5563126  37.6364594  44.6126556  50.7153130
  38.1180038  44.0916786  51.3579063  36.7889442  44.1744423  50.6383667
  56.8111305  38.1848946  24.3669853  55.9303703  38.5556870  24.3121662
  56.7050400  37.3923912  24.8932095  43.9632797  48.9162025  13.7531147
  44.6631050  48.8758087  14.4049177  43.3587303  48.2189522  14.0072594
   3.8616791  62.9672089  46.7706947   3.4235969  62.1728630  46.4651947
   3.6684866  63.6208420  46.0986290  10.6451569  16.4654160  72.3235931
  10.2195826  16.0015984  73.0447006   9.9794598  16.5027466  71.6368027
  64.4545441  53.4879341  58.3721581  64.6943588  53.0415421  57.5600891
  63.5081177  53.3636284  58.4433098  21.9650154  11.4555283  76.6348801
  21.6670170  11.0548325  75.8182602  22.1976395  12.3514633  76.3911209
  62.1623154  59.1962471   9.4104090  61.7390099  59.2644310  10.2662096
  61.8713226  58.3519516   9.0658512  74.4366837  14.4935598  33.9939232
  73.9434662  15.0518703  33.3928757  75.3247452  14.8503933  33.9780846
  35.8725624  43.3995743  43.1387863  35.9986000  44.2494049  43.5608521
  34.9658165  43.4163551  42.8325806  50.3817978  50.4621391  25.7595387
  50.3296051  50.5777702  26.7082939  50.2006454  49.5324669  25.6212349
  23.5203476  49.2593994  41.0610771  23.1030579  49.3675804  40.2064438
  24.0626659  50.0414658  41.1635323  42.8301430  28.5208569  63.6097145
  43.1925125  29.3657074  63.8764534  43.5906639  28.0119629  63.3288803
  49.6446571   5.9383607  77.7467346  49.4612961   5.3059492  78.4414749
  49.5666008   6.7918282  78.1730347  63.1380234  64.2901230  52.3324242
  63.4703331  64.5386353  51.4698448  62.2452240  63.9871864  52.1669846
  17.0743942  13.7319698  64.8073044  16.7683430  14.6054211  65.0515366
  17.9374886  13.8799877  64.4207993  69.1509628  43.9583435  12.5355692
  69.4178925  43.5332565  11.7205353  69.3878860  44.8778725  12.4148655
  53.0731201   4.7490740  24.7789593  52.9867096   4.0653324  24.1146851
  52.1909561   5.1099005  24.8674412  32.5599251  42.1109543  40.3526497
  32.4315186  41.1654320  40.4283600  32.9824867  42.2279053  39.5017700
  81.8593063  18.2149315   8.2232761  81.7279968  18.8292980   7.5010953
  81.4444275  18.6372566   8.9754400  13.7518063  40.7287102  54.9331245
  14.3142719  41.3659401  55.3733559  13.1934137  41.2563057  54.3620987
  63.5103607   1.0164585  20.5176296  63.2557831   1.9002668  20.7827797
  64.3915100   1.1187658  20.1579876  10.8696613  23.5463448  63.9480553
  11.0751448  22.6628704  64.2538071  11.7220688  23.9715080  63.8538742
  51.8403816  25.8715725  34.9478111  51.2435799  25.1259460  35.0118561
  52.6690102  25.4908180  34.6568947   2.7362232  68.3555069  17.4498234
   2.0289962  68.9696045  17.6471653   2.3706257  67.4950867  17.6553669
  12.4127111  18.2282085  52.8646584  11.6246929  17.8149719  53.2174988
  12.1025972  19.0505276  52.4853783  52.3180351  30.4986095  38.7101822
  51.9213943  30.6131191  37.8465881  51.5882225  30.2514210  39.2780762
  20.0536747  59.0566292  78.3939438  20.8025360  58.9111328  77.8157806
  20.2083893  58.4740181  79.1374893   3.9056327  29.3430157  48.3777122
   2.9659886  29.1634331  48.4101295   3.9911213  30.0586205  47.7477608
  39.1592941  66.8521118   9.1760750  38.2967873  67.1889801   9.4186363
  39.7640114  67.5602036   9.3977919   5.4628711  70.8873367  44.6877937
   4.9967113  70.5297699  45.4434891   5.1719203  71.7977600  44.6357193
  45.7465820  55.3854103  42.0097389  46.4885826  55.1290741  42.5574265
  46.1430702  55.8415642  41.2674751  74.7410736  10.6048679   5.1024566
  75.6320267  10.5485353   5.4477935  74.5591736   9.7278624   4.7648096
  28.1684322  65.6386566   4.7915573  28.9859219  65.7915268   5.2654471
  27.6110649  66.3793030   5.0303388  51.1833115  51.1277695  45.2052956
  50.2530365  51.0142555  45.4000626  51.2605858  50.9174385  44.2746925
  14.6283016  30.7324600  63.0384674  14.1906481  31.1276226  62.2844543
  13.9215679  30.5526257  63.6584854  50.4506149  31.7612133  19.5601654
  51.4011536  31.8186493  19.4631538  50.2496185  32.3392296  20.2961864
  54.6835938  60.6418533  80.0865402  55.0849724  61.3153496  80.6356506
  53.9818611  61.0981941  79.6222534  33.6755676  60.0691719  48.4818497
  32.7687531  60.0212326  48.1791573  34.0704689  60.7579041  47.9471245
  72.0401230  12.0464230  56.2438850  71.9338684  12.9557276  56.5233650
  72.5736771  11.6457100  56.9301643  55.0556374  11.0693493  88.3830566
  55.1534500  10.4442844  89.1013641  54.4549904  11.7326536  88.7228851
   9.8878412  36.3204041  10.2395678   9.4343576  36.1690712  11.0688343
   9.8086786  37.2628098  10.0917969  58.6597939  21.4845543  63.7580719
  58.4814262  21.1355934  62.8847771  59.2506485  20.8449020  64.1555176
   1.3178990  31.2144852  54.3650894   1.0806705  30.3774700  53.9658928
   1.4241532  31.8114967  53.6244698   9.8070755  64.3377991  23.8111382
  10.4696512  64.9987640  24.0120106   9.8330956  64.2545471  22.8579216
  15.0790482  33.2131195  50.9735565  14.3956127  33.2450638  51.6429787
  15.0525904  32.3137360  50.6469879  74.5972900  40.8958893  75.3846207
  73.7438278  41.0966263  75.7687378  74.9674759  40.2265320  75.9600830
  26.4374104  67.2549286  88.3427277  27.2022247  67.7389297  88.6542282
  25.8168736  67.9332962  88.0762939  15.4610052  27.9580364   4.1721931
  15.5066700  28.6965504   4.7794366  15.4403276  28.3621540   3.3047290
   5.4310694  31.4989986  30.8905430   5.7593336  30.6077576  30.7715340
   4.4944849  31.4362926  30.7031689  13.6108141  54.2522659  24.8380375
  13.5195618  54.3837776  23.8943176  13.2303743  55.0395660  25.2274704
  11.3036890  49.6842232  58.2497292  11.7011051  49.9529648  59.0780220
  11.4882240  50.4069862  57.6498985  62.8608818  27.2483730  66.4989014
  63.3356285  27.3123436  67.3276062  63.4784012  26.8271580  65.9010086
   9.2216311  23.5301838  70.3346481   9.6283493  23.6541119  71.1922379
   9.7506123  22.8520756  69.9144363  80.5410614  69.5849762  27.8820305
  81.3595047  69.3538742  28.3213291  79.9758148  68.8236313  28.0127144
  72.1183929  52.9902153   3.1773863  72.4395447  52.7567749   2.3064101
  72.1390381  52.1687965   3.6683791  21.8443546  68.3528900  30.1637020
  22.6942272  68.1072540  29.7981720  21.2082367  67.8686295  29.6373234
  21.7147446  62.5425682  49.3377037  21.0519676  63.2281685  49.2545547
  21.8100586  62.4147873  50.2815361   0.9940698  26.4584141  79.1616211
   1.4170914  26.3560753  80.0141602   1.3680199  25.7607632  78.6234055
  74.1003723  17.5762119   4.6993380  73.4876556  17.5865765   5.4346652
  74.1329956  18.4854507   4.4019256  36.9607887  69.2784576  39.6222229
  36.3450661  68.6216888  39.9474602  36.4121475  70.0289078  39.3940849
  27.6059875  33.7382240  67.7797394  27.6043587  33.3373032  66.9105530
  28.0270596  33.0883942  68.3424606  67.1494446  67.1676941  23.0802135
  67.1106644  68.1241074  23.0795479  66.4120407  66.8984680  23.6279240
  78.0549088  50.8526115  87.3387985  78.0476074  50.2487183  86.5961761
  78.2281723  50.2962837  88.0982132  69.7425156  61.6792336  71.9762878
  70.3166199  62.3961639  72.2458038  69.7096558  61.0996552  72.7373657
  58.7625885  22.4897823  48.7884789  59.0487747  21.9205875  49.5028648
  58.0159531  22.9686794  49.1482353  45.1561279  23.7335396  59.9987564
  45.4637642  23.0180092  60.5551834  44.3465271  24.0294914  60.4149208
  45.8164749  43.0192070  14.9112663  46.6902084  43.2817192  14.6215916
  45.3902359  42.6909294  14.1195679  39.7876511  59.0903587  18.2432060
  40.1717529  58.2662468  18.5424347  38.8429604  58.9553070  18.3177223
  65.0806427   1.4661365  69.4491959  64.6134796   2.2151425  69.0790939
  64.9682465   1.5574777  70.3953781  81.6870270   2.5942965  86.9030533
  81.6195908   2.6610556  85.9505692  82.5854111   2.3034730  87.0597610
  14.5257988  45.8816986  78.0948715  15.0386686  46.1150932  77.3210983
  13.6439285  45.7222519  77.7585449  83.3419876  18.1589241  75.7117004
  82.6873627  18.3939266  75.0540771  83.3807678  17.2030315  75.6801300
  49.8622665  57.6161995  73.8002167  49.7937126  58.0193634  72.9347763
  50.7336922  57.8621178  74.1106567  85.9236984  32.4519157  43.6974373
  85.8562622  33.3070335  44.1222343  86.8646622  32.2848969  43.6433296
   0.8341912  15.3484240  25.3653889   0.3748916  15.2835360  26.2026863
   0.4425631  16.1088238  24.9356785  72.6807404  11.1758585  44.2428474
  73.0536270  11.8203096  43.6412888  73.2692108  11.1842728  44.9977417
  82.5818329   6.8784161   9.2499237  83.0621338   6.2088685   9.7370090
  82.3374329   7.5262861   9.9108038  54.4804420   7.0533533  49.2806664
  54.9169655   7.7730851  49.7363701  53.8155441   6.7474766  49.8975830
  45.8631477  36.5018463  68.5243912  46.4260101  35.7294998  68.5782776
  45.6086693  36.6764412  69.4304810  73.2252655  26.7700386   5.9471335
  72.2731247  26.6718121   5.9446168  73.4999847  26.4193935   6.7943697
  81.2685852  30.0152798  40.9860840  81.6854324  30.8398857  41.2360649
  80.9012222  29.6755867  41.8021049  57.3062935   4.6731248  68.1225891
  56.7335472   4.1036329  67.6089020  56.7804680   5.4557738  68.2875061
  36.2884941  47.1486855  25.5079517  35.7066574  47.3647499  24.7792473
  36.9441109  46.5651131  25.1260529  85.6128540  32.4479294  47.2037010
  85.2341843  31.8110218  46.5977440  85.5829468  32.0142937  48.0565186
  70.5682602  18.8015289  64.3401489  70.8886719  19.1698036  63.5167770
  71.1466904  18.0583115  64.5112610  73.2976837  20.1972942  37.6041451
  73.8831329  20.8800278  37.2765007  72.7269516  19.9951210  36.8627777
  42.6801376  64.5147629   8.3137484  42.9481354  63.5960045   8.2967167
  42.0543823  64.5951080   7.5938816  77.0724182  55.3071480  86.2560120
  76.3598251  55.8228035  85.8784637  76.6441650  54.7406311  86.8977966
  79.7126846  17.6496143  84.5174942  80.0268860  17.8565845  85.3976440
  78.9016342  17.1620064  84.6612091   5.2483954  32.1165314  73.2287140
   5.0302587  32.6023750  72.4333496   5.7573128  31.3670826  72.9195862
   6.3358865  31.9229126  77.6928711   5.6663346  32.2106972  77.0722961
   6.9816985  32.6294250  77.6931610   6.8356690  51.3121567  59.7149200
   6.8231072  50.8480568  60.5519905   7.6041427  50.9664268  59.2608833
  73.4327850  42.4822044  60.5920639  74.3296890  42.1526375  60.6484985
  72.8942184  41.6963120  60.4995880  63.2587318  37.4775200  28.3909378
  63.0299110  36.6343384  28.7819824  62.6536484  37.5724792  27.6553497
   9.7479258  55.7461586   5.2024059  10.3855543  55.2736969   4.6672053
   8.9270411  55.6754684   4.7151856  12.2213640  43.0116692  63.9891205
  12.2436609  42.9793930  64.9455185  11.3554115  42.6754303  63.7582474
  70.2160492  19.1580811  21.3036709  69.5247498  19.8049374  21.4447803
  69.8943481  18.6171818  20.5824471  85.2077408  55.8286057  37.6891975
  84.9267731  55.9646225  38.5940704  85.4063034  54.8936272  37.6380310
  83.6063080   1.1672649  60.3964996  84.5508194   1.0178120  60.3541222
  83.2734222   0.8337494  59.5633240   3.6724145  52.0638390  27.1012764
   4.0192103  52.9557610  27.0802650   3.5769005  51.8222351  26.1800098
  78.0865021  22.9397812  10.5333309  78.5199966  22.4979916  11.2634926
  77.2691498  23.2712803  10.9051809  84.5921860  37.6712265  21.8378162
  85.1792603  37.1681404  21.2734756  85.1754684  38.2227592  22.3591824
   2.7414372  31.0529079   8.9604416   2.0969667  30.4701080   8.5589037
   2.2481570  31.5339775   9.6248798  65.6927490  61.9741974  12.0316992
  65.9206924  61.4371986  12.7905836  66.4930420  62.4603844  11.8332529
  43.9327087   6.3051653  25.8793087  43.7454491   6.8442059  25.1108036
  44.7131042   6.7022614  26.2659988  10.6496038  36.6263847  16.2497330
   9.7758055  36.9846992  16.4056778  10.8002615  36.0335274  16.9859734
  47.1977577  16.7353554  39.0654373  47.6022568  17.5435524  38.7501144
  46.8229561  16.3334866  38.2816925   3.9812329  31.2725105  21.6587372
   4.4533539  31.0810966  22.4691048   4.3681879  30.6832733  21.0112057
  47.9226761  22.8244858  52.3304443  47.7130547  22.4537449  51.4732170
  47.1436081  22.6571007  52.8607903  61.2539024   1.5787063  25.4872494
  61.0723534   0.7767467  24.9972153  61.3614426   1.2870461  26.3925667
  70.7697983  26.5032444  76.9927216  70.2120590  25.8791275  77.4570923
  70.2161713  27.2744961  76.8706512  80.5167770  11.1157808  25.4897690
  81.1271286  10.5423899  25.9533710  80.2784424  10.6256790  24.7028580
  57.2694702  70.2332993  55.3826942  57.3484840  69.5361557  54.7315636
  56.3863335  70.5801620  55.2562485  57.1464462  24.9932213  20.1629982
  57.3653221  24.4663124  19.3944340  57.9916534  25.2981911  20.4929199
  16.3204842  45.7373657  25.8326244  16.1723690  46.0526657  24.9410648
  17.2459850  45.9160576  25.9992123  83.8456116   1.2597301  32.1232948
  83.4767914   1.1258003  31.2502193  84.2315063   0.4142977  32.3525581
  70.4760818  18.4325008  42.8665924  69.5986786  18.6366901  42.5430222
  70.8133545  17.7823696  42.2503052  22.5077534   3.4179347  15.7135639
  22.0112228   4.2288508  15.8235807  22.2771721   3.1130908  14.8359909
  50.6118126  29.3401394  80.1819534  50.1213150  30.1341820  79.9694901
  51.3695602  29.6518955  80.6767883   2.6190693  17.2957058  59.9029961
   2.1791234  17.8671436  60.5323906   3.1481190  17.8890629  59.3698273
  70.7916336  15.2513542  21.8115025  70.8838120  14.7024918  21.0327301
  69.8464050  15.3187838  21.9464874  62.5687523  63.5298576   8.5933790
  62.9388847  62.7286720   8.9639673  61.9113922  63.8074341   9.2313910
  73.8441467  43.0149231   4.7072234  73.7263641  43.3987236   3.8382840
  73.0383987  42.5221214   4.8626161  25.6658821  69.1568375  55.0846024
  25.4744663  69.8434906  55.7234306  25.2321033  69.4481735  54.2826080
  54.9391708   6.2592773  29.9962559  55.4841537   6.0993128  30.7667351
  54.9506798   5.4299774  29.5183830  54.1309280   0.7315928  60.5412941
  54.2718735   0.0382343  61.1859779  53.8240471   1.4781895  61.0557327
   9.6974945  43.3668709  10.0455999  10.4117165  43.9913177  10.1728182
  10.0858622  42.6607590   9.5290613  42.6799927  12.7349129  73.1083527
  43.0313988  11.9659195  72.6595840  43.4329071  13.3168936  73.2115326
  79.6944122  65.1709824  44.7327881  79.2203827  65.3847046  45.5364342
  80.4958649  64.7430267  45.0340652  57.6364021  23.4402580   6.1929893
  58.3421288  23.6680546   6.7982082  57.4727211  24.2454605   5.7019787
  57.2784157   1.3942245  72.4963226  58.0768814   1.3776205  73.0239716
  57.0273247   0.4743246  72.4128494  69.3795471  67.8050919  58.1280823
  70.0474930  68.0649338  57.4935989  69.5550003  68.3481750  58.8965263
  28.4784698  66.7885895   2.3305993  28.2130833  66.3615723   3.1451302
  28.6577873  67.6944809   2.5824697  15.9356308  51.1999435  65.3731308
  16.2886600  52.0469589  65.6454697  15.5972719  50.8109894  66.1796417
  27.4755592  48.6102333  42.0745659  26.9333973  47.8353615  41.9267006
  26.8795643  49.2482224  42.4669800  75.6839523  30.3596153   0.5698256
  75.1629639  30.7000885   1.2970670  76.5646057  30.2608910   0.9316880
  54.5560989   2.3592160  67.4624100  55.1212273   1.8251619  68.0206604
  53.9328308   2.7613833  68.0674133  24.9869270  64.4918594  80.2317657
  24.2181854  64.1255875  80.6689301  25.5208054  63.7296715  80.0075531
  32.7254143  63.3940239   9.6160641  33.5600090  63.8625755   9.6041193
  32.6896591  62.9468575   8.7704897  84.3778687  52.4570923  86.7134552
  85.0510941  52.0438652  87.2540512  83.6058578  52.4929619  87.2782059
  18.3256435  14.6232767  15.6050730  17.5078144  14.2868786  15.2387075
  18.1399784  14.7416582  16.5366020  56.0998001  60.0354729  16.7756863
  55.2134781  60.3105850  16.5412159  56.4296722  60.7401009  17.3332844
  66.5652313  43.9804039  25.1067467  67.3202591  43.4157333  25.2719898
  66.7882538  44.8088455  25.5312157  64.2014160  57.4075661  13.1377506
  63.8479538  58.1266251  13.6614389  64.7142410  57.8387070  12.4541159
  79.7012177   8.6218367  82.0345612  79.0243454   8.2619629  81.4613571
  80.4915390   8.6323872  81.4946442  77.7736588  69.9560165  79.3179855
  78.6769943  69.7585144  79.5653992  77.2439499  69.5630112  80.0116577
   2.9481745  50.3084373  65.7748260   2.1820581  49.8968086  66.1746597
   2.5853591  50.9826279  65.2003174  22.9833260  69.8095779  17.4684124
  22.8589802  69.2973785  18.2674236  23.5741291  69.2793884  16.9335480
  11.0015583  53.3735962  69.7444000  10.4941216  52.7534523  69.2207947
  11.5450344  52.8228188  70.3078842  41.1268311   2.7378957  78.4643021
  42.0278053   2.9667485  78.6925583  41.2123375   2.1407084  77.7211380
  57.7803574  32.4272728  40.3693428  57.2667198  32.5354691  41.1697807
  58.1505928  33.2942162  40.2033157  22.9474983  35.1163902  76.9846802
  22.4593315  35.3373260  76.1915131  22.6002102  35.7079697  77.6522522
  63.1089935  44.1570740  31.7574844  63.8030205  44.4777184  32.3334541
  63.2970276  43.2244682  31.6520462  14.9700699  50.5749016  78.5765610
  15.8955536  50.5804138  78.8208618  14.6903496  49.6705093  78.7182007
  66.0341339  24.5100021  19.7332020  66.9199753  24.6235352  20.0776253
  65.9653168  25.1571255  19.0312557  12.5721292  66.0711212  48.6529312
  12.3596325  67.0006104  48.7373543  13.5164404  66.0267258  48.8030586
  53.3026466  59.2369957  32.3741875  53.5948257  59.1018219  31.4727497
  53.5830345  58.4478531  32.8377304  53.1881180  30.4240074  45.3573341
  54.1312523  30.4516201  45.1961975  52.8061829  30.2056828  44.5072174
   8.7195864  66.2794037  38.6577988   8.1750011  65.8037338  39.2850151
   9.4221745  66.6558380  39.1877975  76.2007141  26.5196972  85.1484680
  76.4964066  25.9539623  84.4352036  76.9600983  26.5930080  85.7265625
  64.1185074  11.8576002  81.3567047  63.6433487  11.7641087  82.1823654
  64.0196609  11.0085096  80.9260025  86.1109238  55.3450241  49.5095177
  86.4890137  54.8550682  48.7792969  85.2170410  55.5412598  49.2289810
  77.9387665  42.5772438  38.5328522  78.4009247  41.7774696  38.7838478
  78.4776382  43.2857475  38.8848152  11.1877871  35.4353447   7.9145985
  11.9672661  34.8798485   7.9061322  10.9174395  35.4547081   8.8326235
  21.4277782  51.9562149  77.6873322  21.2081356  52.3612404  76.8483124
  20.5843296  51.6881638  78.0519867  30.3682823  66.8613815  41.3529510
  29.5940971  66.9500275  41.9088364  31.1043644  66.8667068  41.9648247
   3.3373134  19.0000362  11.1686935   3.2931621  18.5039673  10.3512602
   3.3045254  19.9165974  10.8947020  19.1778374  16.8598633  85.5210953
  19.0478210  17.7338028  85.1529083  18.5668430  16.3032398  85.0382996
  41.0599785   6.7939000  74.4666367  40.2642365   6.9601922  73.9612961
  40.8472481   6.0310531  75.0042648  10.6657820  41.6516228  70.7430344
  10.5726271  42.2757263  71.4627914  10.1313362  40.9020691  71.0052795
  55.4318619  17.4814167  75.0934219  55.1429749  17.6263676  74.1924362
  55.7890968  18.3255692  75.3691406  43.5030823  52.9618378   8.5753651
  44.2699738  53.0646210   9.1388769  43.1140594  53.8356476   8.5385685
  60.5899506   9.6444197  82.2819519  61.4771423   9.9946642  82.3622742
  60.0751495  10.1495504  82.9112854  54.3827324  42.4773941  77.3287201
  54.5177002  41.5567436  77.5532608  53.4418983  42.6152649  77.4385071
  22.8385773  22.8988476  62.2338486  23.5915051  23.2614460  61.7670975
  22.8964958  21.9550285  62.0852509   4.6352220  44.1580582  75.0396957
   4.5552592  43.9666824  75.9741516   4.4770880  43.3180847  74.6087952
  33.2109146  45.9724579  19.8167152  32.6146545  46.3207397  19.1538391
  33.6011276  46.7483177  20.2192154  74.6356659  26.3616486   1.8714324
  74.3903275  26.9953156   1.1972597  74.7510681  26.8869591   2.6632426
   8.4882288  31.2495155   3.1862988   7.8606262  31.7344418   3.7222040
   8.9433451  30.6801338   3.8067060  78.2525635  -0.2400393  44.2110939
  78.8957748  -0.2386089  43.5022163  78.4017487   0.5857723  44.6715393
  11.4774199  45.9038277  86.9990234  12.4219065  46.0592117  87.0048065
  11.3753986  45.0341301  87.3856201  75.1827927  48.9948845  50.0638351
  74.8003464  49.4193077  49.2958298  74.4369659  48.5999336  50.5154839
  83.2512360  63.6356392  45.0448265  82.4308167  63.2342987  45.3313141
  83.5028229  64.2092590  45.7686386  32.8453751  49.5325699  66.3943939
  32.0933495  50.0416946  66.6968460  33.4761810  49.5875893  67.1122360
  84.5624619  20.7956142  57.6246796  84.5583649  20.5779285  58.5567894
  84.0101852  21.5745926  57.5582161  79.0283279   9.3977041  40.7654686
  79.0754471   8.4998283  41.0938454  78.3005600   9.3874893  40.1437950
  57.9058151  37.3123169  51.0848999  58.0194054  36.6341705  50.4189796
  57.0134506  37.1847725  51.4068489  83.4003677  57.1079903  35.7877502
  84.0176163  56.5304871  36.2368927  82.8595352  56.5183182  35.2623711
  23.8990097  51.6325035  13.6243839  24.3252926  52.3537407  14.0873451
  23.0419884  51.9798393  13.3771925  42.7774963  55.9475670  35.0604095
  43.3699722  55.7211227  35.7772980  42.2531281  55.1583595  34.9246864
  12.2339869  69.7949142  78.5606232  11.3907900  70.2477112  78.5756531
  12.7989101  70.3581467  78.0316010  34.9856491  12.3195324  84.2925644
  34.4106827  13.0843544  84.3188629  35.5582237  12.4760361  83.5416336
  36.1486816  14.9480753  77.0001526  36.5505142  14.6712074  76.1766815
  35.2281837  15.0923986  76.7808533  28.1678009  44.7415199  57.2339592
  28.0904102  44.2601433  56.4102364  27.4254055  44.4405708  57.7579002
  45.1379013  66.5804672  61.5535812  45.7101326  67.1558304  62.0612640
  44.7110786  66.0283966  62.2087669  61.8606224   3.1168008  72.3568649
  61.1016922   3.6639392  72.5590897  62.0713844   3.3264229  71.4469910
  47.0941391  60.9624786  72.7067719  47.0014153  61.6598625  73.3558426
  46.4568138  60.3002129  72.9740829  60.7727203  67.2150650  39.6507607
  61.6663857  67.2552872  39.3102036  60.5962296  68.1016235  39.9655418
  86.6498260  22.9390945  57.6114120  86.8853149  23.1323452  56.7039833
  86.3612900  22.0265675  57.5948448  31.1911659  35.0028648  88.9858246
  30.6499023  35.6411781  88.5212631  32.0909042  35.2733727  88.8027191
  26.4874859  68.1240234  71.5837173  27.3105736  68.1061630  72.0720215
  25.9380608  67.4704742  72.0164261   5.3614416  20.8780289  59.4029579
   5.0510788  20.8625660  60.3083115   6.0987811  21.4883270  59.4129181
  79.0522995  20.5269775  88.2664413  79.0725632  20.8771381  89.1570663
  78.2365341  20.0280457  88.2237549  45.1218758   9.8820744  75.2727356
  44.7361565   9.7867489  74.4018936  45.7217598   9.1403389  75.3514862
  60.7958717  63.7950516  72.1503601  61.5879593  64.0301743  72.6336288
  61.1062584  63.2321815  71.4410858  51.3198013   8.3471165  79.2537155
  51.7666740   8.3206863  78.4076462  51.4875603   7.4876032  79.6401443
  19.3401680  53.2386169  27.8784580  18.4713345  53.6287727  27.7828712
  19.9342155  53.8772812  27.4841938  48.4450569  58.6017685   2.4338434
  49.1185493  58.6508484   1.7554404  47.9552078  57.8056145   2.2278864
  52.5644188  69.7604523  87.1796570  52.7234077  68.8193207  87.2519913
  53.2876968  70.1631699  87.6602097  36.3062630  69.6376419  25.2171879
  36.5410309  69.8098145  26.1290398  35.4030724  69.9451447  25.1402378
  81.1306458   4.8203115  78.0273285  80.7681961   5.2266736  77.2401047
  81.6228714   4.0662799  77.7027054  44.2041435  45.6605911   1.3194798
  45.1408463  45.4705582   1.2674114  44.0190659  45.6976242   2.2578864
  63.9902496  39.2320518  39.3141022  63.8325729  38.2943344  39.4238853
  63.8960991  39.5954590  40.1946144   7.8337417  23.4135323  24.7641792
   7.7616391  23.4361992  25.7183914   8.5564947  22.8097820  24.5928726
  22.1698818  34.8977509  71.0286636  22.2457352  35.1787872  70.1167984
  21.2472897  34.6642914  71.1313858  62.6036301  14.3574963   0.6705731
  63.3451004  14.9002352   0.9386935  61.8430481  14.9325142   0.7548667
   7.6675262  67.5353088  65.6257019   7.4778881  66.6647034  65.9754333
   8.5156784  67.7661209  66.0046387  78.2584000   1.3181645  14.6869545
  78.4147720   1.3820934  15.6291294  78.0919724   0.3879771  14.5343609
  80.2097321  12.0517159   3.8662195  79.2793350  12.0069561   3.6457794
  80.2247543  12.2421360   4.8041673  70.3909073  32.6828041  19.8424149
  70.8365707  31.8813877  19.5679169  70.0295715  33.0450287  19.0334282
  73.2612839  36.7504082  82.3563080  73.5713501  37.6189461  82.6127090
  73.4570007  36.1940231  83.1102066  73.4523926  69.3540955  30.5166302
  73.2611389  69.6273422  31.4138432  73.0650711  68.4817657  30.4442101
  71.1439590  23.1956196  47.4205971  70.3926544  22.8615875  47.9106941
  71.8642807  22.6122551  47.6594505  73.1894760  21.0868187  57.5283356
  73.2073288  21.6930847  58.2688446  72.3382874  21.2363701  57.1168213
  17.6074867  65.0746765  89.1410828  17.0778275  65.0256195  88.3452911
  17.9665146  65.9619751  89.1355133   5.8852839  23.1254482  62.4912567
   6.5040150  23.8557930  62.4920387   5.9939976  22.7185192  63.3508034
  45.3300209   5.9249878  78.2932281  45.7716217   6.1677551  79.1070404
  45.6616898   5.0497808  78.0926285  28.5802059  18.9554405  72.9422073
  29.4063358  18.4723206  72.9606018  28.8352585  19.8590260  72.7558899
  36.3202057   3.6779244  89.1300583  36.8457146   2.9687378  88.7597580
  35.4515228   3.5578287  88.7463989  72.8511276   0.2334580  72.0487518
  72.5767975  -0.6405594  72.3263626  72.0344467   0.6833189  71.8322067
  20.4848900  47.9468002  41.3097038  20.3918171  47.8546906  40.3614998
  21.4086304  48.1611862  41.4399872   1.1970174   7.3165593  65.1122208
   1.9144260   6.8741546  65.5659103   0.4901471   7.3495250  65.7567978
  47.1856461  62.2280998  54.7524147  46.9980507  62.3690262  53.8244171
  48.1083374  61.9743576  54.7744064  16.6481647   0.3905674  69.2664719
  16.0827923  -0.2021721  69.7616959  17.4441395   0.4586553  69.7937469
  55.0267143  52.8179398   1.2893864  54.5591888  52.9756088   0.4691474
  54.3355980  52.7276649   1.9454664  34.9376945  52.5873222   4.8353562
  34.3191452  53.3097725   4.7272248  35.7684708  52.9323158   4.5082183
  65.3139343  19.9983368  71.7241516  65.2818069  19.0570087  71.8947372
  66.2285767  20.1700764  71.5001678   7.2434797  37.8583107  79.5595627
   7.0148582  37.0747147  79.0596161   6.6907535  37.8143387  80.3398132
  38.2701530  19.9426403   7.4597888  37.5007935  19.9154396   6.8909483
  37.9908447  20.4588947   8.2158976  63.4664078  62.9045258  13.6733027
  64.1914673  62.6150894  13.1194506  63.6791763  63.8118858  13.8916092
  33.9636917  37.4598083  76.6830292  33.6276817  36.6500664  76.2987747
  33.5551033  37.5022202  77.5475998  57.1804085  31.9177361  52.8344879
  57.8453102  31.4292049  52.3492241  57.6646996  32.3434639  53.5419083
  16.3428402  60.0793648  74.3582611  16.2114449  61.0128860  74.1923981
  17.1576996  60.0373917  74.8587341  10.3969116  32.9454193  63.2391739
  10.3187513  32.4611893  64.0611496  10.1313152  32.3189545  62.5659485
  53.9205551  65.6834564  52.7098503  53.9016838  64.8076477  53.0956421
  53.5489769  66.2507858  53.3853455  73.0757751  34.3468628  28.5303440
  73.4062576  34.2804527  27.6344643  72.5875702  33.5348320  28.6663494
  66.1240540  45.1791077  41.6142311  66.5771255  45.8208160  42.1611977
  66.8247604  44.7306519  41.1408005  53.1707497  16.7405720  67.6610260
  53.5677452  17.2146111  68.3917160  53.1797905  15.8240490  67.9369507
  79.7435608  33.2961349  53.6206894  79.4987488  33.2477112  52.6965942
  80.6252670  33.6686935  53.6156807  16.6215057  61.5371933  57.4990654
  16.2411232  62.3520699  57.8269691  17.5558548  61.6143112  57.6921310
  25.7582073  10.0066900  63.8943787  25.4358444  10.8106995  64.3016663
  25.0410118   9.7205343  63.3287163  80.1593857   9.0623875  44.1938171
  80.4074631   8.2235298  44.5824165  80.7845230   9.6892061  44.5578690
   2.1055310  43.5615654  64.8949814   2.7002790  42.8124657  64.9318161
   2.6670272  44.3021469  64.6658630  79.4827194  35.6907425  16.3983936
  80.0401382  35.3541870  15.6967859  78.5957260  35.6475334  16.0411816
  64.5874786  51.5109329  64.8626022  65.2831726  51.4221153  65.5140228
  64.0074081  50.7678947  65.0288467  31.3221798  61.1797333  44.3935165
  32.0916710  61.1858139  44.9627953  30.9555244  60.3014755  44.4957809
   5.8173938  62.9575882  50.4131699   6.6897631  62.5997849  50.2483063
   5.6804476  63.5896072  49.7074547  82.6403427   9.1466866  42.3342705
  82.5454712   9.2649097  43.2793922  82.4815598   8.2134552  42.1924934
  74.7266006  32.7988510  23.8770332  74.8036270  33.4653015  24.5597763
  75.0577850  33.2259254  23.0869942  48.9357376  16.3976727  66.5397720
  48.9712143  17.1678047  65.9724350  49.0508003  16.7459888  67.4238892
  76.1787567  55.3483505  58.7666092  75.8773575  55.1967545  59.6623802
  75.3933334  55.6216621  58.2926521  35.5591011  25.4775677   4.2553177
  35.6783142  25.9917107   3.4567719  36.3519249  24.9448795   4.3178034
  28.7134762   6.5559855   3.1258361  28.6495304   6.0471187   2.3176301
  29.6152706   6.8767524   3.1361895  13.3946972  59.7180099  72.6409531
  13.3313723  60.0732994  71.7543869  14.3201418  59.8064766  72.8688965
  27.0756721  56.3007889  46.1247826  27.1266747  55.5030022  46.6512489
  27.0404415  55.9891205  45.2204323  51.5178642  55.7568016   2.2500746
  51.0776443  55.0064392   2.6493111  51.3570747  55.6574135   1.3117253
  30.2468853  28.1396866  74.7299957  31.1209240  28.3233242  74.3856659
  29.9191761  28.9915791  75.0182953  72.2336655  15.2018890   6.2299600
  72.2526245  16.0337906   6.7030473  71.7893066  14.5980186   6.8250399
  78.7380447  55.5961761  53.7660065  78.2445602  54.9782295  53.2267075
  78.4755630  55.3932190  54.6638603  65.1906281  36.8480682  79.0747299
  65.0003128  37.7855988  79.1071548  65.6570892  36.7268219  78.2477188
  55.8356247  12.9940262  85.2205353  56.0642548  13.5463705  84.4729538
  55.9168510  12.0990829  84.8908234  47.5747375  40.5049820  72.4151382
  48.1850166  39.7676506  72.4268112  47.5293541  40.7927856  73.3269196
  80.0824203   1.0485325  19.8030071  79.4349136   0.3642741  19.6334038
  79.5628357   1.8390709  19.9489937  28.4887543  68.5839615  56.9725761
  28.5242729  69.0553741  57.8048859  27.6232300  68.1752396  56.9655571
  29.7560863  49.7825432  69.4818878  29.3605919  49.4101753  68.6937485
  30.6784134  49.9000511  69.2544250  81.7352829  53.1767044  55.2593002
  82.2771149  52.7108345  55.8961716  82.3188858  53.8371849  54.8859406
   2.8508649   3.2686038   6.2708502   2.3114758   2.5087833   6.0518427
   2.7858593   3.8375587   5.5038452  62.8242645  45.4874649  18.7416210
  63.3936234  45.9197388  19.3781738  61.9849815  45.9401588  18.8247299
  51.8707085   7.1305103  70.5591812  52.2352104   8.0152359  70.5340881
  51.3239632   7.1189132  71.3447800  66.3996735  59.1816025  34.9204788
  65.4473572  59.1572914  35.0139389  66.7128601  59.5386238  35.7515526
  26.8967896  36.0953751  56.7113914  26.2434578  35.4939003  56.3541565
  27.7201767  35.8225746  56.3066139  72.5328217  44.4543571  20.5518875
  72.6051559  44.4682083  21.5062504  72.3946381  43.5322304  20.3355198
  81.5443726  56.2146988  56.5536842  82.3980179  55.7849274  56.5004921
  81.2948685  56.3654060  55.6419449  22.4490204  47.3151703  68.2025452
  21.7038517  47.1748161  67.6183777  22.2377071  48.1230316  68.6704559
  64.2304382  51.7461777  74.1259918  64.0096130  50.9463615  73.6487503
  64.2529144  52.4275398  73.4540710   3.9338453  50.2986069  22.1006012
   3.9781151  50.1918983  21.1503983   4.0919623  49.4207306  22.4478283
  59.1262741  59.0245132  54.2364616  59.1701241  58.8688698  55.1799049
  58.4274864  58.4462891  53.9305458  79.9491119  58.0074463  71.6722870
  79.7343903  57.2933655  72.2724686  80.6493530  57.6558456  71.1224976
  18.6980972  66.1735153  15.9055138  19.4968948  66.4376221  15.4490032
  18.9779472  66.0183868  16.8076515  40.8818588  52.8258553   5.3081903
  40.0537338  53.1399536   5.6712079  41.2144928  52.2139969   5.9648628
  65.3747253  51.1560326   7.2125249  64.9645462  51.6199150   7.9424567
  66.2555237  51.5267448   7.1578021  81.1165466  65.3059921   6.9026089
  80.7418137  64.4256516   6.8742023  82.0488281  65.1642685   7.0669165
  22.3479576  33.2897148   4.9697075  22.5464916  33.2065125   5.9023881
  22.0669670  32.4136429   4.7055593  58.0853844  35.4140434  48.9841232
  57.1483459  35.5413361  49.1323967  58.3756638  34.8846359  49.7268867
  31.4067841  69.9135895  84.8494186  31.7387276  69.4651337  84.0716476
  31.0872955  69.2095490  85.4137650  55.1214447  33.1513519  66.3853302
  55.9355049  32.6557312  66.4741669  54.4437981  32.5594177  66.7118912
  21.8240871  10.4664497  63.2357674  22.5737858   9.9344864  62.9689331
  21.8268929  10.4217682  64.1919174  66.2932968  49.5320320   2.5669405
  66.3265228  50.4698830   2.7555199  66.4882355  49.1122055   3.4047809
  64.2682953  70.2430115  24.0773506  64.4968033  71.0627518  23.6391182
  64.3763199  70.4315796  25.0095539  66.6682053  58.7749443  28.9128590
  66.8036652  58.0037651  29.4634647  67.0331802  59.4992638  29.4211769
  64.5442123  66.1386414  17.0172234  65.0359879  66.2409058  17.8320427
  65.1646652  65.7317810  16.4124584  35.6274529  29.8663940  54.2233505
  36.3395462  30.4173679  53.8984108  35.6752090  29.9502087  55.1756744
  24.3374786  66.3850174  72.9239426  23.8887501  66.2646179  73.7608337
  24.7147541  65.5271988  72.7288818  73.3309402  26.1619911   8.7684870
  73.5402298  26.1403370   9.7022762  72.4490433  26.5320435   8.7292061
  82.1823502  49.9652061  20.5169754  82.9911041  50.0255623  20.0085373
  81.5858841  50.5817413  20.0923023  83.8659821   4.4049692  57.9846344
  84.1773529   3.6436052  57.4951401  84.0221329   4.1802330  58.9018784
  44.5242691  33.3782425  21.2585430  44.2092934  32.8654175  22.0028782
  44.6143417  32.7412415  20.5497780  85.8967819  51.8730469  15.9505348
  85.3646774  51.1142883  16.1900711  85.4593582  52.2393188  15.1819391
  72.1328888  11.0534096  64.7136002  71.4878082  10.5062475  65.1616135
  71.6110687  11.6343966  64.1600800  86.6217957  37.1997871  82.9586029
  86.7255402  36.6544075  83.7383652  86.7511368  36.5973930  82.2260590
  74.8871384  -0.0396918  37.8424072  75.3931961  -0.0652372  37.0303192
  74.1914444   0.5950797  37.6712227  27.1781578  31.2541313  59.0281372
  27.2132530  30.4848804  58.4595833  27.6629219  31.9272785  58.5505295
  33.0788574  46.5814095  87.8929520  32.4583778  46.2155075  87.2625961
  33.8796310  46.0732689  87.7633896  25.7236767  71.0151901  70.9879150
  26.1027107  71.7658081  70.5306015  25.4403210  70.4265900  70.2882767
  75.4351273  34.3901253  21.6095448  75.7379913  34.8541756  20.8290577
  74.4996796  34.2538109  21.4592457  16.9731693  59.1535797  67.5743256
  16.1945267  59.6591454  67.8074646  17.1520615  59.3947525  66.6654434
  33.0213089  32.3234711   4.0288734  33.9464302  32.1716881   3.8356326
  32.5685844  31.5789509   3.6326826  48.2372169   9.7539616   5.6356792
  48.2828369   8.8082886   5.7765818  47.8261642  10.0949202   6.4300427
   3.7571182  21.5537987  61.6447792   3.1240530  21.5315590  62.3623886
   4.5008016  22.0431213  61.9965286   6.0319138   8.7753630  69.3942871
   5.6836371   8.1753206  68.7348328   6.1322470   9.6074219  68.9318542
  58.0178642  46.9457245  71.6425476  58.5230598  47.4766960  72.2582474
  57.4376793  47.5704803  71.2074661  63.9670448  11.1006241  86.3223343
  63.7812386  10.4922237  87.0375671  64.9221191  11.1608105  86.3011017
  76.1744003  18.7421799  43.6054420  75.8064651  19.5275192  44.0105286
  75.7095795  18.6621189  42.7725143  53.2841454  20.3567162  14.1130943
  52.3993607  20.2182446  14.4510527  53.8583717  20.0105553  14.7962265
  26.2555294  70.2674103  36.5387955  26.4012012  71.1848984  36.3080902
  26.2132931  70.2646866  37.4950600   9.8798532  21.1515121   6.1857524
   9.3999023  21.7024498   5.5674109   9.5768671  20.2627678   5.9998307
  76.3635406  59.5713005  73.7032089  76.5632629  58.6354561  73.6799927
  76.8240509  59.8953590  74.4772568  19.1107883  53.9651566  44.1244316
  18.7793293  54.7067642  44.6307755  18.5269203  53.9116478  43.3678169
  16.3193645  50.9473114  50.8159294  16.1362133  51.0369301  49.8806992
  15.4695091  50.7473183  51.2083359  73.8823471  57.8886833  67.0556335
  74.2683563  57.7229996  67.9157333  74.2352524  57.1959305  66.4972534
  62.2149773  62.4222565  49.0118408  62.3028450  61.9947624  49.8637581
  62.6109962  63.2849731  49.1347961  35.1138725   9.9105358  68.3804474
  34.5628395  10.0908394  67.6188126  35.7197227   9.2320013  68.0825119
   2.7951782  30.4986801  51.0316582   3.0501215  30.2003975  50.1585808
   3.3258455  29.9718323  51.6292000  53.2111549  27.0106316  87.2806702
  54.0770683  27.4122276  87.3524094  53.3890266  26.0933628  87.0727997
   0.8049388  54.6160660  87.1897354   0.2283749  55.0666962  86.5726929
   0.9427769  53.7520599  86.8014984  24.1363163  53.6694641  80.9687729
  25.0894699  53.6878052  80.8827896  23.8903065  54.5846825  81.1032562
  13.4572201  60.8837929  37.5314026  13.5336151  60.1927338  38.1893044
  12.8412924  60.5343437  36.8873901  21.7599277  24.4966640  71.6491852
  22.6972065  24.4124031  71.4741364  21.6883774  24.4419117  72.6021347
   0.1510055  19.5723190  40.9472542   0.7212439  20.1828136  41.4145393
  -0.7336998  19.9011173  41.1066933  37.8409767  60.3415833  13.9298973
  37.2844353  60.5889053  13.1914368  38.7087784  60.6714706  13.6968193
   7.3636422  42.7608833  49.1057320   6.4230332  42.9107285  49.0106888
   7.7477646  43.1410103  48.3156776  69.5070190  36.2981873  20.0058384
  68.9800873  35.9681473  19.2780685  70.1428070  36.8839531  19.5948811
  24.1764812  40.1375923  86.9769745  23.9665260  39.3170395  86.5310593
  24.7264271  39.8751297  87.7151489  39.0825653  19.6493549  42.1389809
  39.4547157  18.7737694  42.0337029  39.3938293  20.1353111  41.3753090
  36.0464096   5.7354126  72.2186203  36.0721893   4.9849830  71.6249695
  35.9794655   5.3481588  73.0914307  44.8265686  12.1783714  13.6769409
  44.6705208  13.0032768  14.1367369  43.9521141  11.8206701  13.5232925
  68.2783890  16.4849586  27.2799969  67.7496109  16.0402088  26.6175652
  68.8106232  17.1068058  26.7837372  39.2669334  38.9202538  59.5098381
  38.5529213  39.3934708  59.9370155  40.0455666  39.1548309  60.0147476
  22.0565052  61.2508659  78.8022232  21.2524376  61.7352791  78.6150055
  21.8077469  60.3307381  78.7144012  66.8425369  40.3391228  86.3302536
  67.7821884  40.4739609  86.2073822  66.4430466  40.7027779  85.5400620
   9.7794323  56.4269447  33.4999619   9.7466564  55.8218193  34.2408943
  10.5297451  56.9917603  33.6850204  56.1211472  49.5841789  23.6014233
  56.3248558  48.6898727  23.8751831  55.5966415  49.9405518  24.3184490
   8.8032761  33.8047447   8.9039898   9.0928297  34.0000687   9.7951908
   9.4705362  34.2004051   8.3432312  73.0549393  65.5096436  23.1437054
  73.2302628  66.4161682  22.8913269  72.3285446  65.5699615  23.7641449
  75.4124146  26.2094612  23.5896263  74.8808975  26.7489624  23.0042534
  76.2358017  26.0839138  23.1179295  30.0971432  67.8466339  27.4426346
  30.9246635  68.3078232  27.3057041  29.7947617  68.1466141  28.2998466
  76.5732651  45.7328720  84.4999695  75.7661743  45.9113312  84.0172729
  77.2273331  46.2994080  84.0907440  17.7709293  14.0984898  81.6777420
  17.6561604  15.0487795  81.6808929  18.5565453  13.9538689  81.1503677
  78.2678146  56.1996498   6.4972110  78.5586929  55.3805695   6.8981142
  79.0779114  56.6532097   6.2642479   8.9435005  17.3593559  70.0608521
   9.0428057  16.9190636  69.2167435   8.2527370  16.8692684  70.5068207
  77.4876556  62.0100670  51.3801842  77.9114914  61.3486671  51.9271278
  77.8734360  61.8867035  50.5128975  71.0070343  38.9258232  26.0361538
  70.8101730  38.2439575  26.6784420  71.9469147  39.0802002  26.1311722
   7.8643026  53.6833382  51.0302696   8.5702181  53.8629265  51.6512871
   7.0750341  53.6419258  51.5702438  19.4156685  52.4081917  69.9076843
  18.9480171  53.2131844  69.6851501  19.8427601  52.1460609  69.0921402
  44.6158257  35.7889977  24.0280666  44.0291710  35.8081856  23.2719574
  44.0659103  35.4851913  24.7502365  26.2442875  32.1968460  82.0383453
  25.7972908  32.4812584  81.2411423  26.1247196  31.2472782  82.0541992
  30.9765930  35.4506378  59.8791809  30.1268444  35.7542305  60.1985397
  30.7672348  34.7152443  59.3033333  42.5471230  19.2211227  78.9274216
  42.6744308  19.1062717  77.9857025  42.6394920  20.1633625  79.0684433
  18.9307213  35.5398788  66.2813110  18.0280266  35.3409500  66.0327072
  18.8500748  36.2094574  66.9605637  55.8045540  48.7068291  74.2835007
  56.6571274  48.5471878  74.6883087  56.0125160  49.0458336  73.4128418
   9.3413839  39.5019684  88.0339432  10.2583628  39.5762291  87.7696228
   9.3726015  39.4228477  88.9873581  81.0641098  18.0170116  86.7094574
  81.6327591  17.2726364  86.9063721  81.5619659  18.7817745  86.9984283
  51.7341576  45.2823906  25.2876987  52.0246735  46.1376839  24.9709930
  51.1625938  45.4829292  26.0288677  66.3561935  48.2254410  72.2131958
  66.6848450  47.5309067  71.6423721  65.8980713  47.7623291  72.9145432
  77.4282761  22.7252445  34.3275452  77.2950974  23.2147503  35.1392593
  76.5441360  22.5555134  34.0024033  82.9311142  58.1908493  47.7107964
  82.0945129  58.2017212  47.2458076  83.3213425  59.0441895  47.5216980
  39.7175369  15.3682384  17.0166225  40.1601143  15.2050133  16.1837254
  39.0556755  16.0284004  16.8108120  77.1106873  62.0559044   3.3241549
  77.2790070  62.3309631   2.4229093  77.3571396  61.1311531   3.3423305
  47.6639137  15.6453400  84.2113876  48.4924278  15.5524740  83.7410965
  47.8725777  15.4046097  85.1140137  41.0383301  21.0604954   7.6777272
  41.3336525  20.5597248   8.4381514  40.1700974  20.7084503   7.4815960
  57.8706589  41.0663109  15.8549023  58.4196472  40.3112640  16.0664330
  57.9118004  41.1325874  14.9008856  68.9025116  20.5522900  78.3413239
  68.7587051  21.4971523  78.2885437  68.0485992  20.1685390  78.1418304
   8.6120100   4.8436007  69.3743973   8.1975946   4.6235156  68.5401001
   8.0038490   5.4548426  69.7900314  38.8953247   2.1209219  81.4773483
  39.6922455   2.2553568  81.9902573  39.1241570   2.4184980  80.5968323
   1.8738523  27.5372829  15.2827778   1.3214272  27.0267696  14.6908026
   2.1087391  26.9243412  15.9794588  70.0035248  52.6532478  52.8026581
  69.3085480  52.7971954  53.4449272  70.7115860  53.2337456  53.0817757
  55.2944832  51.2213135   5.4257712  55.7323723  50.4723473   5.0213809
  55.9734840  51.8935699   5.4828753  18.6858635  23.4101658   5.9968724
  19.3268623  22.8230305   5.5960894  18.7372456  23.2176552   6.9331050
  41.0642738  44.9443855  19.9813271  40.5664635  45.6046715  20.4634495
  40.4758644  44.1911583  19.9298248  54.6618881  32.6444855  85.5249100
  55.0723267  32.1384430  84.8237000  54.3942909  33.4620781  85.1051941
  69.5682526  65.2484283   5.5898876  69.6758194  64.4141388   5.1331420
  68.6286697  65.3073425   5.7629285  67.3956528  43.4756279  65.7495651
  68.1856079  43.4743156  65.2090149  67.3635025  42.5973625  66.1288376
  49.8686295  68.1164856  14.6707144  50.4002991  68.3334732  15.4365320
  48.9819489  68.0131836  15.0161963  42.1296425  47.8361473  54.5899048
  42.7467766  47.5468140  53.9178467  42.0458145  48.7790680  54.4481125
  43.0856171  51.6912231  47.7488976  43.3467445  51.9006042  46.8521233
  42.3052292  51.1458473  47.6499748  25.7611084  63.7345619  50.1018028
  25.2152977  62.9651451  50.2640381  26.1169510  63.5950623  49.2242241
  27.0665722  52.0361824  64.3906174  26.1837940  52.3714561  64.2340088
  26.9688263  51.4429092  65.1354065  47.9325523  71.1864014  66.0149002
  48.3742180  71.3150558  66.8543091  48.5988274  70.7927933  65.4515381
   7.3397284  57.4746628  50.1472054   7.7404914  56.6282845  49.9490471
   7.6891532  58.0668907  49.4813232   1.5751681   3.4160397  36.9026909
   2.0987661   4.1866522  37.1223106   0.7251726   3.5796106  37.3113251
  13.7360048  35.5937080  37.7602463  13.1247234  34.9335403  38.0869675
  13.7160692  35.4886856  36.8090363  68.3052444  53.1412964  36.4644394
  68.1225204  52.2990570  36.8809509  69.2567978  53.1562729  36.3617325
  77.7400055  57.6747017  -0.0856766  78.5613785  57.2503166  -0.3336160
  77.3757095  57.1110840   0.5968626   3.9357979  61.1243629  42.1999283
   3.3008292  60.7687569  42.8216934   3.5377934  60.9790115  41.3416176
   1.9397070  16.1852112  18.0989857   1.2642338  16.3978748  18.7429905
   1.7557036  16.7637634  17.3589497  72.4529724  35.2893181  71.2860489
  73.2879181  35.6695404  71.0130310  72.6913986  34.4594345  71.6991806
  66.3346634  40.0684204  77.0622025  66.6721497  39.3555107  76.5198975
  65.6277542  40.4508286  76.5423126  12.5173140  54.2801552  15.3464451
  13.1078320  54.9765015  15.6338892  12.6903276  54.1910706  14.4092360
  75.9124908  68.9927750   3.7459648  75.3214340  68.7969894   4.4729748
  76.5891953  68.3178711   3.7990274   9.6104479  44.1252899  16.6360455
  10.0986376  44.0500450  15.8161421   9.1622696  43.2842903  16.7259865
   8.5984325  31.8641758  83.1263733   9.0981188  31.6501961  83.9142532
   9.1897287  31.6544991  82.4034348  38.9554367  50.6961784  32.4488335
  38.6320610  51.0792656  31.6334133  39.7667618  50.2532883  32.2001648
  62.3256187   3.9901600  15.6826363  63.1383018   3.5607870  15.4153929
  61.7939568   4.0130229  14.8869963  73.1651154  70.3542633   4.4701295
  72.3505325  69.8570862   4.3959417  73.4493637  70.2148819   5.3734603
  44.2282562  50.9683533  56.8541756  43.4456902  51.4021263  57.1942711
  44.3883057  50.2493248  57.4654160  57.6006584  64.5443420   4.6722088
  57.4150429  64.2943115   5.5773396  57.5783539  65.5012589   4.6786833
  43.1285210  39.4197540  22.5391979  42.8852348  39.1276665  23.4176788
  42.3962326  39.1490097  21.9854069  52.4965363  22.9183083  41.2457771
  51.9927177  22.4851036  41.9347839  51.8357544  23.2438049  40.6345062
  80.2278824  69.6701736  53.4968224  79.7049789  69.2187805  52.8342171
  79.8028717  70.5218506  53.5980339  27.7045536   3.5669470  21.4852638
  27.8588219   3.2960019  22.3902607  28.1417751   4.4152451  21.4113750
  38.2294846  45.7472153  81.5506973  38.5437775  46.2493591  80.7988358
  38.3702431  44.8331337  81.3039780  67.0010986  57.4753456   2.0570590
  67.1377640  57.7941093   2.9492164  66.5550766  56.6357613   2.1683881
  35.1783104  62.2472343  57.5240440  35.2804146  61.8117714  58.3703156
  34.8369827  63.1148529  57.7407684  40.7859573  33.8561745  23.8644428
  40.5738754  33.1106224  24.4260540  40.4941864  34.6207237  24.3609962
  62.4406242  30.4061222  25.6508045  62.5870819  30.2944069  26.5901146
  61.4903450  30.4811840  25.5638294  55.0876808  60.7390289  13.6093302
  55.9767532  60.5563469  13.9133186  54.7596703  59.8925591  13.3058004
  70.8459625   1.4808631  53.0980148  71.2579422   2.3056104  52.8405228
  71.4350433   1.1145564  53.7575912   1.2336881  62.2106400  62.0281868
   0.8530381  61.4858322  61.5322075   1.7311978  61.7870216  62.7276573
  62.0747223  41.4613113  70.4091187  61.3315163  40.9786224  70.7709045
  61.9503517  42.3589020  70.7174988  29.2521744  65.8767776  20.2979927
  28.9180183  66.7727890  20.2562084  28.8409557  65.4329605  19.5562687
  31.3709679  27.6344509  67.8600998  31.7117214  27.6277618  68.7545700
  32.1373749  27.4704514  67.3105927  37.1058960  46.7285385  88.5666809
  36.7912445  46.7556000  89.4702835  36.7426262  45.9176216  88.2107544
  81.3103180  14.9628029  84.6640472  80.9747238  14.9371147  85.5601273
  80.5324554  14.8689327  84.1141891  33.8987465  38.3453674  83.4071121
  34.7227745  38.0213280  83.0435104  34.0999413  38.5366020  84.3231812
  47.3730698  50.5381050  30.4327087  47.5152130  50.4604683  29.4893112
  47.0240822  49.6857300  30.6932869  52.9634438   2.2239351  52.1959877
  53.2103996   1.3170675  52.0147820  53.2934570   2.3901732  53.0789871
   4.3623309  12.1741266  23.5447006   5.1671877  12.6907291  23.5052071
   4.5868258  11.3478680  23.1167641  19.3487625  56.3627052  11.5584955
  19.9087124  56.2767372  10.7869406  19.3219376  55.4827385  11.9342175
  78.5942688  53.6968002  67.9160004  78.5763016  54.5795860  68.2855988
  79.5105362  53.5554466  67.6778641   5.2432489  32.2310295  82.1603546
   5.3505225  31.5759392  82.8499832   5.8416166  31.9501648  81.4680405
  71.6652756  56.0359917  80.6353836  72.0025024  55.4728928  81.3321152
  70.8664093  55.5992012  80.3399811  78.0075684  67.2498703   4.1098509
  78.2441177  67.1378479   3.1891310  78.7128754  66.8188171   4.5925088
  50.6003456  42.8425865  38.0332985  50.8674736  43.6817589  37.6582489
  51.0421867  42.1873589  37.4932175   9.3153257  19.6086121  66.8090439
   9.5687475  18.6861153  66.8408279  10.0415230  20.0710449  67.2274094
  16.6158485  53.8548088  66.0807266  16.3155689  54.2415543  66.9032211
  17.3651829  54.3917809  65.8230667  51.7710724  45.0307617  40.6860390
  51.1351738  45.4368095  40.0969810  51.2634125  44.3860664  41.1788673
  72.8070297  50.5870361  13.1355181  71.9137878  50.4600449  13.4552402
  72.9421997  51.5339355  13.1721907  29.9677906  10.5373878   2.5403364
  30.4028091  11.3720570   2.3662181  29.5873756  10.6428890   3.4123373
  28.0712223  49.0488548  71.5997696  28.4621429  48.8819084  72.4574051
  28.7242889  49.5737686  71.1369553  63.1272850  48.5308533  81.3562622
  64.0719299  48.3895111  81.2937927  62.9045486  48.2693443  82.2497025
  28.5763874  45.7986565  72.7645721  27.8408756  45.2479210  72.4963455
  29.0547409  45.2664566  73.4003220  11.6955814   0.4105352   7.8718247
  11.0463457  -0.1830257   8.2491970  11.6210861   1.2097790   8.3932571
  47.8962708  23.3933792  26.0995064  47.9210739  22.5713272  26.5892487
  48.8124352  23.5752182  25.8902035  46.2229309  37.9668312  53.5375519
  45.9761772  38.6497765  52.9139099  46.8314972  38.3985405  54.1371384
  65.1925125  48.1770210  22.7088451  64.4762878  47.6666412  23.0867004
  65.5702515  47.6028709  22.0425892  64.1610413  51.2843704  17.3290977
  65.1104126  51.3813934  17.4032669  63.9102592  51.9010506  16.6413155
  14.0326929  55.7714729   6.0228915  14.8269768  55.7752419   6.5570545
  13.6388512  54.9143143   6.1853733  15.0466175  60.3839188  23.8423538
  15.7992334  60.6469383  24.3720913  14.7601423  61.1914330  23.4156380
  46.1379242  42.3878822  57.3644676  46.1177177  43.1740990  57.9100761
  46.9002304  42.5087547  56.7983322  51.7556572  40.7875099  36.6611519
  50.9690170  40.4135780  36.2641602  52.0587959  40.1151428  37.2712822
  63.3425102  53.8212013  27.6249561  64.0558701  53.3552208  27.1888313
  63.2329712  54.6233978  27.1143551  23.4889393  51.8262062  16.6212769
  23.1330681  52.5251198  16.0725441  23.0491772  51.0333214  16.3143940
  62.2783890  43.0851707  80.3081207  62.5694618  43.9419594  79.9959869
  63.0801849  42.6516914  80.6004410   5.8574471  70.8007126  49.2682838
   6.1679301  69.8954086  49.2522202   4.9046116  70.7262344  49.3210945
  21.4420166  67.3222351  15.3099031  22.1444397  66.6735077  15.2653255
  20.9597454  67.2097321  14.4907637  39.6008415  69.7119141  38.6438599
  38.8190804  69.3072052  39.0197449  40.2260132  68.9920502  38.5590935
  55.5621414  31.3288994  61.2683525  55.4248886  31.9984913  61.9384575
  54.7913551  31.3928909  60.7044106  69.6306076  12.4795332  40.5385818
  68.9592056  12.9282160  40.0246468  69.8925323  11.7370129  39.9942551
  54.0716743  11.8433275  20.5261745  53.9378929  11.4393559  19.6687698
  54.9622154  11.5932741  20.7724247  43.4383240  24.2422180  57.4652672
  43.8477554  24.3356724  56.6051140  43.9405861  24.8255005  58.0342522
  47.7125778  45.1376190  60.5074158  48.2336044  44.4676933  60.9500961
  47.8044090  45.9151421  61.0581017  57.8594208  48.9064369  76.5462341
  58.7323570  48.6075249  76.8009262  57.9970512  49.7944908  76.2166138
  25.1508198  34.2076950  68.7158356  24.8144913  34.3056374  67.8250351
  26.0266075  33.8385620  68.6019516  16.2737942  33.5561829  55.1153374
  17.0581417  33.6691322  54.5784264  15.7403851  34.3279686  54.9254646
  60.7517815  63.0695877  42.8674126  60.7974358  63.8793030  42.3589783
  61.6651382  62.8514748  43.0529861  19.9792900  63.1471748  24.7415085
  19.3944817  63.1179581  23.9842930  20.5952778  62.4290581  24.5962486
  48.2343216  23.6240902  33.9604568  47.7987785  22.7724113  33.9261360
  48.1197357  23.9872646  33.0822754  17.7651329  69.3115692  83.6817856
  16.9469166  69.1085358  84.1351471  17.4911900  69.7665787  82.8854523
  31.9135036  31.4563065  88.8922272  31.7126808  30.5739231  88.5802917
  31.2277451  31.6458302  89.5325775   8.2900496  40.3438835  50.6313362
   7.6230159  40.8407516  50.1576042   7.8604960  40.0823135  51.4457626
  86.3159866  47.0603485  78.8626709  86.5857544  47.8062096  78.3268051
  85.4842148  46.7796669  78.4810944  75.7397079  46.2745323   0.2428786
  76.0309067  46.7142830  -0.5559046  75.6357498  46.9806328   0.8807209
  66.8924026  34.5613976  84.7556610  66.5001373  34.7772293  85.6016922
  67.0368423  33.6158905  84.7928543  62.6917648  54.9525223  10.5141191
  62.3968964  54.0561333  10.6746483  62.9138947  54.9684982   9.5831871
  58.3660965  67.5634613  71.4421082  58.6461945  66.8577347  70.8592453
  58.4479561  68.3573074  70.9135895  66.4741898  32.3370438  70.8755341
  65.5473328  32.3130531  71.1134033  66.4929581  32.0664482  69.9575729
   7.6306863  18.6623440  80.4439163   8.3669643  19.1963501  80.7421875
   7.8829098  17.7645988  80.6599503  47.1286163  67.9829712  18.0962105
  46.2094994  67.9107437  17.8388462  47.6119499  67.5834885  17.3729992
  25.9722023  32.9328613   7.7952318  26.7130146  32.6308327   7.2696772
  25.8102512  32.2198219   8.4129515  25.3969212  41.9738045  20.4214077
  26.0254021  42.0139618  19.7005520  25.6594257  42.6833305  21.0078373
  77.7903061  43.2499237  88.0776825  77.1450500  43.3210869  88.7811127
  77.6939697  42.3542786  87.7540054  72.4301224  39.1443481  41.9334450
  72.4547424  38.1977005  41.7938728  71.5865784  39.3020744  42.3574600
   6.7077770  25.5126095  48.9250832   6.8650818  24.9063969  49.6489563
   5.9705186  25.1307411  48.4487839   9.0097704  52.6199226  42.2121086
   8.1110477  52.4273224  41.9448357   8.9628658  53.4950981  42.5969429
  83.8459167  49.5131493  16.3383961  83.3266144  48.9306679  15.7840729
  83.3397217  49.5882111  17.1473217  54.4827614  24.4180050  80.2278214
  55.2728958  24.4072552  80.7680054  54.8058548  24.3490047  79.3294449
  54.0139999  59.7809601  87.1853485  53.5050316  59.0876236  87.6054306
  54.6853065  59.3161621  86.6858063  69.0358658  11.2686529  13.2840490
  69.9436798  11.2612934  12.9806585  69.1025162  11.2807684  14.2388487
   4.0652733   8.5277643  79.8045502   4.3998518   9.0357637  79.0654831
   3.5840664   7.8056412  79.4005585  22.1030540   9.2865057  87.6200256
  22.1085339   8.4380932  88.0631943  22.1181126   9.0698690  86.6877823
  65.0676651  68.4154816   8.6691408  64.3394241  68.0966492   9.2022839
  65.1716385  69.3309555   8.9286251  62.7616005  18.4512253  68.5358124
  63.6605682  18.1496754  68.4048309  62.3808556  17.8139648  69.1401062
  38.3196220  64.2443390  14.4624357  38.9667969  64.5869980  13.8460121
  37.6727562  63.8045311  13.9107370  60.1422386  42.3497925   6.2720590
  59.9430809  41.7795982   5.5294628  60.2960815  43.2091980   5.8796458
  61.3495560   6.9959421  22.1511917  61.0571442   6.9865241  23.0625839
  60.6364555   6.5801897  21.6665535  72.4678802  40.4114037   9.2162971
  71.9715729  39.6227531   8.9973478  73.3111115  40.0844154   9.5297804
  44.5366936  15.8834181  54.3544312  43.8083839  15.8910551  53.7333565
  44.7914047  14.9626265  54.4135551   7.0260205  35.1178932   4.3635015
   6.2116456  34.6182518   4.3053422   7.2581458  35.0903511   5.2917209
  52.3261375  32.9722939  45.8470535  53.0252266  32.3820114  46.1282578
  52.0853806  32.6600342  44.9748383  81.7447510  37.6958351  88.9053192
  81.0617218  37.9721413  88.2942886  82.1422043  38.5131226  89.2058182
  11.7569141  19.2750206  77.4372711  12.4736023  18.7695942  77.0536957
  11.8700228  20.1573162  77.0837326  71.6018295  36.6313667  51.0816917
  71.5905762  35.7328072  51.4113884  72.0218124  37.1366539  51.7777710
  59.0402641  17.7814884  52.8780365  59.7961502  17.2184505  53.0449409
  59.4196968  18.6240597  52.6283646  14.6801805  69.4237061  66.9214630
  14.8243084  68.8540268  66.1658630  15.5486860  69.7666473  67.1319885
  83.8836136  32.6840134   8.5899658  84.0046310  33.5025902   8.1088028
  84.0962372  31.9995632   7.9554992  64.0469208  44.3367043   6.9468794
  64.3468781  44.9060783   7.6554494  63.7930031  43.5238686   7.3839736
  37.6657677  71.1802750  79.6549454  36.7833939  71.5262527  79.5209656
  38.1900024  71.5876007  78.9653854  65.6654053  20.9719467  12.2317419
  64.8742142  21.2749271  11.7862663  66.3841629  21.2831612  11.6814966
  85.5792007   0.2203147  11.2894020  84.8453674  -0.2743069  10.9246054
  85.1687088   0.9457647  11.7599869  70.4732971   6.5814958  68.3003998
  70.5266037   6.0851035  69.1170883  69.5369186   6.6234150  68.1062775
  83.3768768  64.9505844  54.5636482  83.5678406  65.0700302  55.4939690
  82.7805939  65.6675110  54.3475647  73.8055878  32.3060722  37.4523697
  73.2844009  31.9249554  38.1590157  73.2785492  32.1688385  36.6652069
  61.7520142  51.9454918  11.1420736  61.2768974  51.1292877  11.2979822
  61.2222290  52.4111671  10.4949989  36.9103584  57.7094536  59.3730011
  36.6757545  56.8448334  59.7100830  36.6931267  58.3111534  60.0850410
  42.7940521  66.1999512  30.9459286  42.4328766  66.4838257  31.7856903
  43.3586273  65.4590302  31.1662006  44.1340256  67.8607941  29.1564465
  43.7749672  67.4193497  28.3867474  43.7312012  67.4118576  29.8996964
  55.0548134  22.4599819  40.2496071  54.3915291  22.9916687  40.6895943
  54.5629539  21.9434280  39.6112671  60.4622917  44.5712662  26.7747688
  59.6819344  45.1248207  26.8038826  60.8107910  44.6015358  27.6657600
  44.1887512  60.8596916  17.1770878  43.2774658  60.9380836  17.4593010
  44.1480217  60.3313332  16.3799610  46.4723282  25.8011951  63.6016197
  45.6128235  25.5847092  63.9630280  46.3573532  25.7342110  62.6537132
  48.4645729   9.7139759  74.7302780  48.2203979   9.9196291  75.6326752
  49.3703079  10.0138016  74.6529694  81.3391342   6.4314761  30.0138969
  81.1147232   6.5560789  30.9360409  82.0252838   7.0771556  29.8450127
  18.3597565  62.8325081  70.8454590  17.4592247  62.5299034  70.7283936
  18.7127590  62.2722244  71.5366211  68.8550339  22.8709755  70.6525345
  68.8182983  21.9315662  70.8325195  69.4111481  22.9446831  69.8769531
  20.7361431  14.1799726  13.5306263  20.4863892  13.4754162  14.1285009
  20.2927074  14.9550705  13.8753309  72.3037338  38.9737701  29.3326931
  72.4670105  38.4974709  30.1467667  72.9507599  38.6269913  28.7184124
  28.4551315  50.7725105  38.8205605  28.9414959  50.6084366  38.0126228
  27.6536942  50.2576637  38.7264252  44.5013428  43.1131477   5.5727520
  45.0068207  42.3487206   5.8491211  43.9784393  42.8003883   4.8345184
   5.0686722  25.2581463  54.7418022   5.0968704  24.8289223  55.5969086
   4.7038403  26.1248112  54.9207497  25.8214569  64.4866714  13.1404667
  25.9080620  64.7119064  12.2141829  26.3305626  63.6822205  13.2399635
  47.3589172   8.8569670  84.1561127  46.9653397   8.0754013  84.5440369
  48.0325470   9.1219349  84.7824097  30.2177639  54.0104446  42.8223419
  29.4780636  53.5219688  42.4611397  30.1089973  54.8976707  42.4799500
  81.2149582  47.4985619  57.7674484  82.0266113  47.5556183  57.2632751
  81.2076950  48.2936020  58.3004532  81.6724319  24.7210464  62.2493477
  81.6379623  24.7519970  63.2054291  82.4143600  24.1483822  62.0548477
  28.8964443  44.0434380  50.6394806  28.2318611  44.2817345  49.9931259
  29.6082001  43.6654472  50.1229935   4.0501266   0.8505819  32.8020020
   3.4646614   1.1519076  33.4967422   3.9159176  -0.0966131  32.7697296
  81.4644623  52.8514366  62.6736259  81.3127975  53.7045670  62.2669334
  80.6356049  52.6401711  63.1032715  53.6899109  31.6445312  78.8029938
  54.5676575  31.9974728  78.6573029  53.6483040  31.4878674  79.7463684
  11.4982157  43.6062431  18.6205063  10.9961853  43.8327446  17.8376312
  12.1340160  44.3160324  18.7109928  83.6334000  18.4323101  13.8209896
  84.2955170  18.5829659  13.1463509  83.4361420  19.3046703  14.1620302
  35.7999992  65.0536194  40.4976768  35.5942688  64.1215363  40.4260979
  35.0300369  65.4968872  40.1414413  28.4480553  37.0533905   3.9913468
  27.9486904  36.3057365   3.6628933  29.3528538  36.8652496   3.7420006
  35.7988625  33.4287300  55.6307106  35.8830833  32.5497932  55.2611084
  36.5511093  33.9078217  55.2831116  12.9924965  24.1945820  14.7263050
  12.4401140  24.9753857  14.7643900  12.6860323  23.7218971  13.9524307
  72.3568878  35.1138763  32.6327705  71.9546585  34.6082726  33.3390350
  73.0858383  34.5701523  32.3340645  27.5040531  45.2506714  46.2613754
  27.2599010  44.9254189  45.3948708  27.5985260  46.1959991  46.1445007
  11.3479214  25.7713680  79.5940781  11.4903460  25.3550282  80.4441452
  10.4343796  25.5786495  79.3830566   9.5108328  27.9986000  83.2684402
   9.0928040  27.1375351  83.2611694   9.1573572  28.4298878  84.0464401
  74.8885880  63.1025429   0.3261359  75.7987671  62.8914452   0.5340713
  74.9232254  63.4665985  -0.5584527  76.2806244  35.0535278  77.4230728
  76.2795715  35.5086708  78.2651367  76.9133987  35.5358505  76.8909073
  24.8307018  63.8231506  85.1557922  25.7763271  63.8465004  85.0092239
  24.4954624  64.5817642  84.6779251   0.1859832  59.6586838  24.5223103
  -0.7268496  59.9323387  24.6121960   0.6686808  60.2370872  25.1128044
  42.5847702  45.0049438  54.2387924  41.9353561  44.3134766  54.3667259
  42.1037292  45.8173981  54.3961220  81.8728561  46.5911865  44.5510101
  82.3384399  45.8675308  44.1317444  81.9449310  47.3149147  43.9287109
  47.2342300   7.5673938  80.0895691  47.8437309   8.1352768  79.6181335
  47.7960052   6.9885731  80.6049347  49.1724281  60.7056313  63.1299667
  48.6001892  60.0653839  63.5528793  48.5739555  61.2977867  62.6745415
  78.7546005  22.5804081  19.6256447  77.9442978  22.7321377  19.1391983
  79.3353424  23.2899761  19.3508968  17.5211868  46.4761505  40.4951744
  17.3082085  46.0042000  41.3002434  17.7062130  47.3699951  40.7833443
  15.5358829  66.4042053   2.6710243  14.8844728  67.0500870   2.9444084
  16.3630276  66.7354126   3.0208387  36.3595695  64.3463593  34.2543983
  37.0000725  63.6440163  34.1416664  35.9971390  64.2019653  35.1284828
  32.7950821  29.8029518   3.4799087  33.3035240  29.1864681   4.0068469
  32.9963531  29.5668392   2.5743852  77.0532837  25.2385063  44.2278862
  76.9792328  26.0184116  44.7778854  77.2126007  25.5801525  43.3480415
  49.4291916  41.7126427  76.4032059  49.6398392  42.6413574  76.4998932
  50.2513351  41.3081436  76.1262665  24.6061974  67.6459656  10.9704924
  25.3387222  67.3463821  10.4320793  24.4343376  68.5372162  10.6665735
  65.2272949  16.3565369  32.3011475  64.5453491  16.0291862  31.7146187
  66.0022354  16.4384613  31.7452831  71.7733383  20.6608334  23.6647968
  71.9247665  20.3056736  22.7889194  72.0621719  21.5715961  23.6071777
  16.6746826  56.5733109   4.9937110  16.6210327  57.2580605   4.3270240
  15.7703810  56.2825508   5.1117258  26.5490437  45.3971405  29.2311325
  26.3640995  46.1057434  28.6147633  27.2278271  44.8768501  28.8012695
  80.6682510  36.6138687  23.2249851  81.2921829  35.9943733  22.8466015
  79.9936676  36.7147179  22.5534248  62.1162453   4.6733270   2.7455928
  61.9449730   3.7517369   2.5517645  63.0660706   4.7229190   2.8533094
  33.5666466  34.5555038  72.5290909  34.4208527  34.2042809  72.2776794
  32.9627533  34.2101440  71.8716202   3.3265426  10.0154247  36.0176811
   3.1456480  10.4713974  35.1957359   2.7779446   9.2318153  35.9826393
  18.7330685  12.7563553  18.2183952  18.8645420  11.8633156  18.5368710
  19.1173058  13.3115931  18.8968544  68.8667908  52.9945068  18.2136307
  68.8965225  53.9408569  18.3542366  69.6553268  52.8029022  17.7059650
  85.6527252  36.9398689  64.1918716  84.9559631  37.4833183  64.5598526
  86.3850098  37.0456772  64.7991562  57.8329048  48.4469299  16.7984886
  57.0865402  49.0346832  16.6813622  57.5983200  47.9097824  17.5552406
  84.8526993  26.1488609  78.9638596  84.6970825  25.2192917  78.7967758
  85.8006210  26.2519016  78.8798599  54.1479073  55.3960342  13.7832613
  53.8347931  55.0530434  14.6202488  53.7106705  54.8563576  13.1246243
  46.8982620  67.0445557  72.1253357  47.4066963  67.7933731  71.8139038
  46.4338837  67.3737488  72.8948975  66.6743698  50.3841629  66.2660751
  67.0709076  51.0010872  65.6509323  67.3978729  49.8203468  66.5397110
  18.8010044  51.4141197   7.3401070  18.9295235  51.2810287   6.4009581
  18.4725208  50.5732880   7.6584291  80.4804077  54.8244400  60.6904526
  80.2767868  54.7355957  59.7593918  79.6258240  54.8672714  61.1194992
  65.7651901  63.5392532  76.9404907  66.2991562  64.0033951  76.2957535
  65.1368790  64.1932983  77.2465591  32.4518509  40.6680603  73.6416397
  33.3489189  40.3350296  73.6172409  32.3312492  40.9655418  74.5434113
  56.8183250  25.5662079   0.4164951  55.9488716  25.1851425   0.2937244
  57.0704231  25.3070927   1.3028010  77.8737946  69.4028397  56.6626282
  77.6038895  69.9625702  57.3906937  78.8100052  69.2616425  56.8033638
  70.4019089  41.1678696  29.1442738  70.9907074  40.4260445  29.2829952
  69.5828400  40.7713089  28.8474598  63.5632248  64.7367706  27.8736744
  63.7523956  63.8127899  28.0370731  64.4216309  65.1602783  27.8716412
  16.5435715  43.1699524  52.1974335  17.4946880  43.0626297  52.2069855
  16.3966637  43.9576111  51.6737480  54.9857063  14.0113726  58.7185135
  54.9946976  13.4225988  59.4731636  55.5768661  13.6008997  58.0874252
  10.1050730  58.1808052  62.1545219   9.8277645  57.8006668  62.9880829
   9.7725811  57.5747032  61.4924660  -0.0433712  17.8242531  24.1799564
  -0.1098501  17.3119373  23.3741360   0.7306676  18.3726273  24.0519638
  72.2017365  37.0508194  60.8115044  71.5146942  36.3968315  60.9399719
  71.8988953  37.8156624  61.3009262  17.3922043  60.7802315  35.2731323
  17.6692219  61.1297455  36.1200905  16.4599953  60.9910202  35.2203598
  57.2474442  18.2049618  11.1953325  57.5520782  18.3851471  10.3059711
  56.3413010  17.9171543  11.0844221  48.5591583  18.8964043   7.9506450
  48.0449791  18.1925735   7.5550747  49.1114044  19.2189636   7.2384582
  19.8069115  45.1806107  57.8859062  20.4905415  45.6888428  57.4493446
  20.1746140  44.9727440  58.7448692  81.8989944  31.1163425  51.7517738
  82.1848450  31.8763332  51.2448883  82.6812820  30.5697193  51.8256607
  68.2962799  56.8917274  10.5386839  68.5486221  57.5951233  11.1368408
  68.3126373  56.1011848  11.0781326  60.4457245  44.6887589   4.7080879
  59.5313301  44.8819237   4.5012035  60.8980446  45.5251312   4.5979915
  35.2379570  56.3095970  28.4036579  35.9934769  56.3121338  27.8159351
  34.5048065  56.0406914  27.8501167  64.9129562   1.1540103  33.6299210
  65.8601685   1.0460321  33.7156906  64.7952118   2.0815830  33.4250374
   7.9728436  45.8886337  88.6593704   8.8696547  45.9065475  88.3252411
   7.9338913  46.6163483  89.2799759  70.4474030  37.2615509  86.3788757
  69.7952118  37.3755493  85.6875839  70.6374817  36.3234138  86.3764877
   7.0452452  61.4260635  46.9245033   7.4859052  61.6909103  46.1170959
   6.1387854  61.2667580  46.6614723  62.9809799   7.1464539  25.4299755
  62.7948723   7.6186032  24.6183910  63.9188080   7.2748961  25.5721264
  16.1913891  32.5358353  73.7963409  16.0286808  31.8065357  73.1981049
  15.3229809  32.8954811  73.9773254  19.1517963  66.8343124  50.9608383
  19.1405602  67.3567734  51.7628021  18.6210785  67.3350601  50.3413048
  26.0157185  18.7384453  85.4208298  25.7743797  19.2441616  84.6447830
  26.6919765  18.1351147  85.1127701  20.3587856  26.3136330  80.3241501
  19.6529884  26.9528027  80.4218292  21.1428337  26.8430099  80.1783371
  64.9618149  37.9854507  18.8493500  65.6741257  38.6243629  18.8240852
  65.1476440  37.4499474  19.6206684   5.0034895  50.9636993   5.7925858
   5.8896880  50.6956635   6.0355697   4.7463760  50.3473244   5.1068716
  49.8276863  46.6962738   4.6045723  50.5349960  46.1674080   4.9736843
  49.7298813  46.3736954   3.7086871   3.5278506  18.2528477  48.4381828
   3.0729008  17.4805660  48.1022797   3.4793091  18.8887653  47.7243996
  84.2045212  42.8951035  16.6768589  84.5505295  42.0051994  16.7444992
  84.1453247  43.0581627  15.7355089  10.4183130  61.1741333  38.7642746
   9.9322443  61.4224243  37.9779396  11.1504421  61.7898445  38.7976837
  41.1761475  20.6731548  40.6383820  41.8672295  20.0568085  40.3959961
  41.6443024  21.4571533  40.9254494  51.1239014  25.0588474  31.5263462
  51.0591469  25.8060417  32.1211052  50.2537346  24.9891567  31.1336861
  52.5231552  39.3497887  73.1435776  53.1862335  39.0829353  72.5069046
  52.3963318  40.2843208  72.9798889  75.5158539  37.1063309  38.0624046
  75.0446396  37.8797264  38.3723221  75.2214737  36.4000702  38.6375275
  78.1820755  61.2218895  85.8605042  78.2500839  61.1124268  86.8089905
  77.2506485  61.1067886  85.6722946   2.1815124  10.7684689  72.4089355
   2.8874619  10.1534901  72.2097702   2.6206563  11.5110960  72.8235321
  57.8158798  57.2171402   8.8573265  57.1109009  57.0086403   9.4703217
  58.1747742  58.0447159   9.1775618  57.8093224  67.7180099  25.9908733
  57.1725426  67.9678574  25.3213081  58.6521072  67.7328720  25.5373020
  36.5296593  60.7161102  20.3041172  35.7698250  60.1562653  20.1445618
  36.3432732  61.5178375  19.8155212  60.7983704  33.7745628  60.0295372
  61.0565529  34.6096268  59.6393471  61.2323685  33.7644577  60.8826332
  37.8024330   5.9328871   0.4375086  37.6975174   6.0473351  -0.5070157
  37.3056717   5.1399655   0.6393355  55.8821411   1.1629936  17.9427624
  56.4847069   1.8831060  18.1287384  55.8392868   0.6690295  18.7615395
  26.1350288  37.8552971  82.1396408  25.8448620  38.1067429  81.2628174
  25.4488106  38.1815872  82.7217636  62.7247047  46.8761215  88.7103119
  63.1074753  47.5998383  88.2143860  63.4778214  46.3710136  89.0167618
  67.4224854  32.4265366  37.8851967  67.1153412  33.3113060  37.6875076
  66.7770996  31.8515110  37.4740295  73.9889755  22.4393635  41.8763123
  73.7285995  21.6164665  41.4624519  74.8428192  22.2517357  42.2661552
  36.8422852  52.8882523  50.4793701  36.9294930  52.2561035  49.7659149
  36.7775230  53.7367134  50.0410233  38.2873688  54.1518440   6.4573321
  37.7953186  53.8382149   7.2161155  38.5129128  55.0562096   6.6752510
  50.1578560  13.2311745  48.2031097  50.3048973  13.8369713  48.9294853
  50.7516136  13.5329275  47.5156288  21.1160965  64.4077072  16.7178974
  21.3836689  64.5237732  15.8062143  21.8494434  64.7510834  17.2283134
  35.5513306  38.4092026  67.4138107  35.3648415  37.7320862  66.7634506
  34.7406235  38.4882050  67.9165421  54.1934433  58.0756378   6.2063689
  53.8606148  57.2518501   5.8502316  54.8513794  58.3619995   5.5728502
  67.0150375  11.1830931   5.5563130  67.1758270  10.5073261   6.2148848
  66.8591690  11.9796839   6.0636396  22.3434734   0.1318091   7.9689989
  21.4382591   0.0037300   8.2525768  22.6179581   0.9402193   8.4018526
  66.6789551  47.2368164  48.5911903  67.0215149  46.8852921  47.7694168
  65.7609406  47.4326401  48.4037285  55.5304184  41.2549744  43.9244804
  54.6375237  41.4028778  43.6128769  56.0454369  41.1335869  43.1268272
  38.0374565  33.6109047   5.3296518  38.9213066  33.9704285   5.2535858
  37.9777260  32.9701538   4.6210575   6.9703789  22.9312630  84.2174530
   6.7966571  22.3011818  83.5181274   6.1027431  23.2177544  84.5026932
   8.6679764  49.6344719  58.5387192   9.5609980  49.7537575  58.8620071
   8.7707701  49.4938354  57.5975037  79.2793427  69.6522980  83.5945511
  78.8235245  69.7053528  84.4345856  78.5813065  69.6884003  82.9405899
  85.9084854  62.1988220  87.4811707  86.0427933  62.9336739  88.0796585
  84.9866028  61.9658356  87.5910568  60.8676262  34.5294724  47.1766014
  60.7764893  34.2608337  48.0908012  60.5307770  35.4251938  47.1554527
  50.5639000  68.6547241  43.6446381  51.1283150  67.9522781  43.9674988
  51.1487045  69.2180099  43.1377373  79.0589218   5.7202930  87.6547318
  79.2069092   6.6220083  87.9397583  79.0849609   5.7639089  86.6988831
  11.3110275  68.1541824  80.6372833  11.6738148  68.7350540  79.9685440
  11.7188349  67.3056564  80.4643097   0.1248354  11.9044952  58.0170937
  -0.5025667  11.6450815  58.6918564   0.9816761  11.7399731  58.4107780
   0.0734962  20.0751629   5.5327892   0.9147475  19.6609497   5.7250290
  -0.0836264  19.8807125   4.6088123  20.9344997  25.3392315  85.2986908
  20.2708511  24.7765617  85.6976929  20.4739151  26.1571884  85.1115036
  20.5527573  40.0445023  40.7848358  21.2588711  40.1474571  41.4228287
  20.9805412  40.1497688  39.9350433  26.4765968  15.6082172  13.8297453
  26.8988590  16.0329971  14.5763969  26.2446594  14.7364464  14.1498251
  31.6556721  16.3829517  10.5352221  31.6800175  17.2659798  10.1665764
  31.7257481  16.5160370  11.4805317  74.6866150  58.4925766  27.0237904
  74.2497406  58.6455727  26.1859550  75.3454666  59.1846390  27.0802593
  38.2445869  35.0847092  88.6955414  38.8741379  35.0000572  89.4115906
  38.3501282  35.9853477  88.3890457  54.1460114   7.7806735  40.0186615
  54.8858032   7.5831881  40.5930634  53.3987160   7.8646741  40.6108780
  41.2838783  49.5108833  31.5483322  40.8546143  48.7431870  31.1707020
  41.9003410  49.1510963  32.1861115  75.1288452  17.2954540  35.8858948
  75.9829636  16.8637619  35.9045601  74.7602768  17.1348591  36.7545700
  32.2465630  20.3113098  66.0180359  32.6189651  21.0090427  65.4788513
  31.9935627  19.6334724  65.3913345  59.4072342  17.2445621  43.7729149
  60.2375870  17.4621429  44.1964760  59.6565285  16.9337902  42.9025688
  34.6538200  63.9907379  85.7171173  34.5503387  64.8509521  86.1240005
  35.0195808  64.1772156  84.8524399  64.3088684  29.8792877  63.7942429
  65.2087936  29.9602089  64.1101913  64.3517227  30.1501846  62.8771744
  80.9959869  29.5923290  73.4420471  81.4387207  29.3634396  74.2592545
  81.6852188  29.9656563  72.8926697  24.4675884  56.0238647  84.6960831
  24.8634129  55.2102776  84.3836288  23.7721214  55.7395363  85.2891388
   9.8778152   3.7489624  63.3680115  10.3960724   3.2077971  63.9636497
   9.6773710   4.5368171  63.8733215  22.7128944  22.3126945   4.3620329
  22.8428764  21.8417931   3.5388761  21.9573364  21.8855133   4.7656155
  10.6935472  26.2155113  89.0192261  10.1025620  26.0779819  88.2789230
  10.7618666  27.1670494  89.0976028  45.5727921  54.6268616  58.2220573
  44.9919167  55.2909355  57.8508148  46.2234688  55.1264915  58.7152367
  11.7140360  17.0898666   5.2464890  11.2548666  16.6099873   4.5572062
  12.2737408  16.4342976   5.6626530  15.1592598  37.6727524  36.3196564
  14.7064924  38.4362106  36.6779404  14.5185938  37.2664299  35.7359772
  84.9573364  42.3327942  32.0469055  85.0140152  42.0414276  31.1368923
  85.4367065  41.6681137  32.5415115  68.6898804  29.6960621  52.6649323
  69.4206009  29.7254353  52.0473404  68.5451508  30.6103992  52.9083939
  76.4135971  61.3690605  65.7267303  75.9006271  62.1441383  65.9555283
  76.8793716  61.1438065  66.5320511  83.9102859  24.0104313  15.6017399
  84.7668457  24.3895855  15.7986622  83.4074936  24.1226425  16.4084854
  44.8760986  62.2671242  33.6525879  44.3542252  62.4687691  32.8759155
  45.7466469  62.6108780  33.4520645  37.6724243  55.9265633  81.9496231
  37.2087708  56.7369614  82.1605988  37.0498276  55.2317314  82.1636734
  34.4793663  47.1712761  48.8848000  34.2930870  47.9282303  49.4402771
  33.9188232  47.2928085  48.1184807  49.5963898  45.9766273  67.7225647
  49.5363312  45.8550568  68.6701126  48.6866302  45.9988403  67.4257965
  78.5771637  51.7623634  38.2153664  78.3151779  52.4035683  38.8760109
  77.9533081  51.8868256  37.5001411  48.5255699  47.1569557  13.8622160
  48.4546471  48.1084404  13.7855520  47.7862320  46.9054909  14.4157276
  36.1216202   5.9670029   6.3833261  36.4793358   6.7284312   5.9267092
  35.2920609   5.7897162   5.9398985  30.0754681  65.3432922  81.4674149
  29.1528797  65.0882263  81.4697723  30.1312866  66.0461960  82.1147461
  43.6093941  45.9563789  33.1554565  43.1886063  45.3296547  33.7440071
  43.2158661  45.7832756  32.3002357  20.9859619  18.2585545  13.5133419
  20.3542709  17.7629642  14.0344839  21.2457180  17.6566410  12.8158770
  65.9440079  53.5830040  71.7904663  65.6278000  52.9991112  71.1010361
  65.8979950  54.4573364  71.4036102  25.9918480  58.7586021  79.7012024
  25.2336826  59.1016426  80.1742172  26.4242210  58.1799164  80.3292236
   4.6362572  60.8066864  12.7946014   4.3410854  61.3465614  13.5278406
   5.3032475  61.3377190  12.3594437  37.1539841  54.0010643   1.2528545
  37.3034973  53.7385178   2.1611202  37.5480728  54.8708878   1.1870004
  19.5151596  67.1141052  67.5138321  20.0616779  66.5588837  68.0699615
  19.7087269  66.8245316  66.6222534  68.4388580  31.2685986  82.1065063
  68.2703094  30.8072376  82.9280624  67.5839920  31.6096249  81.8435745
   7.7922730  54.8024292  24.5664501   8.5570459  54.2605057  24.3723564
   8.0852594  55.3892555  25.2636089  33.5835800  49.4674606  79.9614410
  33.6738586  48.5661736  80.2708969  34.1720352  49.9732208  80.5219421
  42.2680588   5.8171897  64.2609329  42.2969513   5.8028979  65.2175903
  41.3415604   5.9345508  64.0510254  33.2462082   9.2779560  60.7424011
  33.1421852   8.3680887  61.0208817  33.1985092   9.2429733  59.7870331
  77.5175705  44.4212112   6.1465230  77.9701691  45.1942711   6.4838076
  77.2332993  44.6742706   5.2682385  36.0550194  37.3411827  72.4558716
  35.9985428  37.7140770  71.5761032  36.9657478  37.4788589  72.7163544
  58.7743759  65.5463333  55.0926743  59.5715714  65.2188568  54.6761780
  58.9692078  66.4609756  55.2968826  63.9045677   4.7451634  56.4661865
  63.9101028   5.5681601  56.9549370  64.1246414   4.0786300  57.1169777
  53.9746552  44.2590179  38.1525459  53.6882515  44.0498314  39.0416145
  53.2191048  44.6896248  37.7526054  83.7584457  56.9666328  53.3669281
  82.9768143  56.4527626  53.5699692  83.9283905  56.7887726  52.4418793
  64.1897202  66.3397827  77.2212677  63.2833786  66.6365662  77.1394730
  64.7112274  67.0652466  76.8778152  75.9672394  25.8910904   7.8252416
  76.7265778  25.5632725   8.3070898  75.2343826  25.7842560   8.4316568
  66.2426910  14.8653660  25.2217827  66.0870972  13.9210253  25.2373886
  65.5940781  15.2250080  25.8269176  80.9967804  42.4917793  88.6199646
  80.1122360  42.6902351  88.3126755  81.5705185  42.9818306  88.0309830
  67.1827774  63.6380196  53.0402794  66.5441208  64.3455505  52.9523048
  68.0260620  64.0524902  52.8577461  57.5779610   6.1257763  70.8938141
  56.8141365   6.0190616  70.3268814  58.3070335   5.7757187  70.3818207
  32.6085396  59.1407509  71.6255951  32.2126961  59.3531990  72.4708176
  33.4772034  59.5412903  71.6604919  36.2634773  52.1145134  61.3687172
  36.3717957  51.9485664  62.3051796  36.9731522  51.6233444  60.9547806
  46.1509514  57.4782829  17.6914616  46.2707710  57.8851624  16.8333702
  45.5862656  58.0866013  18.1682301  19.9968414  40.6094246  64.2293167
  19.5323887  40.1987152  63.5000496  20.5065022  39.8991241  64.6191254
  81.7766876  65.0165482  34.5771332  81.2260666  65.3174591  35.2999763
  81.8762894  64.0764465  34.7271843  48.2173233   7.8124185  33.0854836
  48.2493095   6.8559222  33.1034775  48.0087852   8.0620699  33.9857140
  83.2727127  27.4660969   1.9918778  83.5500031  28.1431847   1.3747132
  83.9560089  27.4586296   2.6621661   1.7030088  53.9135704  13.5805397
   0.9467818  53.5059204  13.1584301   1.4463739  54.0015373  14.4984894
  56.8990669  49.3764801  42.8153076  56.7401428  49.1620979  43.7345543
  56.8760529  48.5321274  42.3650093  21.2401066  70.1090240  68.4497681
  21.6480408  69.3853455  68.9252701  20.3855476  70.2182236  68.8669434
  82.7799377  23.5973415   0.5255522  83.5266418  23.0890980   0.8423320
  82.7392273  24.3535233   1.1110117  14.6842422   8.9962854  85.7057724
  15.2776337   9.6024103  86.1493149  13.8734312   9.0409813  86.2125473
   7.5735497   9.0839911  13.6760178   7.1732082   9.8873587  13.3435135
   8.0397863   8.7195625  12.9236574  17.7389050  12.2088480  67.3795929
  18.2286377  13.0185471  67.5237503  17.4226875  12.2773457  66.4787369
   3.4517503  57.4246483   5.3294053   4.1842051  57.5594444   4.7280965
   2.9778852  58.2562675   5.3198838  28.7970791   2.6274879  84.2979202
  28.8434029   3.5587626  84.0815582  29.7109623   2.3550260  84.3804626
  29.6557713  37.1409149  88.0768356  28.8193951  36.7453880  88.3223190
  29.6265125  37.1893616  87.1213074  68.5538864   1.5361875   9.8250866
  68.8714218   2.0720520  10.5518961  67.9350815   2.1017210   9.3630438
  38.5226135  10.9458780  75.5801468  38.4127007  11.7272892  76.1219406
  39.4670677  10.7903662  75.5728836  45.3643913  57.5247803  30.6309071
  45.8660011  56.8210182  31.0424156  45.6694832  57.5375404  29.7237186
  74.4267807  70.6894989  54.2943192  74.9832230  69.9127579  54.2370377
  74.9513245  71.3891449  53.9049873  56.6020050  41.0267105  23.8077240
  57.4771996  40.6498718  23.7168465  56.2102394  40.9346733  22.9392319
  77.6735840  12.2641020  17.7536144  78.0879898  11.7533855  18.4490814
  76.7421646  12.0556288  17.8258705  52.9722748  31.7202778  21.7604828
  52.6705246  31.4273682  22.6203556  53.6705513  31.1074238  21.5301399
  50.5259666  56.4601288  10.9746542  50.9254570  55.5910759  11.0118809
  50.8567009  56.8411217  10.1612110  25.1807156  34.1142502  77.8630981
  24.4396896  34.3933716  77.3253250  24.8580704  33.3469582  78.3357544
  33.9419518  59.5235443  63.2852478  34.0346947  58.5813599  63.4263878
  33.8364067  59.8881187  64.1639862  39.4559517   9.1985121  40.7722664
  39.8063393   8.6318464  40.0849876  39.4442139   8.6470404  41.5545540
  81.7188339  53.0465622   2.6894727  80.9598236  53.6220856   2.7838395
  82.3475037  53.5604286   2.1825659  40.9044762  47.2255363  70.3690414
  40.1141891  47.5364342  69.9274368  41.2786026  48.0096931  70.7707367
  25.5609303  32.8563156  65.2582397  25.6058044  31.9023476  65.3227615
  26.4228783  33.1151352  64.9322128  79.5688705  61.2652206  88.6945724
  80.0112000  61.2015572  89.5410461  80.1858673  60.8800125  88.0723495
   9.6382036  17.6166859  53.9548988   9.8827620  18.3030357  54.5756607
   8.9088898  17.1616840  54.3759766  79.1019592  24.5434532  33.5057182
  78.3978043  23.9023952  33.4085617  79.4539719  24.6483879  32.6217995
  72.1279678  66.5254745  11.6333265  72.7753296  67.2305222  11.6256781
  71.3786392  66.8831558  11.1570835  86.1556702  39.9745064  82.6804962
  86.2229004  39.0209389  82.6312637  86.9998093  40.2910500  82.3588333
  73.3738480  62.6590042  50.5298309  73.8057785  61.9431190  50.9958496
  73.6203766  62.5316505  49.6137352  86.0018311   4.9266596  29.0464211
  86.7982941   4.4090972  28.9280624  86.2764511   5.6691875  29.5844440
  25.3004055   8.9262390  79.4175491  24.5247574   8.6510925  78.9287720
  26.0267620   8.4739027  78.9885559  72.5206223  45.2426910  31.1252327
  72.3916245  44.2942505  31.1178265  73.4422531  45.3572502  31.3569736
  54.4471359  22.5597458  36.9912720  54.5356140  23.4938183  37.1807671
  55.2473488  22.3347969  36.5166245  84.3531723  24.1361275  85.5537262
  84.7221222  25.0175343  85.6105347  83.5458679  24.1809292  86.0660553
  17.1304111  62.3171654  50.5229950  16.2014618  62.4948235  50.6703873
  17.4245834  61.8951797  51.3302269  57.2073288   2.5791318  50.2579231
  56.4101791   2.4508173  49.7438011  57.1523170   1.9231857  50.9528618
  54.2575951  68.5374451  83.0044937  53.4073792  68.4653397  83.4382706
  54.1213951  69.1898956  82.3174820  36.4755707  38.3122330  69.9542084
  37.2604637  38.8275223  69.7680664  36.0272102  38.2457047  69.1111298
  51.1671143  12.8357868  73.4646225  50.6393471  13.2583380  72.7870178
  51.4023323  13.5454788  74.0623169  49.3913040  32.2928963  44.7100105
  48.6972237  31.6606789  44.8965263  50.0317650  32.1584778  45.4085617
  59.2101669  61.4274406  35.7816849  59.2154655  62.3394699  36.0722237
  58.4405136  61.0459976  36.2040215  37.7938881  41.4198685  79.4528122
  38.1101379  40.5204773  79.5383453  36.8874092  41.3281250  79.1593704
  15.7203112  70.2361755   1.3856875  16.6304874  70.5274353   1.3311083
  15.3295174  70.5150757   0.5576018  51.6253586  18.5834694  29.1329498
  52.5258865  18.8744488  28.9893703  51.4897156  18.6804676  30.0755119
  42.8595963  41.6169052  18.2165527  43.1583481  40.7502060  17.9412136
  43.5676613  42.2073021  17.9590492  23.4005375  29.8043118  74.5141983
  22.8583851  29.1249123  74.9151001  22.8376808  30.5782394  74.4927292
  82.6394958  52.9133987  41.1023636  82.7916946  52.1699066  40.5190201
  81.8626556  52.6683311  41.6050377  73.0675430   3.3096371  40.3135986
  72.3686295   2.6744759  40.1576424  73.6237106   3.2493060  39.5368958
  80.6816864  69.2370911  57.9308281  80.3867188  68.8243637  58.7425423
  81.3491135  68.6424255  57.5885544  56.7366943  50.9677582  66.8369217
  55.9081764  50.5403061  67.0538864  57.3816032  50.2605362  66.8496323
  75.9495850  16.2608223  39.1556091  76.7119675  16.0317535  38.6240768
  75.7929535  17.1854343  38.9638023  49.7784309   4.0713735  83.5945435
  49.8229561   3.4758012  84.3425674  50.2026253   3.5931749  82.8820724
  57.2150955  48.7994652  85.7600327  57.7322235  48.3063507  86.3969421
  57.3604965  49.7166443  85.9921341  28.9595604  12.1389771  83.2619095
  29.3632488  11.4231720  82.7711029  28.4322796  12.6062078  82.6139145
  82.8057251   8.7031298  59.6178284  82.3759232   8.0454693  60.1646233
  83.7353439   8.4788342  59.6594810  27.7612495  25.1238232  75.1065140
  27.3714733  25.9885845  75.2349548  27.8800449  25.0529270  74.1593704
  54.0926247  60.1585312  37.0172081  54.2850914  61.0653687  37.2556000
  53.8361511  59.7436409  37.8408089  51.3671227   0.5494490  43.9234200
  51.5155563  -0.0599501  43.2003479  51.8980064   0.2036303  44.6409187
  66.2156754  41.4384422  52.0070076  66.9573746  40.8443756  52.1218796
  65.7622681  41.4212494  52.8498383  22.1005611  70.8607101  61.5181770
  21.1982746  70.6077194  61.7133827  22.4989014  70.0683517  61.1580124
  69.0609741  36.5617523  46.2039757  68.1717987  36.9092140  46.2737007
  69.3731613  36.5194664  47.1078453  17.8183212   2.6316295  49.9811363
  17.8778858   3.4049356  50.5421028  18.6917171   2.5449739  49.5991669
  18.8747025  63.4551353  30.7262306  19.4941788  64.1769638  30.8331966
  18.6965179  63.1582069  31.6185970  36.4068642  11.5597839  64.2707825
  36.4376068  12.4102793  64.7089005  36.1206932  11.7596874  63.3795090
  20.3132496  64.7639084   1.0045452  19.3915939  64.9442596   0.8194572
  20.7289276  64.7326736   0.1428795  22.5531502  25.0400391  26.2949848
  21.6595402  24.8019505  26.5419788  22.6415939  25.9534359  26.5672302
  10.6970139  40.2523880  23.0784874  10.8441563  40.5346222  22.1757545
  10.3846693  41.0381012  23.5271854   2.6532419  52.3733902  31.1094017
   1.9716735  52.9155502  31.5065918   2.4839077  52.4267349  30.1688118
  26.7543030  23.5495720   1.7758069  26.1882381  23.4297676   2.5383346
  26.7318268  22.7050591   1.3257780  82.3704910  11.9035463  35.4418335
  82.4576950  11.8019562  36.3896217  81.6177368  12.4844170  35.3314590
  60.2748108  21.0191936  79.2804260  61.0923767  21.5169926  79.2760391
  59.6169777  21.6362228  78.9598618  39.2844391  63.6733780  75.7397232
  39.2075157  62.7216187  75.6728439  38.6428337  64.0100632  75.1142502
   5.5124321  30.3438187   2.8953083   6.4597411  30.4065056   2.7732112
   5.2312231  31.2449379   3.0538487  76.8398209  23.1636639  42.3155098
  77.7593155  23.1681900  42.0495415  76.8110199  23.7287846  43.0875473
  83.1945419  21.2667618  65.7456207  83.2871628  21.8468361  64.9898682
  83.9047012  20.6322746  65.6490097  61.5396118  16.9609089  45.4969635
  61.7288780  16.0426464  45.3040810  61.8867188  17.0969391  46.3785782
  54.9638634  39.7259026  76.9654617  55.1326866  38.8961525  76.5190887
  55.7498398  39.8801842  77.4895477  56.0582123  70.3973236  71.6850815
  55.4632721  71.0417557  71.3016968  55.4928017  69.6642380  71.9282455
  31.3383064  42.3437233  11.1322670  31.9588299  42.9186096  11.5802479
  30.6493645  42.1856041  11.7777042  40.1428947  34.3900261  12.4281940
  40.0235329  34.4762688  13.3739986  39.3468323  33.9533501  12.1251516
  37.1032295  46.0744858  43.5027962  37.8929405  45.9083557  44.0175667
  36.4657974  46.3976021  44.1395912   5.7537022  51.6556015  69.4116516
   6.3328085  51.0018616  69.0198746   6.1056628  51.7908058  70.2914658
  49.3362999   8.0922680  55.0373764  48.5162468   8.5027218  55.3117409
  49.0944366   7.1899266  54.8287773  20.4435558  42.4689941  13.5283775
  20.6538448  41.5369148  13.4715061  19.8001671  42.5267067  14.2347441
  77.1334457  12.0591612  71.7471619  77.7492294  11.7042103  71.1060257
  77.4510803  12.9456110  71.9190598  84.6434326   8.0385027  80.1551208
  84.3871384   7.1881151  79.7982025  84.7454071   7.8832569  81.0941238
  61.7258682  41.0733223  77.4930954  60.9221115  41.2298088  77.9888000
  62.0916748  41.9459267  77.3482666  17.3063488  11.6703806  54.8628998
  18.0290413  12.2755766  55.0292892  16.6162033  11.9503880  55.4641685
  78.8381500  54.9432755  75.4746704  78.7262268  54.5987244  74.5886765
  78.3428192  54.3413086  76.0301056  61.1370773  49.5325432  25.3642845
  60.3096313  49.8153839  25.7535992  61.6012192  50.3468895  25.1702557
  49.5762558  15.3655720  43.2331238  49.8232689  15.5496635  42.3268547
  48.6200409  15.3251610  43.2172623  55.2229614   4.8429160  40.4566994
  55.7111282   5.6599793  40.5583534  54.5008316   4.9161339  41.0807190
  71.7125320  37.2200089  58.0846748  72.5631332  37.3423843  57.6630974
  71.9204025  37.0884399  59.0097198  13.1751871  15.8805637   1.1028112
  13.1648579  15.1256733   0.5143689  12.2822027  16.2235069   1.0681437
  79.8721771  62.8836136  38.4650269  80.0525513  63.4015465  39.2495270
  79.2986755  62.1801414  38.7690811  12.9053907  17.2951565  14.3312349
  13.2849398  17.6607819  15.1302919  13.2099075  16.3878345  14.3148403
  44.5094681  66.4517670  34.9618950  44.5633698  67.2973480  34.5165634
  45.0613976  65.8701324  34.4391098  25.4687405  28.5769806  11.3040800
  24.8419170  27.9022465  11.0431948  26.1368504  28.1041889  11.8003960
   9.8364763  52.0131111  48.0637321  10.3557444  52.7992439  47.8946533
   9.1405840  52.0399017  47.4070396  75.8022614  43.3143692  85.6255722
  75.3758240  43.8281784  86.3114166  76.3912506  43.9332199  85.1938934
   2.0338318   7.4287663  35.4909096   2.6435769   6.8488898  35.9471855
   1.2845341   6.8712525  35.2812386  80.8276825  45.7593269  84.1881409
  81.5198059  45.1177750  84.0281067  80.8543625  45.9097481  85.1330719
  54.9487953  52.3265343  43.4977150  55.0519257  51.9385490  44.3666573
  54.5299110  51.6408997  42.9774513  60.4706039  43.2772064  88.4048920
  59.9355049  42.5725212  88.0397644  61.0210762  43.5624237  87.6756058
  40.6916084  55.1545448  79.0671234  40.5404549  55.9691467  79.5465012
  41.2218781  55.4147568  78.3139038   3.6539004  14.0286751  83.1780930
   3.4454236  13.3238983  82.5648499   2.8029866  14.3911724  83.4246140
  43.2463379  70.7769394  49.0908203  43.4282455  71.2449570  49.9057426
  43.9651222  71.0221634  48.5082016  21.8378201  62.4472809   5.6482821
  21.0819340  62.0198898   5.2455387  21.5704250  62.6030579   6.5540781
  70.2381516  46.4610748  84.5854111  69.9207764  45.8568649  85.2565536
  70.8836670  45.9542503  84.0927887  40.2611008  29.0829906   9.7071552
  39.3428001  29.0860138   9.9772425  40.6215630  28.2845211  10.0928297
  63.9889641  61.4880028  15.9803305  63.7351341  62.2519875  15.4625196
  64.9395828  61.5612335  16.0651379   7.2451549  38.8742599   6.7246552
   7.7020068  38.9911537   5.8916764   7.6243382  39.5378189   7.3009710
  25.2015839  48.4449654  71.4223709  25.2033978  48.8178444  70.5407791
  26.0487194  48.6962090  71.7904282  22.2907238  43.6465378  46.0497627
  22.9125652  44.3236732  45.7832413  21.8450069  43.3984833  45.2398033
  20.5830555  40.0414619  83.1842499  20.6382675  39.2784767  83.7596054
  20.3415184  39.6810532  82.3310242  67.4252930  60.6852341  57.2107544
  66.7398605  60.9646339  56.6038361  67.5119629  61.4134827  57.8258705
  64.1800537  22.8479805   1.0619638  63.9563370  21.9546127   1.3228807
  63.3766747  23.3479538   1.2063409  58.4963150  63.2455521  13.9572020
  58.2319183  62.4514503  13.4927406  57.6761742  63.7105408  14.1226797
  15.0799026  50.4737778  75.5933075  15.2389383  50.5936279  76.5295639
  14.5636787  49.6695366  75.5390778  58.1417084  25.2204380  49.7966499
  57.9860802  25.8160496  50.5296288  58.3161964  25.7967739  49.0525894
  46.8931580  23.9462070  73.7420349  46.7911186  24.8974361  73.7733765
  47.4158401  23.7357635  74.5158234  38.2232399  43.6790543  58.9618416
  39.0560532  43.3727112  59.3207436  38.4388313  44.5040779  58.5269966
  32.5901947  41.8101578  29.9503021  31.9679203  41.0828590  29.9441128
  32.0549469  42.5817604  30.1356888  12.6016264  22.5380802  20.0965691
  13.2430973  21.9837112  19.6522484  13.1235027  23.2305012  20.5020695
  52.5728035  21.4406891   3.8503730  51.6423149  21.5372753   3.6476541
  52.7218170  22.0391121   4.5824370  34.7562523  60.3049622  84.9482117
  35.1418915  60.9439507  84.3488693  33.9868355  60.7470894  85.3070297
  63.9015350   6.6922178  64.4046326  64.7003937   6.4410801  63.9409676
  64.2103119   7.1915908  65.1606140  31.4081802  24.3088303  70.8351822
  30.7632065  24.3539677  70.1293488  31.4049225  25.1856861  71.2190399
  37.9668350  70.7264862  86.5921555  37.5571899  69.9621124  86.1869888
  38.8307114  70.4183121  86.8659744  17.5634480  59.2024727  46.0572624
  18.0579281  58.6616821  45.4414139  16.8125114  58.6615257  46.3016014
  51.9374313  28.2500896  17.6464920  51.5916519  27.4190559  17.9721527
  51.6270065  28.9015560  18.2753487   1.2040998  15.2005692  83.7264175
   0.5282955  15.8784389  83.7227249   0.8960125  14.5587025  84.3662033
  70.1447525   5.1067080  15.3483810  70.0732040   5.2402458  14.4032459
  69.2394562   5.0217218  15.6474733   9.0854092  54.1972160  77.0259399
   8.4148979  54.0579872  76.3571625   9.8543673  54.4899940  76.5368423
  44.5358276   2.2221315  67.2739258  44.7506218   3.1133864  66.9986725
  45.3846169   1.8103687  67.4359131  60.7909355  50.7435760  77.6894531
  61.4474373  50.0948067  77.9430847  61.2336617  51.2916374  77.0414886
  34.9700356  67.6745987  59.8505287  34.3131409  66.9809723  59.7904396
  35.6723442  67.2942963  60.3781319  77.6435471  70.4728775  72.6012497
  77.6295242  69.6696014  73.1216278  77.1856995  70.2425613  71.7928162
  80.1568985  23.5323048  45.3632622  79.4255295  22.9474926  45.5615692
  80.5455475  23.7274284  46.2159653  34.6874733  58.7818832  68.1408234
  34.4901581  59.4542389  68.7929230  33.8511620  58.3411369  67.9906235
  34.3675003  55.1232529  39.4475975  34.3390808  55.7865028  40.1371841
  35.0061951  55.4589233  38.8186111  62.5533638  12.9182491  66.8263931
  62.4535713  12.7408104  65.8910980  61.6730995  13.1516771  67.1211472
  37.7233009  26.1367073  73.9154129  38.6377831  25.8674927  74.0019150
  37.2609367  25.6329479  74.5852509  43.2123260  58.0355911  87.4506302
  43.0433846  57.9491653  86.5124359  42.6593170  57.3677521  87.8560944
  73.8095932  40.3618889  25.8703918  74.3585587  40.8862801  25.2874012
  73.1603088  40.9791641  26.2074776  60.6488686  39.9870110  14.5553808
  60.5805435  39.8954773  13.6050205  61.0661125  40.8387451  14.6845846
  81.4814148  60.4490623  40.9679451  81.6635208  60.9833565  40.1949005
  82.1021576  60.7610779  41.6263924  32.5685425  56.2037582  52.9199219
  32.8741112  57.0062141  53.3429184  33.0388298  55.5018425  53.3697891
  46.5058060  18.5343246  83.3068542  46.9353790  17.6789742  83.2979355
  46.7521515  18.9347706  82.4730759  24.2456551  27.4330597  13.9407873
  24.0499096  28.0454540  13.2316399  23.7174149  27.7421150  14.6767769
  10.4042807  32.9363022  79.6665726  10.3717756  32.0449371  80.0139084
  11.3048315  33.0410156  79.3595276  10.1214857  47.4881096  12.5317993
  10.2399426  48.4108047  12.3063393  10.8220663  47.3024826  13.1570683
  62.2453156  25.2091827  27.9512405  62.8230515  25.2179947  28.7143764
  61.4690781  25.6932945  28.2328835  66.2418289  61.9396095  45.3517952
  66.9345474  61.5474930  45.8834152  65.5454788  62.1414375  45.9767761
   7.2119555   9.5621004   2.1962821   6.8213110   9.4272966   3.0596805
   6.6481209  10.2122126   1.7771450  37.0091553  45.9102554  12.9012823
  37.4484749  45.0943604  12.6613941  36.4359207  46.1008949  12.1587915
  33.1489029  62.8780823  50.1456108  32.9956131  63.3360863  50.9720306
  33.3454018  61.9775314  50.4037323  66.7806931  70.8981476  63.8479042
  67.5578308  71.3794785  63.5639915  66.2179489  71.5637589  64.2435150
   2.9018066   4.5615897  81.4629364   3.2559438   5.3998847  81.7597198
   2.5116856   4.7547202  80.6104431  81.1281662  52.7205658  67.6788864
  80.8428268  52.0957069  68.3454895  81.2303162  52.1946182  66.8856735
  38.3758965  60.4245682  81.0707703  39.0862045  60.1579094  81.6543732
  38.8074455  60.6071587  80.2361145  58.2947426  11.2534142  17.1741199
  59.0767174  11.1240311  16.6374550  58.2858124  10.5036230  17.7690697
  45.2513466   5.1328826  66.6314697  45.2776413   4.5674105  65.8595963
  45.6311073   5.9601340  66.3353806  70.4712524  44.3973236  34.0289917
  70.2521744  44.8324814  33.2050514  71.4278336  44.3635521  34.0350647
  32.3580933  66.1827621  43.0524673  31.8782616  65.9890442  43.8577385
  33.0502090  65.5222855  43.0212860  26.3525524  43.1153336  -0.1089239
  26.2971706  42.8624840   0.8126134  27.2446308  42.8839722  -0.3675736
   8.9935560  49.7518578  87.7235489   8.3677578  49.5154991  87.0389023
   9.8513556  49.6232948  87.3187256  18.2039452  39.8422203  71.8928375
  19.1403084  39.6969872  72.0283508  18.1383324  40.7636070  71.6418915
  65.4120712  11.6974697  22.6559086  64.5394135  12.0892611  22.6212902
  65.4937592  11.3735199  23.5529118  44.0764618  45.7405853  42.2391472
  43.4748306  45.0449333  42.5043640  44.7907257  45.2832489  41.7954102
  66.8868561  67.6893082   1.2000564  66.3245697  68.4524078   1.0668479
  66.8376617  67.2084045   0.3738964  33.4585419  65.0479126  39.0116997
  32.9682503  64.8174667  38.2225609  33.5598526  64.2198792  39.4810867
  56.2906799  14.1646366  28.7430992  56.0902176  13.2478361  28.5546207
  56.6492920  14.5048065  27.9233971  63.7074738  38.1311722  71.9205933
  64.1014633  38.6351166  71.2085190  64.2623978  38.3137970  72.6788406
  34.0144691  46.7164764  74.1516876  33.3386307  47.0543785  74.7393036
  33.5470963  46.1197281  73.5671463  25.9980984  50.2335510  32.0252838
  26.3936329  49.9167404  31.2132378  25.0582161  50.2470703  31.8445339
  86.6678925  68.6290665  49.1466637  86.6577606  68.9477921  50.0491867
  85.9756851  67.9685745  49.1181221  11.2762585  41.9958916  44.8366928
  11.9778032  41.7191429  45.4261665  10.4759102  41.6667175  45.2457390
  84.7235184  36.4392509  60.9119263  83.8070145  36.6624680  60.7493477
  85.0266876  37.1058922  61.5282974  29.3893623  46.9248581  23.5256100
  28.5027523  46.9184151  23.1648979  29.9392700  47.2302246  22.8040924
  76.2726288  21.2437153  40.5196037  75.7164993  21.6554642  39.8582306
  76.5024796  21.9559402  41.1163788  63.2376633   8.9535217   3.7354674
  63.8560143   8.9732018   4.4658689  62.9332161   8.0465822   3.7037623
  68.4015350  21.5115376  18.5171223  69.0578308  22.2052460  18.5825081
  68.2867584  21.3783245  17.5762119  68.5144653  53.8647575  49.8033218
  68.2859879  54.5369301  50.4453583  67.9885330  53.1053391  50.0541420
  11.7233381  68.4699783  72.7085114  11.1026735  68.8743668  72.1023102
  12.0528975  67.7040863  72.2383728  78.9718323  43.0028687  67.3859177
  79.6262970  43.6795845  67.5590286  79.4481583  42.3266525  66.9041748
  64.3472214  11.9780006  27.1651745  64.4261398  12.3753576  28.0324173
  63.4142303  11.7842636  27.0744820  58.5159454  19.6292191  67.4336853
  57.9394989  18.8696079  67.3504333  58.9148216  19.7231426  66.5686417
  12.8288765   0.5846817   1.7331512  13.2175503   1.3000247   1.2297140
  13.0003214   0.8138674   2.6465583  56.3095932  56.4765129  79.0324020
  56.0280304  55.5864906  79.2440948  56.8527832  56.3763161  78.2506485
  17.0789490   5.9618974  74.9554977  16.6507015   6.7041421  75.3820114
  17.9945374   6.2286215  74.8731155  49.3315163  63.9762001  18.3359680
  50.1813278  63.6512146  18.6333561  48.8610573  63.1922035  18.0526829
  79.9189987  38.1494102  84.6533508  79.4646454  37.8992882  85.4578629
  80.5071259  38.8559113  84.9201813  14.9845352  30.2336254   2.5070734
  14.8161955  30.9345970   1.8773637  15.0824366  30.6838131   3.3461077
  57.8302116  62.6621132  68.8474579  56.9774399  62.2400398  68.7432480
  58.4392128  61.9384727  68.9947586  78.8887024   8.0691519  60.3444328
  79.1685410   8.7125845  59.6933479  77.9349442   8.0482922  60.2660103
  12.3745737  42.3151436  77.6791992  12.3120308  42.3000107  76.7241592
  11.6296444  42.8468208  77.9596100  70.5414886  26.2449360   6.1881275
  69.8216934  26.0248566   6.7794747  70.6947403  25.4429817   5.6885138
  75.7952271  47.0950165   5.1581330  75.4375000  46.5363655   5.8481832
  76.6753998  46.7517166   5.0042543  42.8442535  70.6060638  15.4994526
  42.5283508  69.7096939  15.3855743  42.1596107  71.1521912  15.1131458
  54.1772270  37.2487526  27.3912048  54.1337280  37.8566399  28.1293182
  54.2220840  37.8125191  26.6189442   6.3201027  67.8787766  50.6929626
   6.0955443  67.7205200  49.7760353   5.4872751  67.8071060  51.1593246
  11.5997009  20.9857883  72.6330338  11.4029493  20.1804428  72.1545639
  10.7865591  21.1964283  73.0920181  45.4286652   7.5684133  56.1106682
  44.5465775   7.9400582  56.1164627  45.9375229   8.1504860  56.6750145
  74.2763901  29.5301685  74.1280289  74.7954178  29.7554493  73.3559647
  73.4507065  29.9989510  74.0066910  23.2477913  41.7321815  13.7974777
  23.3932590  41.2139015  13.0059872  22.4302673  42.2010078  13.6298876
   8.9650736  46.1086807  68.0293198   8.9754915  46.5133514  68.8967133
   8.0444336  45.8970871  67.8747787   3.4025323  27.9826355  75.0986176
   2.6284113  28.0050259  75.6611710   3.7975237  28.8486061  75.2001572
  54.9949875  45.0903816  60.3927422  55.8394814  45.1506195  60.8393135
  54.7092094  45.9989204  60.2972374  19.5244675  70.3725815   2.2880249
  20.2492943  69.9207764   1.8559046  19.3157253  71.1026001   1.7051615
   3.1698303  35.3720703  59.9121323   2.3220429  35.8164673  59.9105301
   3.5358467  35.5575562  60.7769203  14.8211737   3.4107971  81.9026871
  15.1721134   3.5526640  81.0235138  14.5590906   2.4902070  81.9102859
   3.5405240  27.5420303  38.0985680   3.3460782  28.4453430  38.3484650
   4.3146043  27.3126068  38.6127625  61.2732925  48.0491409  71.9168320
  60.9961777  47.4826012  71.1967773  60.6379433  47.8803139  72.6125793
  69.7939377   2.4651568  31.1814632  69.7253876   3.1559541  30.5224247
  70.4426422   2.7922435  31.8047047  52.4934158  23.8682537  78.5337524
  52.9633064  23.7956734  79.3645172  51.8623085  24.5736599  78.6763763
  10.1975594  39.5632019  39.5212746   9.2586603  39.5638771  39.7075539
  10.2580452  39.7950401  38.5945473  20.0259953  43.7020035  85.3153229
  19.9305477  44.6534081  85.3595123  20.9305248  43.5648537  85.0338211
  52.5562935  28.9662800   7.6999369  52.2057953  29.7297058   7.2410645
  51.9226761  28.2703056   7.5256362  29.0970078  36.7745819  85.3474274
  30.0296707  36.7805290  85.1321640  28.6633587  36.5395241  84.5271072
  46.3810043   2.9876668  52.8757172  45.6084595   2.4511113  53.0532417
  46.0823250   3.8878179  53.0051346   5.9634008  69.8988495  60.2466698
   6.5480351  70.2282410  60.9292641   5.8010674  68.9873581  60.4896851
  75.4761887  13.9433336  44.8680649  75.8045120  13.3780165  44.1688843
  75.6888657  14.8305454  44.5784836  84.9545670  12.0608149  33.4289856
  85.4340057  11.5637026  34.0917473  84.1535950  12.3404655  33.8722458
  67.8853760   9.2930632   7.3894267  67.0220413   9.2010994   7.7924414
  68.1598816   8.3950758   7.2036848  17.4872417   7.4725037  65.7899399
  18.0920162   7.6314387  65.0652237  17.2217293   8.3464003  66.0763626
  68.8321991  39.5788727  54.9592972  68.4546127  38.8536568  55.4570160
  69.7581329  39.5794373  55.2019424  80.4357300  42.2259407  83.0079651
  79.8402328  42.9293823  83.2663879  79.8778992  41.5948715  82.5531998
  45.7696152  59.8708649  68.3205261  45.5050888  59.3429756  67.5671387
  46.5595856  60.3258362  68.0286713  75.4199448  29.0767269  69.4090424
  75.7098694  29.9062710  69.0295258  75.6978455  28.4139690  68.7767792
  68.1658554  46.5005989  80.9358063  69.1111603  46.5319023  81.0829620
  68.0050583  45.6194458  80.5982437  61.4922523  21.2345905  31.0825996
  61.7000313  22.1663361  31.1526814  61.9541702  20.8302898  31.8170414
  45.9811592  15.0917072  71.2642670  45.5254211  14.5016479  70.6639633
  45.8020935  14.7338877  72.1338272  81.2917404  24.4625168  35.1009178
  80.6313629  24.5959969  34.4209785  81.7079697  23.6318417  34.8707733
  72.7211075  66.8840866  64.5412369  72.9751968  66.4863281  63.7084923
  71.7828217  67.0504684  64.4507751  52.0886459  39.5040817   6.2984805
  51.4825706  39.1577072   6.9534054  52.6531754  38.7629280   6.0788670
  78.8585739   8.9931011  12.7464657  78.2691574   9.2867460  12.0517769
  78.7760925   8.0394669  12.7433691  59.0975723  42.7805138   2.3444102
  58.7788773  41.9700813   2.7417343  60.0511894  42.7067108   2.3817542
  50.9236984  23.3735352  34.9805603  51.5515404  22.6973858  34.7258568
  50.1965485  23.2685318  34.3670006  56.8151398   0.6232505  68.6518402
  57.4531326  -0.0776754  68.5180435  56.1619682   0.2436092  69.2396088
  -0.0906126   2.9798822  71.4176788   0.8640344   2.9453950  71.3569183
  -0.3892174   2.2073984  70.9377441  66.1169128  66.8451385  73.1610184
  65.6786194  66.2545700  72.5483551  65.5286407  66.8878403  73.9149017
  73.0766373  44.2350731  23.2804832  72.7156677  44.4069099  24.1501961
  73.5629272  45.0299721  23.0616512  23.0109062  62.7791443  76.8790054
  22.7919445  62.0977249  77.5145874  23.8773384  63.0861702  77.1459579
  66.3377838   7.0415630   3.8785250  66.7411118   7.6291461   3.2395401
  65.8363190   6.4207859   3.3499441  41.2567101  48.7932663  78.7904205
  42.1495285  48.6732483  79.1139984  41.3670387  49.1668777  77.9160767
  22.8077259  28.3581867  16.1616688  23.2243023  28.2163258  17.0117111
  21.9362946  27.9732628  16.2547836  58.9853592  47.5452881  53.4706345
  58.5143318  47.3534737  54.2815437  58.3339157  47.9650536  52.9088058
  75.2827225   7.9850216  57.7070236  74.9104843   8.7427311  57.2558670
  74.8071671   7.2355237  57.3487930  54.5056992   2.1566176  23.8160725
  54.7839203   2.1908495  22.9008389  55.1760063   2.6500328  24.2887878
  53.6732903  47.4523354   6.3513479  54.2955780  47.7232590   7.0263195
  53.5018654  48.2493935   5.8498063  20.1401310   5.6931391  74.4290314
  20.4378357   6.5240679  74.7993851  20.7363434   5.5292997  73.6983337
  20.3680801  39.7754898   2.1052558  20.5611725  39.9050179   1.1767251
  20.3865185  38.8258018   2.2235184   2.1617923  13.7321100  16.9454632
   1.9795508  14.5384445  17.4280014   1.9429048  13.0309925  17.5592670
  79.8503265  37.1051826  43.8263702  80.7427063  36.8788948  43.5643120
  79.8583221  38.0591393  43.9046936  12.9395876  19.0887508  19.5732021
  12.0889111  19.4003868  19.8821774  13.4088964  19.8840294  19.3211842
  24.1462650  68.1067352  35.2231102  23.3364105  68.4725342  34.8673668
  24.2870598  68.5858536  36.0397186  46.9846001  24.9221249  16.7433662
  47.7004623  24.2881336  16.7861748  47.4198418  25.7746067  16.7348633
  10.2992201   3.6840768  86.9602432   9.4477119   3.9291396  87.3223343
  10.9185705   4.2817612  87.3790588  73.5674667  58.2440567  50.7515678
  74.3458023  57.7071381  50.6027641  72.9008713  57.8631554  50.1799049
  75.6374512  49.6707497  27.9340267  74.8136292  50.0820274  28.1955605
  75.3960114  49.0870132  27.2148666  46.0002632  40.5864906  85.5920868
  45.3780632  41.1288567  85.1073837  45.7157173  40.6520157  86.5036621
   7.7638121  53.6916809  68.1503754   8.4411011  54.3411255  68.3394089
   8.1748800  52.8511772  68.3523865  76.0529861  10.8069372  29.5941257
  76.6403961  10.3461466  28.9950829  76.6298981  11.1581268  30.2724094
  37.3900604  52.9650230  37.1681328  37.5918999  52.1009216  37.5270500
  38.1586037  53.1925049  36.6448517  34.5978317  50.9041481  26.7924728
  34.5899010  50.6518593  25.8691540  34.8692055  50.1113129  27.2550774
  53.8952980  24.5046940  33.5655594  54.4531555  23.7287731  33.6200638
  54.2872391  25.0331173  32.8703003  64.2825775  65.0969315  40.5558662
  64.7309113  64.3136978  40.2368507  64.0884018  65.6004868  39.7653236
  40.0598030  53.1864471  46.1646233  39.4259949  52.5196037  45.9003487
  39.7222443  53.5219536  46.9951172  60.3995361  68.5672836  54.2877769
  60.8521118  67.7241440  54.2648544  60.7275391  68.9937363  55.0794754
  23.4085941  47.9509010  37.5139847  22.8234997  47.6013794  38.1860962
  23.5408764  47.2213249  36.9086304  54.9876480  23.8969860  63.7476845
  54.1611633  23.6417885  64.1576004  55.1670723  23.2002182  63.1163750
  83.8226547  10.5176029   4.4053187  83.4407425   9.7031155   4.7324009
  83.2486801  10.7790766   3.6853073  61.3722267  33.0739937  78.8104858
  61.4348145  32.9705276  79.7600174  61.9385490  33.8199921  78.6129990
  74.8065720  36.4387817  61.3660126  74.8659821  36.7156181  62.2803764
  73.9887161  36.8242226  61.0517235  58.3930206  24.3954773  55.7746811
  58.7319717  25.2764912  55.6160774  57.7803040  24.2415276  55.0555763
   6.0512981  12.0215540  26.2705803   5.0953650  12.0690250  26.2836208
   6.2469974  11.2956657  25.6781101  54.4728203  16.1030998   2.2974463
  54.8926849  15.5107956   1.6736516  55.1276398  16.2316227   2.9836853
  73.4614944  19.7209225   2.8780088  72.8848572  19.0381355   2.5351861
  72.9849930  20.5366135   2.7236664  55.7974548  15.5986586  23.7476406
  55.5251045  16.4282455  23.3554134  56.3808823  15.2066402  23.0978985
  55.6472206  55.8489456  41.0332222  56.1092644  56.2228432  40.2829208
  56.2691765  55.2278976  41.4123039  49.1306038   3.4395986  25.0683842
  48.4149055   2.9148147  25.4270077  49.9090614   3.1322472  25.5328979
   0.5027058   6.6958528  58.3210907  -0.0151127   6.8937435  59.1014328
   1.2213042   7.3277769  58.3438873  56.5920639  64.7745132  83.5597916
  57.4341583  65.1033325  83.8744125  56.4916496  63.9244804  83.9882736
   4.0360947  54.2726746  53.6587868   3.7281513  53.3949814  53.4328270
   3.9040506  54.3366966  54.6046715  12.0002775  65.7272797   1.0917928
  11.4191055  66.3305740   0.6286424  11.4942017  64.9184036   1.1682005
  42.5487289  59.1563492  56.4346428  41.9202919  58.9887390  55.7323570
  43.1899261  59.7509804  56.0454025  77.8947296  18.3145981  70.6842957
  78.6527023  18.8285427  70.9628143  77.1496964  18.7341309  71.1145782
  81.2108002  11.7637091  55.3196831  81.7636108  11.4683933  54.5962067
  80.4650650  11.1636620  55.3116875  40.8215294  68.2836380  69.9395828
  41.5789604  68.2715149  70.5247192  40.6080933  67.3603058  69.8049316
  13.3420839  14.3884916  75.0194702  13.5159273  13.7423286  74.3350143
  13.5628729  13.9387493  75.8350830   1.1075737  59.4096413  74.5261993
   0.7501552  58.7622414  75.1339417   1.2647345  60.1840820  75.0663605
  45.8783531  64.7106628  47.3727570  46.4964752  65.4307251  47.2475967
  45.7506409  64.3494339  46.4955788  55.7404823  21.4784660  59.3659058
  56.3716583  20.8031693  59.1172714  56.0886765  22.2840805  58.9838371
  58.9994583  36.9753380   8.9056368  58.5529747  37.0913963   9.7443352
  59.0377007  36.0266800   8.7839136  14.9685507  71.1826019  60.4958763
  14.8803473  70.6768112  61.3037300  14.4743853  71.9856033  60.6608810
  50.9047585  69.2478027  17.9438972  50.9652252  68.3319016  18.2153740
  50.1200218  69.5763474  18.3826256  71.4225159  50.5091362  83.7761383
  71.1897354  51.4193344  83.9594040  71.0280151  50.0120811  84.4927597
  61.7964363  30.5916576  88.5764923  61.0831566  29.9546890  88.6181641
  62.1531258  30.4943924  87.6935730  76.0958328  31.8296413  57.7414780
  76.3388367  31.0353661  58.2171936  75.2658615  32.0997238  58.1344643
  69.7998199   9.2975912  39.8338470  70.1326752   9.2934160  40.7313004
  70.5853729   9.2884922  39.2869911  75.3308411   9.1753311  80.5147324
  74.8796310   9.7664366  79.9120407  74.6482544   8.5777922  80.8201065
  26.1324844  61.7903404  47.9153175  25.3272133  61.3314629  47.6761513
  26.6969166  61.1090355  48.2806511  62.1602402  16.9377995  87.4549942
  61.6713562  16.2428608  87.0142136  62.9386368  17.0642223  86.9124527
  64.6740265  38.3753586  44.4807281  64.7208786  38.8733902  45.2968178
  65.5427551  37.9841232  44.3886833  31.2522049  33.2803345   5.7894521
  31.2268906  34.2225952   5.9559827  31.8328018  33.1860847   5.0342979
  76.5281754  17.7792892   9.8443604  77.1752625  17.4100666   9.2433729
  77.0480652  18.2439060  10.5001621  76.9622421  55.0776825  43.4107361
  76.3906937  55.0990257  44.1782722  76.3651123  55.1437531  42.6655502
  56.2908974   6.7461662  58.2139435  56.9284363   7.3278461  57.7999077
  55.8719749   6.2911768  57.4833832  79.0712509  13.4225988  56.0775909
  79.9148636  12.9720783  56.0378265  79.1026459  14.0537262  55.3586159
   1.3861690  60.8367615  87.2429733   1.1985056  60.1453819  86.6081467
   0.5768566  61.3458099  87.2889557  71.5840759  36.7418709   1.7651573
  72.4415359  36.6732903   2.1850326  71.1243057  35.9444695   2.0278227
  72.4376678  68.2088623  18.9123535  72.2143860  67.2926941  18.7480087
  72.3254013  68.3170471  19.8567715  20.1301994  55.6465530  24.2749596
  19.2468376  55.2954063  24.1627064  20.0865746  56.5278168  23.9038792
  69.8774490  30.0547504  79.8972397  69.7226105  29.1324692  79.6931534
  69.1714020  30.2885323  80.4998016  80.4765167  20.9433479  39.7520180
  81.3849182  21.2435913  39.7220497  80.4629898  20.1650867  39.1949196
  41.5230713  30.0666046  73.7907028  41.5877724  30.8793221  74.2922363
  41.3682899  30.3524323  72.8903809   4.6698365  17.9071884  69.2573166
   5.3267789  17.7536545  69.9363480   5.1662688  18.2612476  68.5194626
   5.9270067  44.3905334  35.3295135   5.3549328  45.1343651  35.1406212
   5.7182040  43.7492371  34.6502724  56.8376350   5.8811407   0.7987921
  57.6091080   5.5844793   1.2815477  57.1143532   5.8824210  -0.1175357
  42.8093033  62.4818077  57.4672775  42.4094276  62.0927086  58.2450523
  43.7092361  62.1557198  57.4720612  37.0507317  41.3049088  28.4829483
  36.7588501  40.4128342  28.6706581  36.3406448  41.6854820  27.9660625
  69.1623611  16.5660381  48.8875084  69.6060715  16.1189728  48.1667557
  68.4350281  17.0283909  48.4710464  30.3654022  45.3017845  47.0292511
  30.6828461  45.6758614  46.2073441  29.8164234  44.5650291  46.7608337
  37.0136642  65.3512573  74.6784744  36.5669708  65.7701874  73.9428177
  36.3270111  64.8558807  75.1249466  70.4984512  52.7324829  22.4229031
  70.2557602  51.8539314  22.1305351  70.9864960  53.1032906  21.6876831
  34.6349373  69.5209503  79.4413071  34.5429230  70.3975449  79.0680084
  35.1242867  69.0297546  78.7813873   2.1525161  24.5092468  11.0140409
   1.4073794  24.0997791  11.4537458   1.8151730  24.7593536  10.1538801
  36.9289436  30.2659931  83.0524445  36.2528419  30.4586048  82.4028091
  37.6844177  29.9854698  82.5359192  86.8240585  36.6095200  88.3322601
  87.0195694  37.3113594  88.9530945  86.0140228  36.2187080  88.6598816
  59.8459663  15.5339661  79.6496735  60.0603790  14.8692446  80.3041992
  60.3663902  16.2962990  79.9031296  60.9065285  14.3732004  71.8723526
  60.8769264  13.5029650  71.4748001  60.6140480  14.2350426  72.7732391
  10.8756533  30.6195602  66.9267426  10.1795692  29.9625225  66.9262466
  10.4154215  31.4560223  66.9956512  51.5747910  40.5987320   3.6865437
  51.8141632  40.1909790   4.5188127  51.1223412  41.4045219   3.9359889
  70.9861984  45.8939743  18.7877312  70.1661530  46.1975021  19.1771126
  71.3329544  45.2644501  19.4199467  80.2162170  53.0132179  13.2727394
  80.8358383  52.2947578  13.1458073  80.7654114  53.7945061  13.3375807
  57.1772728  15.5620737  79.8214188  56.9747391  16.1898708  80.5150146
  58.1144409  15.6747675  79.6625290  31.6738853  44.3006821  83.1827087
  31.7163773  45.2546883  83.1171646  32.4439201  43.9932098  82.7044373
  49.3135605  29.7627945  57.9276047  49.2390251  29.3723812  58.7983818
  48.9545135  29.1007938  57.3367805  35.8941650  42.0193367  69.1490326
  35.3080215  42.0833130  68.3949890  35.5450935  42.6508255  69.7779999
  25.0167923  62.8768082   0.9430652  25.6561661  63.5891037   0.9511058
  24.7972240  62.7624741   0.0184304   2.7755082  49.7432327  84.2355347
   3.2021194  50.4543915  84.7135391   2.7994084  50.0218315  83.3200912
  66.1171188  44.8187180  31.7408085  66.2593918  44.2696991  30.9697266
  66.3365097  45.7034531  31.4486713  20.2677059  46.3958054  81.2628403
  20.5231857  45.6803818  80.6804886  19.8079300  47.0142441  80.6950607
  20.8100052  13.0547485  62.5840797  21.3120365  12.2755404  62.8228912
  20.8274632  13.0669270  61.6271172  39.8914719  55.9411736  42.8480225
  40.5606651  55.2965164  43.0778694  39.0625267  55.5114670  43.0588150
  16.8020344  37.6579132  59.9531364  17.5096931  37.4090500  60.5477066
  16.3189812  36.8454056  59.8023949   0.8676921  35.8129234  45.6282654
   1.2535863  34.9369774  45.6341820   0.0295633  35.7023849  45.1793175
  21.6744328  68.4826736  82.1661911  21.7152481  69.4245377  82.0004654
  21.4474792  68.0999756  81.3186798  59.8487244  15.3772421   0.3915335
  60.0984802  15.4009790  -0.5322032  59.3667068  14.5559435   0.4882909
  70.5290833  17.6750889  24.9727783  71.2965622  17.2325497  24.6103249
  69.8276138  17.4874134  24.3491211  50.3506508   8.0528440  84.5000229
  49.7862892   7.4903226  83.9696503  51.1348572   8.1775894  83.9655228
  46.7426872  34.6384506  53.8708954  46.5844154  34.1525383  54.6802597
  46.1393051  34.2508278  53.2369308  51.0557480  31.2807655  36.3467865
  51.0972557  32.1529350  36.7389984  51.6683388  31.3190517  35.6122856
  24.8673401  69.6883087  68.7783279  25.5378265  69.0350800  68.5784149
  25.0278492  70.3953018  68.1533279   2.7086000   7.8633490  82.0597458
   3.2540200   8.0295963  81.2909088   1.8383007   7.6869593  81.7023926
  72.8109894   7.5369453  18.0442753  73.6746368   7.1846085  17.8293247
  72.4516068   7.8197336  17.2033768  39.6325302   6.8764815  39.2173576
  38.9527664   6.2254167  39.0433846  40.4504280   6.3795500  39.1990738
  37.2405701   4.2353148  65.2179260  37.2250710   4.4664783  66.1466675
  38.1626740   4.3019190  64.9698868  26.8506393  34.9272881   3.0427830
  26.1888409  34.3271255   2.6991842  27.5900822  34.3636475   3.2703016
  67.8012619  17.9708347  51.3152847  67.4010086  18.1527271  50.4650230
  67.4807434  17.0998287  51.5494728  54.4319229  28.7232018  62.7089386
  55.2545624  29.1816387  62.8802109  53.9867859  29.2652378  62.0575714
  35.1585464  27.5652046  17.5343227  35.5274544  28.0657692  16.8066063
  35.6850967  26.7665081  17.5669022   2.0500152  15.9963436  50.3195114
   1.6147081  16.8486805  50.3033409   2.5252624  15.9858494  51.1503334
  69.1556473   1.8832167  55.9589233  69.5292892   1.7897626  55.0826302
  68.2624588   2.1919420  55.8067818  80.2247543  54.1777573  17.0377235
  81.0412064  54.6068382  17.2937241  80.4775696  53.5843773  16.3304615
  73.4875793  68.2204437  23.0461178  73.2453384  68.7540665  23.8029518
  72.7480469  68.3080215  22.4447441  79.4931030   4.6521063  67.9170837
  79.1756287   3.9437623  68.4771652  78.9304962   5.3965621  68.1303711
  73.6807709  43.2806931  73.9676132  73.6931076  42.5891991  74.6293640
  72.9870605  43.0200577  73.3617477  46.6566429  37.6758614  25.0262775
  46.2643280  37.6544571  24.1534309  46.2369576  36.9546394  25.4952545
   1.2850050  61.6426048  48.3419342   1.4917624  60.7107887  48.2698059
   1.7991648  61.9447746  49.0906448  86.3213348   9.1342230  37.8019447
  87.0361557   8.5439425  38.0403252  86.5306931   9.9556751  38.2464867
  35.4242821  15.4783878  68.3046570  36.0288696  14.8666134  68.7247009
  34.5589943  15.2104063  68.6139908  45.6362419  65.0947189  58.9708481
  45.6753960  65.8359909  58.3665199  45.8864174  65.4630280  59.8181953
  43.9035835  49.9928360  79.3151093  44.4745407  49.2336273  79.1974487
  44.4448662  50.6295471  79.7818451  32.9818611  39.0070419  66.0418015
  33.1431999  39.4134140  66.8933029  33.7556343  38.4660797  65.8841095
  58.0007896  43.1594162  72.2126236  57.7661057  42.2517815  72.4059067
  58.0112648  43.2057076  71.2565994  22.2333870  53.8011246  57.4900894
  23.0217896  53.4889488  57.9341583  22.2560844  54.7515335  57.6016464
  13.8121452  40.6466408  73.2417679  13.9327402  41.5536842  72.9607773
  13.5161858  40.1893921  72.4546509  78.7804794  10.4879732  55.4144936
  78.0044174  10.8675032  55.8267021  78.5948868   9.5498705  55.3726425
  46.3042908  46.7773323  33.5268631  45.5128365  46.2650108  33.3614464
  46.8731651  46.1866226  34.0204964  76.9766769  29.6327744  48.2287560
  76.5485229  30.4739513  48.0695839  77.6232605  29.8181973  48.9097748
  40.4103279  42.1911621  12.7042990  40.7631302  41.6942482  11.9661665
  40.5625496  41.6305389  13.4650640  74.9794769  39.5644035  23.2143288
  74.4900818  39.4694672  22.3971939  74.8585281  40.4813881  23.4607944
  61.7484474  22.4422321  86.1410599  60.8200951  22.2666550  85.9875488
  62.0750198  21.6493587  86.5664215   4.1422048  69.2265778  32.6790314
   4.4186530  68.5057755  33.2449417   4.5452204  69.0344543  31.8323307
  53.7835007  50.1193237  42.0111732  54.1377563  49.5405426  42.6862640
  54.1279068  49.7683449  41.1899376  72.7514343   1.5602962  68.4842300
  73.1197586   2.0444827  69.2232361  73.1197891   0.6806713  68.5667267
   0.5780694  36.8752213   3.8034387   0.6529111  35.9848976   3.4599996
  -0.0120313  36.7940865   4.5527248  58.6644974  19.8798733   2.5464242
  59.4018631  19.2708054   2.5859208  58.5636826  20.0738049   1.6145124
  18.0572357  41.9164963  69.9433594  17.3606300  42.5148811  69.6733398
  18.5961246  42.4316254  70.5437469  44.6959610   3.7517703  18.1685619
  44.8471222   3.2033787  18.9383984  43.8764267   3.4240074  17.7981949
  81.9090576  61.6025581   8.0274010  81.0990982  61.6586189   7.5204039
  81.6909180  61.0329819   8.7651186  57.4102020   9.6454477  69.1044693
  56.6185799   9.5780373  69.6383362  58.1185913   9.3830242  69.6922989
  50.8106689  35.8805656   0.7985772  50.9945984  36.7806168   0.5296745
  50.2923508  35.9706764   1.5982385   3.8714061  34.5950699  30.5816803
   4.2736268  34.2404709  31.3745918   3.0175192  34.1652069  30.5334530
   2.2133639   1.3874652   9.6458378   3.1414864   1.1556530   9.6129169
   1.9747735   1.2902776  10.5677166  26.7668667  23.7381229   7.6604853
  26.1731110  24.3681927   8.0687723  27.6221352  23.9314823   8.0443592
   6.1866722   9.0388889  16.6200237   6.5381794   9.7763910  16.1212616
   5.2972426   8.9253578  16.2849770  17.3750401  46.3732491  23.2330761
  17.7601547  45.5000000  23.3062210  16.6593857  46.2676697  22.6062393
  82.3303833  35.6449013  71.6614227  81.4850616  35.5561562  72.1016312
  82.2667999  35.0659637  70.9018021  65.8293304  62.7952461  56.2796173
  65.1149597  62.9364090  55.6583443  65.9132080  63.6293182  56.7416992
  54.6441307  24.4036617  18.4545021  55.5168915  24.3456497  18.8432846
  54.7348289  25.0542717  17.7582893  56.7315521  69.4189987  40.1303940
  56.9905663  69.6795654  39.2465134  55.7855186  69.5627060  40.1549110
  19.0959988  66.4152145  23.8184261  18.8017712  67.2517014  23.4579372
  19.8211746  66.6463623  24.3988781  58.9794235  47.0159569  43.9194527
  58.6645775  46.1270218  44.0834656  59.6297989  47.1699333  44.6046791
   5.4938717  48.2513351  71.3798981   5.0479264  48.6413879  72.1317139
   6.2324066  47.7755127  71.7598877  14.0921755  67.9932709  60.6627769
  13.4511204  68.2838593  60.0140572  14.1498260  68.7189713  61.2842827
  38.0325394  39.9139786  64.1636963  37.3124619  39.7342300  63.5592003
  37.8253975  40.7717133  64.5346527  37.4931870  20.9057751   0.3134302
  38.4468536  20.9529438   0.2461257  37.2462730  21.7039623   0.7805085
  32.2268600  42.2880402  46.9582710  32.3566551  42.1519470  46.0197258
  32.1423950  43.2367592  47.0532913   6.6431208  57.1637611  11.0581045
   6.4966826  57.0860214  12.0008373   7.3675508  57.7843361  10.9786177
  57.4903717  67.2896271  30.3763561  56.6008568  67.0715637  30.0980740
  57.9993973  67.2989883  29.5657787  28.1707668  24.3951530  72.5971832
  27.8324242  25.0300674  71.9657974  28.2021332  23.5697613  72.1134720
  24.9882698  67.1038208  76.3596344  24.2892323  66.6880341  75.8549576
  24.6965618  67.0416412  77.2691803  45.2974319  28.3942814  23.2361717
  44.6562805  28.5962143  22.5547180  44.8698006  28.6544933  24.0520477
  61.4226189  22.5565758  40.4788933  61.6762657  21.8825340  39.8483696
  60.7177277  22.1556969  40.9874763  10.1562519  15.4339151  87.4224319
  10.9761171  15.1419840  87.0239029  10.3123569  16.3512402  87.6468811
  72.0139923  58.8783760  37.5747681  72.1943207  59.5931740  36.9642143
  71.0619736  58.7809296  37.5550041  55.9321556  57.6751785   1.7707586
  56.5018501  58.3628922   2.1153300  56.4550285  57.2489166   1.0916866
  78.8797302  48.2878838  56.1843147  79.0749207  49.1997528  55.9683838
  79.7069931  47.9376297  56.5147476  75.6637039  60.9435425  76.0621948
  75.9554672  61.8265076  76.2890854  74.8501358  61.0776558  75.5760269
  78.4188004  26.2637386  71.9195709  78.0745773  25.5086975  71.4424362
  78.1163025  26.1370163  72.8188324  63.5319481  46.4116745  54.0838509
  62.8009834  46.0244446  54.5654907  63.2160034  47.2771034  53.8241463
  40.0393257  13.9148664  60.7392006  40.8339806  14.0016546  61.2657242
  40.1940422  13.1407452  60.1978760  50.0997543   3.5597241  31.7855282
  50.8071404   4.0208769  31.3347797  50.3073654   3.6528928  32.7152863
  47.1366348  58.4761391  61.1432304  46.3150635  58.1156082  60.8096657
  47.2783890  59.2683983  60.6250992  33.5654030  57.6749306  40.5666771
  34.1043549  57.3531837  41.2893410  33.9472961  58.5235176  40.3424377
  27.5977497   3.6350732  13.6387691  28.0658665   3.3528590  12.8529863
  26.7445793   3.9268136  13.3174896  21.5448189  16.0719395  66.6017151
  22.3392658  16.1287766  67.1326141  21.7704983  15.4645090  65.8972015
  48.9357109  60.6192741  39.0173531  48.3254433  61.1292038  39.5500679
  49.6116600  61.2465973  38.7608566  18.7966785  13.2509451   5.0157909
  18.0095596  13.7377090   5.2602038  18.5393047  12.3312712   5.0805192
  67.9589844   6.3243585  67.3568420  67.3838959   5.6155925  67.0684891
  68.2822571   6.7156916  66.5453110   9.8060446  60.0674095  60.1154175
   9.6641045  59.5521202  60.9094963   9.0039530  60.5802650  60.0161324
  63.7845573  32.1919441  52.1925545  63.7970619  32.3618774  53.1344643
  63.7961197  33.0612984  51.7921524   0.1875630  41.9463577  35.5205956
   0.9732766  41.4144974  35.6471252   0.3581709  42.7473412  36.0161285
  21.9963894   8.8031998  65.4889908  21.1403027   8.8888826  65.9085236
  22.6190720   8.7900057  66.2158508  72.7772751  36.1895943  37.9702797
  72.7786713  37.1355896  38.1163101  72.0456772  36.0408020  37.3712311
  60.7202034  16.8316498  74.0059662  61.5453835  16.6062412  73.5764313
  60.3787155  15.9953499  74.3225403  53.0420532  38.2156143  38.0334435
  53.7318611  38.7724686  38.3944244  53.5075645  37.5785675  37.4914970
  30.5029469  45.9428291  35.2039795  30.7558670  45.2578125  34.5850945
  30.4173985  46.7307930  34.6672974  32.1969833  64.7415390  12.6802301
  31.9888611  63.9398079  12.2004929  31.3574314  65.1928101  12.7681837
  12.3038397  57.1743774  27.3728294  12.3172255  57.7460899  26.6052361
  12.4135647  57.7680740  28.1156063  27.7506866  63.5321198  84.3948822
  27.8820534  64.1741180  85.0926056  27.7180119  62.6894798  84.8477936
  82.1620178  71.4506226  58.5772552  81.9106369  70.5857468  58.2531815
  81.3860397  71.7682190  59.0390091  26.2242012  65.0094299  61.6540718
  26.1863422  65.2774582  62.5722008  25.3918514  65.3036804  61.2841454
  85.9945679   9.3837032  84.0120316  85.4513855  10.0957937  84.3498306
  86.6079865   9.8126783  83.4154282  40.4818344   4.9436297  80.3290482
  40.9703712   5.5356927  80.9009094  41.1423874   4.3404641  79.9883194
  53.5524216  52.4109802  72.4617691  53.9947891  52.2087708  73.2861786
  54.1649666  52.9788437  71.9942780  27.5904427  19.8979397   5.9061737
  28.4459667  20.2673969   5.6875091  27.5487347  19.0803814   5.4101000
  64.1434784  26.4874191  68.8173752  64.8344040  25.8592148  69.0276566
  64.6042633  27.3168468  68.6910095  80.3736420  39.0440445  27.6797829
  80.2388840  39.6353989  28.4203033  79.5077972  38.9588051  27.2806931
  65.9960785  45.9005623  20.7218742  65.0862198  45.6408653  20.8666134
  66.5044632  45.3149681  21.2829952  34.5723419  28.1902676   4.5609565
  35.3483238  27.6375332   4.4683805  34.7629318  28.7460518   5.3166094
  40.4378700  44.5753098  71.8910904  40.7413139  45.0538712  72.6625366
  40.9805870  44.9059792  71.1753082  41.5206795   8.4021044   9.3522520
  41.6314011   7.4738455   9.1465645  41.7873878   8.4778900  10.2684145
  43.7787056  46.2067413  50.1454430  44.3135376  46.6415138  50.8096428
  43.4891930  45.3960724  50.5640488  70.0580444  26.1864929  83.0299835
  69.3636246  25.9893761  83.6585922  70.0351791  25.4565964  82.4111404
  53.0331764  17.2686424  83.0015488  53.5734100  17.1840420  82.2159119
  52.5282173  18.0693836  82.8599091  20.0808735  70.3951263   4.8634367
  19.8223801  70.5370636   3.9527960  19.6898365  71.1271896   5.3402982
   6.3988051  15.3780317  75.4751053   5.7459855  15.5973444  76.1399078
   5.8844290  15.1147671  74.7119904  62.0718994  40.6969948  37.9339104
  62.7884293  40.2630234  38.3970375  61.7977753  41.4005280  38.5222359
  53.2652550   0.5231166  35.2980042  53.7990303   0.0514330  35.9374008
  53.2384300   1.4222758  35.6251488  29.2291775  69.1161804   3.0891242
  28.5862694  69.7249527   2.7253971  28.9197311  68.9441299   3.9784355
  32.8313713  53.5811882  37.0756226  33.6668968  53.5955315  36.6087990
  33.0613098  53.3314552  37.9706039  81.2068176  16.9847889  28.1338577
  81.5176544  17.8128643  28.4997845  81.1087265  16.4094791  28.8925591
  69.6638641  30.0068951   8.7575302  69.6352692  29.1124916   8.4177389
  70.5377960  30.3225861   8.5277271  73.4273453  57.2705650  19.9188194
  74.0114365  56.6483765  19.4852905  73.3223038  56.9232521  20.8045807
  12.3587017  43.3480606  56.0079765  12.9981689  43.7528992  56.5939941
  11.8000298  44.0723648  55.7260132  47.1128654  53.8436699  18.8756275
  46.4954147  53.8532791  19.6069927  46.6076775  53.4970055  18.1402092
  64.1490936  36.6717072  24.4348946  64.9395523  36.1318855  24.4330540
  63.6992989  36.4405441  23.6221943  84.2991867  44.4968452  75.8008194
  84.0298538  43.6310081  75.4942017  85.2444839  44.4214630  75.9310455
  14.7288914  67.2561798  45.4131165  15.0685949  68.1485291  45.3456459
  14.8970413  67.0038986  46.3210335  17.1432514  33.1437454  17.5452461
  16.9418373  33.5680771  18.3792782  17.2745571  32.2227745  17.7706394
  77.5543671  12.4389553  75.2028122  76.9575424  11.9453936  74.6402969
  78.4038086  12.0147991  75.0812836  51.1451950  16.4097519   6.5508637
  51.6963997  16.1264706   5.8213725  51.6293335  17.1324425   6.9503126
   4.4475765  59.3921471   1.9011875   3.7612097  59.0660553   1.3191254
   4.1071591  60.2239647   2.2304685  46.3331604   7.2384157  75.9252701
  46.2253914   6.9273448  76.8240738  45.4532585   7.1978002  75.5506287
  71.8095856  50.7009468   4.7758536  72.7252045  50.4580917   4.9132900
  71.4231339  49.9413490   4.3400788   0.5115358  27.2524986  38.5872269
   1.2695606  27.2107468  38.0042305   0.2177261  26.3447018  38.6634674
  83.8228226  53.5982056  64.2974014  84.5326691  53.0051498  64.0511627
  83.1205597  53.4016571  63.6773758  82.8321686  23.1194725  67.9763870
  83.4296722  22.5437889  67.4990845  82.6670761  22.6625614  68.8011398
  24.4526386  57.3211975  37.2270851  23.5559063  57.2955322  37.5609207
  24.8903408  56.5880623  37.6597023  23.9944191  51.4347496  44.4414482
  24.7945442  50.9267273  44.5754128  24.2330933  52.3276253  44.6905289
  71.2416306  59.3343163  71.2792206  72.0099182  58.8031006  71.4884491
  70.7112656  59.3125648  72.0757523  81.3546143   1.9431591   4.4197407
  80.8920212   2.7705431   4.2868028  80.8985214   1.5287467   5.1521835
  29.1687107  33.6630135   3.6143463  29.5361061  33.2501755   2.8327975
  29.6001129  33.2195511   4.3447332  86.7149124  66.1311951   5.5613952
  85.9198151  66.5733719   5.2638350  87.3094864  66.8423920   5.7999606
  78.8536606  66.4981613  23.6023750  77.9880753  66.8026581  23.8748932
  78.7493210  65.5539780  23.4846706  65.7578964   9.6869001  82.2895279
  65.7968903   8.7631845  82.0416107  66.3544159  10.1234827  81.6814194
  30.3456326  43.5266685  14.9612885  30.0081539  43.7827225  15.8196449
  30.9729328  44.2136383  14.7359037  86.4656067  14.9863577  65.8135986
  86.1134796  14.2445164  66.3054428  86.0631714  14.9126749  64.9482346
  60.6001587   5.3790746  59.6829910  60.2383385   5.1436005  60.5373154
  60.6999283   4.5436106  59.2266197   9.0921841  29.4233818  64.0818634
   9.2064533  28.5288696  63.7608948   8.5751438  29.8571854  63.4031067
   5.0331488  62.0041580   7.9488711   4.5612321  61.9009514   7.1225085
   4.3470850  62.0194511   8.6161900  19.3530655  13.6491566  54.8305664
  19.2504826  14.5424061  54.5022163  20.0540047  13.2764177  54.2957954
  12.6257372  26.5199070  84.2161102  13.5041227  26.1420059  84.2592392
  12.4749737  26.6696301  83.2827911  61.3016205  28.7694759   2.5503113
  61.2731705  29.7231293   2.4730577  60.6218872  28.5607052   3.1910992
  83.8529892  46.4025993   3.0500221  83.2705154  47.1173134   3.3071978
  83.2811432  45.7746429   2.6085522  11.7337465  55.4007111  85.7017059
  12.5818510  55.3072662  86.1355438  11.1675615  55.7952194  86.3650513
  63.2942963  18.9379482  26.4084454  64.0492325  19.4734478  26.6524620
  62.7520447  18.9149933  27.1969051  21.2443085  51.3140068  61.4730301
  20.3924599  51.7103653  61.2900429  21.6183968  51.1407471  60.6091614
  60.6990891  15.3267479  63.6792984  61.1902161  15.6344824  64.4410858
  61.0497665  14.4532986  63.5051041  63.5341606  40.0531731  11.4891167
  62.6416855  39.9630508  11.1550617  63.4670563  40.7167778  12.1756706
  16.2946358  26.6844997  65.3016205  15.4239454  26.3090210  65.1706848
  16.7979832  25.9834862  65.7156906  55.6036987  56.9934616  10.1140852
  55.9593391  57.1669006  10.9856749  55.2551575  57.8369217   9.8254232
  25.7451572  14.3300610   7.1084867  25.7786617  14.6713028   6.2148070
  25.7105408  15.1104355   7.6617026  51.0325851  35.8503609  15.2303610
  51.7728348  35.4156380  15.6537752  50.8168793  36.5782547  15.8133497
  10.0145540  22.0940762  74.9085464   9.3573942  22.6509895  75.3259430
   9.5359802  21.6350555  74.2182541  22.3817673  45.8932381  70.6217499
  23.2045288  45.9075050  71.1107254  22.6468639  45.9644012  69.7047501
  64.1707153  30.2966442  30.7984257  63.5260658  30.7604866  30.2640953
  65.0142517  30.6516685  30.5179882  10.0845871   8.1606913   8.8799677
  11.0003767   8.2168179   9.1527519   9.9246016   8.9781742   8.4084206
  11.8952780  39.7723846  69.0626602  11.6735878  40.0593491  68.1768036
  11.7891483  40.5560913  69.6018906  82.7474518  49.0000458  30.8238106
  82.9975739  49.9102402  30.6650200  81.9616394  49.0589066  31.3672028
  29.1222534  58.5871964  44.0104218  28.7583694  59.1893349  44.6594582
  29.8636074  58.1756973  44.4545937  22.4396400  59.6237488  61.4103088
  22.0742836  60.0189705  62.2018547  22.0790920  58.7371483  61.3969345
  18.9009857  48.7824097  72.0151749  19.0614777  47.8398819  72.0611954
  18.3271523  48.9642792  72.7593994  21.7832661  67.9242935  25.6521168
  22.1073952  67.2794037  26.2808361  22.5728359  68.3456726  25.3126259
  28.7190723  48.0915565  25.9081135  28.3427486  48.8195877  25.4135590
  29.2701054  47.6313972  25.2749863  42.8496246  63.7228470  51.1966820
  42.8620110  63.6377602  50.2433510  41.9335670  63.9012985  51.4093361
  74.4635162  66.2681885   0.3853936  74.2212753  67.1543884   0.6540874
  73.7930222  65.7077713   0.7760380  78.6296616  66.3229752  47.1558266
  79.2413940  66.6003113  47.8378067  78.2194748  67.1347427  46.8574791
  58.8549690   9.0169163  72.9242859  58.0393524   8.5441322  72.7585373
  58.5961075   9.7549515  73.4761200  53.1564178  57.7168198   2.9180784
  52.5616417  56.9923286   2.7242022  53.9419518  57.2951508   3.2664449
   9.0716619  18.4388943  18.5304108   8.3181963  18.8977356  18.1589451
   9.3600063  18.9972649  19.2524319  35.5203018  15.1246557  15.6151342
  35.9020424  14.3362141  15.2293062  35.8552170  15.8413219  15.0761976
   7.2236595  32.2856331  51.7394104   7.4738946  32.7463303  50.9385529
   7.1756268  31.3651772  51.4811745  68.4543839  66.5489883  55.7919197
  69.0386200  65.9967651  55.2723541  68.8310699  66.5348587  56.6717682
  54.1572723   6.1757522  76.1419678  54.6189613   5.5218191  76.6667938
  54.6181870   6.1784582  75.3030472  42.6123390  25.1598492  71.2778854
  42.8411331  26.0854187  71.1930084  42.5060921  25.0247707  72.2195358
  73.2583084  39.7859726  65.4632416  73.3786926  39.3388863  66.3010025
  72.3164215  39.9485359  65.4116898   6.0807066  66.6905060  21.8590584
   6.8980317  67.0899277  21.5612755   5.4124279  67.3528366  21.6831150
  62.2996140  28.7047882  41.4245529  61.4691811  29.1808147  41.4211578
  62.9535255  29.3622398  41.1870880  76.7369537  38.8337479  80.4505844
  76.9242783  38.4655304  81.3140411  77.0525208  38.1725082  79.8346176
  76.7314453   8.2306957  86.7245636  76.2584381   8.1668930  85.8948441
  76.0605164   8.4665642  87.3652267  12.1947412  24.1867809  74.2083740
  11.4781227  24.0608406  73.5864182  12.9807425  23.9389286  73.7215424
  46.6983986  32.8404579  25.1064034  46.6655998  32.7981682  24.1507015
  45.7882881  32.9730186  25.3716583  81.5272064  17.4834766  32.5237045
  82.3629150  17.7442951  32.1366577  81.5947571  16.5337238  32.6218872
  61.3487244  53.3180771  50.4334641  61.3143730  52.5668602  49.8412399
  61.6215515  54.0485001  49.8782387  83.1067505   4.6762676  76.0146561
  82.4339447   5.1199317  75.4981995  83.5409622   4.0931807  75.3919983
  86.3220596  32.4448280  20.9186440  86.9688263  33.0200996  21.3272800
  86.5807495  31.5636826  21.1886272   8.1859341  44.2126846  85.5170059
   7.4456925  43.9233742  84.9835587   8.3291416  43.4969444  86.1362305
  84.0375061   9.9192305  16.5603638  84.1323776  10.4341717  17.3616543
  83.4558258  10.4411869  16.0076904  84.4030151   4.3915467  72.1679764
  84.8154449   5.1471643  72.5865097  85.0975418   3.7344682  72.1220779
  47.4899330  36.2597542  63.9419937  47.7311440  35.4260674  64.3457413
  48.2636185  36.5153313  63.4396744  20.8902626  11.9381723  53.2163315
  21.8317738  11.9836445  53.0498390  20.4878197  12.2148647  52.3930969
  64.4094315  41.9998779  13.7344580  63.5788498  41.8671875  14.1913662
  64.9809036  42.4023628  14.3884125  66.6222458  22.8238754  59.0394402
  66.7579803  23.5162582  59.6862907  67.0780258  23.1343327  58.2570648
  31.9935265  56.8168793  12.1554585  32.6001320  56.2707062  11.6555014
  31.9110680  56.3726158  12.9992981  12.2456942  41.3287621  10.2827015
  12.7108822  42.1650200  10.2602434  12.0462151  41.1409454   9.3655510
  45.9705238  18.3700905  24.4322357  45.9351501  17.6551113  25.0676765
  46.1044655  17.9355316  23.5899467  44.5566559  47.7591438  29.0184803
  45.0964279  47.9469872  29.7863293  44.5922813  46.8069153  28.9278107
  10.5241899  70.2591248  85.1376114   9.8262329  70.6783981  84.6343155
  10.8908901  69.6065826  84.5409927  74.7959976  47.2546883  64.6837387
  74.3550720  47.2362747  63.8343391  74.0888290  47.1656799  65.3226624
  20.3486767  54.9035378   7.4307580  21.0533543  54.3387222   7.1135082
  19.8069420  55.0671806   6.6587629  83.8842468  16.1361599  61.8379898
  83.2803879  16.6416054  62.3821564  83.5031128  16.1717682  60.9606628
  57.6693611   9.9284153  79.5499496  57.6143341  10.8675928  79.7264404
  56.9227829   9.5528612  80.0166550  18.4060040  58.3393555  38.2961769
  18.2643967  59.2498627  38.0370255  17.7957134  57.8385811  37.7548828
  47.5966263  26.4112282  23.4735146  47.2183876  27.2885513  23.4145832
  48.4093132  26.4665127  22.9708061  51.0123672  20.9708977  54.8549576
  51.0759468  20.0158634  54.8648758  51.9179497  21.2704086  54.7746925
  10.3778620  51.1949768  53.0379677  10.3536530  52.1191483  53.2860680
   9.9381189  51.1634750  52.1883430  58.2043495  69.7257462  34.9022446
  57.7993507  70.5692520  34.7004700  58.3043785  69.2984924  34.0515518
  34.6759949  20.4606800  12.4974756  35.0864258  20.1367130  11.6957121
  35.2467346  20.1509705  13.2007313   7.0615377  33.7919350  12.1709356
   6.2877674  33.9701614  11.6363831   7.0742245  32.8393402  12.2638483
   8.4496403  34.3322220  29.2926178   9.1675167  34.9588814  29.2021523
   8.0861673  34.2554054  28.4104519  54.8772964   9.5389662  63.3414497
  54.5488586  10.4289398  63.4691429  54.3247375   8.9966822  63.9043350
  79.6280594  64.3206024  50.4700813  79.9971008  63.8039703  51.1864090
  78.8048401  64.6614075  50.8199387  76.9337845  34.9583511  24.1198559
  76.4214706  34.9348526  23.3116398  77.5625153  34.2427521  24.0257797
  53.1085587  29.2820301  81.0249023  53.8797379  29.8105183  80.8194504
  53.4471130  28.5600357  81.5543747  53.8227310   5.9871716  33.3939819
  54.2008057   6.4954910  34.1115494  54.5551987   5.4749393  33.0514259
  68.7313538  63.8935356  36.6241112  67.8156204  63.6169624  36.6584740
  68.9444962  64.1289444  37.5270996  39.5844383  52.0627174   9.7605801
  39.9541206  51.2266884  10.0445147  40.2101936  52.7182732  10.0686550
  28.1342125  65.2797852  47.8542824  28.8394299  65.9060669  47.6909752
  27.6988297  65.1831207  47.0073280  35.6600533  58.9163475  71.7678146
  35.7539101  58.7493896  72.7056580  36.3902702  58.4452858  71.3664169
  53.0497437  43.8493462  87.7995758  53.5914993  43.1022644  87.5454102
  53.0517921  44.4193268  87.0305862  46.4106026  47.8962402  31.0309086
  46.3802261  47.6939011  31.9659843  46.8347855  47.1350594  30.6347980
  73.0832367  23.7079983  73.0519943  72.8922653  24.3542786  72.3722305
  73.1835175  22.8831272  72.5768509   9.5517836  70.8624649  59.4567032
  10.4415760  70.5132675  59.5072861   9.0250378  70.2514343  59.9718819
  44.5711098  30.5824986  13.8865347  45.0671616  30.7386360  13.0829268
  43.9090347  31.2737064  13.8974361   9.7051458  31.0670452  61.5025520
   8.8672819  30.6523933  61.2969322  10.2517385  30.3529091  61.8303871
  12.0051384  18.1671886  84.2196884  12.9162817  17.8809891  84.1553497
  11.4949284  17.3607712  84.1448059  41.8049812  64.4945755  27.3808289
  40.9810257  64.9745560  27.4642200  41.6725388  63.9206581  26.6263046
  35.1793938  57.7655487  79.5661926  36.0405121  57.3826408  79.7338028
  34.5634727  57.1592102  79.9775620  44.1696434  68.3534851  67.0825424
  43.3713951  68.8788147  67.0272141  43.8593025  67.4625168  67.2440720
  41.8228836  32.4030228  77.7479782  42.5924263  32.7809906  78.1736221
  41.2194672  33.1391296  77.6466522  13.5359764  60.4958076  65.0703278
  13.1665192  60.0065842  64.3352127  14.4827890  60.4482918  64.9379654
  40.9659500   7.0762773  60.9747620  40.5241928   7.1951494  61.8155632
  40.8314095   6.1527777  60.7619705  45.5173607  34.8392258  49.8171349
  46.1632423  34.2380066  49.4461899  46.0113983  35.6384010  50.0001106
  27.5789051  29.9038811  13.1217289  26.8688202  30.5155296  12.9270535
  27.4129543  29.6227932  14.0215511  42.7774353  62.3005333  80.0810089
  42.9230270  61.3795624  79.8645554  41.9423141  62.3075218  80.5487213
  36.8151817  22.8842525   6.7834415  36.5631752  23.8076248   6.7938390
  37.6346664  22.8651867   6.2891626   8.8781157  15.5649710  77.8960037
   8.2152252  15.7597265  77.2335281   9.7095604  15.6127205  77.4241409
  67.5985565   5.3363113  75.1433868  66.6627884   5.5110273  75.2436142
  67.6479721   4.6959891  74.4336090  82.5744705   5.7702975  84.9558258
  81.9136429   5.3158174  84.4333496  83.4022903   5.3614726  84.7032089
  46.9293060  62.2238388  22.0291805  46.7752037  61.8949814  21.1435528
  47.6289291  61.6681557  22.3726540  25.1469727  32.8098831  86.2019272
  25.1566048  33.3897362  85.4404144  26.0106678  32.3972626  86.1997223
  66.6085052  43.8554344  28.8688221  67.0918961  43.6626167  28.0654602
  65.6942062  43.6802559  28.6461029  60.6008911  11.9309511  70.5083771
  61.4664154  11.5251188  70.5573883  60.3436050  11.8363819  69.5912628
  44.0294991  29.2987251  25.5301857  43.3878822  29.9962044  25.6646481
  44.8769531  29.7420197  25.5695400  82.8980484   7.1462030  25.1445923
  83.0712204   6.2831068  25.5204983  83.1880188   7.0739551  24.2352352
  53.4368668  60.4786682  69.0359650  52.5948448  60.1690178  68.7022858
  53.5621071  61.3300934  68.6168900  19.9919891   0.1078879  24.3116474
  20.2803307   0.4840851  23.4800415  20.7547474   0.1817463  24.8852119
  15.3404808  45.7514839  21.6048489  14.5370750  45.5723305  22.0933914
  15.0772791  46.3810997  20.9336281  10.2712526  44.3209419  61.9193611
  10.2557068  44.4744987  60.9746857  11.1978207  44.2005463  62.1272316
  82.4071121  25.1808453  52.9468689  81.8240585  25.1691818  53.7059097
  81.8236160  25.3065376  52.1985550  11.1339149  68.6560745  10.6376085
  10.8118134  67.8833847  11.1017551  11.4667435  68.3153076   9.8073463
  28.5653782  52.2675591  70.3262482  29.4084435  52.6528206  70.5650940
  28.7686138  51.3549767  70.1210098  79.6515808  21.8716660  37.2738762
  79.3813019  21.7297039  38.1810837  79.4110565  22.7800579  37.0916557
   7.7793674  37.8851738   3.6953294   8.1490211  37.1119118   4.1215405
   6.8827529  37.9356499   4.0266395  50.1177979  27.6186771  32.7136154
  49.7268333  27.4125385  33.5626678  50.8385048  28.2138538  32.9199638
  82.6727905  37.1532288  10.3891516  83.2547989  37.2231636  11.1458588
  81.7914429  37.1979294  10.7599201  62.6904182  17.4779186  17.6402874
  62.3978691  16.7200356  17.1340656  63.0552444  17.1038933  18.4423065
  21.6811733   3.8107271  51.4443245  21.0911217   4.4157548  51.8937798
  22.0322552   3.2564468  52.1412773  55.0152054  17.1285591  65.8303299
  54.3387527  17.1942883  66.5043640  55.0883636  18.0152111  65.4771652
  57.4368935  28.6520252  10.1194286  58.2186508  28.6187668  10.6707735
  57.5026894  29.4896393   9.6608381  33.7163162   7.3279104  64.7715607
  32.9784050   7.9375772  64.7666168  34.0083923   7.3127675  65.6829834
  52.4543381   2.7525890  39.6249428  52.0714111   3.3214149  40.2928009
  51.9256859   2.9117470  38.8430023  62.8429680  12.3536806  23.3439102
  62.6327248  11.6635151  23.9729576  62.6413345  13.1677704  23.8052502
  86.2399063  66.5621567  77.6839142  86.2128296  65.6209869  77.8562164
  85.6687164  66.9441757  78.3502731  70.3439255  17.6117783  82.3302612
  70.6758347  16.7605133  82.6156006  71.0965652  18.0366459  81.9188461
  23.0496731   1.9771974  20.2896709  22.5157948   1.9678799  19.4952431
  23.9497108   2.0519352  19.9725304  33.3029861  51.3648415  48.1069298
  33.5887451  51.9379807  48.8183250  33.0414658  50.5538940  48.5430565
  57.3052635  60.0087090   1.2510076  57.1408539  60.3926239   0.3897230
  58.1628151  60.3494797   1.5053930  81.9251709  20.0060921   5.1186705
  81.6377716  20.2954025   5.9846559  81.1223068  19.9729595   4.5985432
  43.8233757  30.8637886  63.6698494  44.5744057  30.5790291  64.1905212
  44.2062225  31.1882038  62.8547325  78.3062210  34.4837036  55.8997841
  78.7910614  34.1713066  55.1358643  78.3726196  33.7698212  56.5339737
  61.8220177  47.7329865  23.3995113  61.4651413  48.2076111  24.1502495
  61.3467140  48.0838470  22.6463737  25.8473606  68.0649796  42.2421265
  24.9046745  68.2154160  42.3124237  26.0950737  68.4794464  41.4156380
  57.0444794  58.3211403  75.3221970  56.6406593  57.5707245  74.8862686
  56.5071869  59.0684586  75.0593872  47.9950523  35.5861855  58.3221321
  48.1706085  34.8596497  58.9200935  47.2417641  36.0353355  58.7056122
  81.0151901  44.7677116  30.5384007  81.2289581  45.5961685  30.1092281
  81.1982193  44.1008797  29.8765335  12.3358145   4.6854310  62.8435860
  11.4804783   4.2795272  62.9845619  12.1407642   5.6115532  62.7004623
  66.3284073   0.7440137  57.5390816  66.7054520  -0.1093588  57.3250008
  66.1490097   1.1465636  56.6893730   2.4732635  56.9326210  10.6591263
   3.2901573  56.9720421  10.1617708   2.6654403  57.3988953  11.4726915
  21.0312080  33.3478508  18.1287689  20.7075481  34.2117119  18.3841572
  21.9754086  33.4666557  18.0258160  62.6222534  58.2269669  28.2579098
  62.5543289  58.8458710  28.9849415  63.4973984  58.3740463  27.8991299
  45.6761055  53.2507210  10.5270767  46.2296677  52.6820145   9.9919376
  45.5773621  52.7793427  11.3542919  42.7872276  63.2141609  19.8073406
  43.6298447  62.9196167  20.1529865  42.9996490  63.9881821  19.2858067
  51.8980598  45.3779182   5.8395143  52.3348923  46.1913071   6.0921230
  52.4562950  44.6860504   6.1943727  47.1894073  62.0599632  61.5657692
  46.4821663  62.4908371  62.0457649  46.7451019  61.5671272  60.8758888
  35.6196556  57.8196564  74.4066086  34.8858070  58.1292000  74.9375381
  35.8405304  56.9655609  74.7780533  40.0584755  57.7762680  69.7660217
  40.9950485  57.5826874  69.7261200  39.7796555  57.4363556  70.6162872
  16.3586941  12.3247671  49.5564919  16.0078621  11.8685541  48.7916298
  15.6412582  12.3167496  50.1900940  63.5035744  63.3701820  54.9210854
  63.4514275  63.8437805  54.0908966  62.5959282  63.3076630  55.2185860
  21.3126926  56.0509949   9.6960335  22.2327499  55.8196106   9.5688009
  20.9075775  55.9006042   8.8419285  52.9847679  38.8855324  82.5651627
  53.5609932  39.4726105  82.0757370  53.0923500  39.1508751  83.4785385
  50.4837456  12.0786085  25.2187786  50.2458458  11.6556444  26.0438461
  51.0009270  11.4214020  24.7531223  83.4728851   1.7076697  54.2604179
  82.8768311   1.4094290  54.9474411  84.0168076   0.9441038  54.0671425
  36.3354874  66.7569351  11.3062468  36.5510941  67.6490860  11.0345602
  35.4324532  66.8133316  11.6186275  73.8807983   5.9735970  69.8444672
  74.0093231   6.7975397  70.3143921  72.9667816   5.7430644  70.0107803
  46.3682671  65.3914566  30.3124237  46.7226677  65.6815567  29.4719048
  45.8427505  64.6207962  30.0976086  37.8851089  22.1896133  70.6677933
  37.4799919  23.0506496  70.7713928  38.0847664  21.9098034  71.5611420
  40.9782486   4.9324274   1.4006196  40.8981285   5.1408277   0.4698230
  41.4679298   4.1102118   1.4206861  49.3335838  68.4736633  56.2436943
  49.5621986  68.0844879  55.3995934  48.6119614  69.0702591  56.0447884
  68.4741440  53.7265396  85.5144577  68.9529572  53.0582199  85.0242310
  69.0512848  53.9466972  86.2456741   4.3806591  35.6605110  42.0902748
   4.2711797  36.5427895  42.4449997   3.6739938  35.5699921  41.4510078
  56.5776329  47.3423042  49.6432800  56.0396538  47.8464088  49.0327950
  56.0131378  46.6206360  49.9203568  10.1576529  60.7591286  87.1737366
  10.9449711  60.4248314  86.7440720  10.0372200  61.6344528  86.8055878
  60.5211983  38.9009132  19.8751259  61.1196632  38.8678589  19.1288147
  60.9599915  38.3918877  20.5567284  58.3899460  65.3688812   8.5285444
  58.3248138  65.3854904   9.4833813  57.6230888  64.8712387   8.2447891
  77.2138824  22.1304245  81.4714737  76.6091156  22.1517334  82.2131195
  78.0494614  21.8591251  81.8515167  70.3401566  26.5640297   9.4890022
  69.5773544  26.5266495   8.9119663  70.1403656  27.2691383  10.1047440
  78.8009186   7.1784368  22.7441101  78.4863586   6.3287067  22.4355011
  79.0681152   7.0204716  23.6495857  82.6147079  43.8633194  44.0760574
  82.3512344  43.5479126  43.2115707  81.8384399  43.7408295  44.6225319
  84.8086014   1.4154235  35.9572754  84.4770813   1.7838078  36.7761879
  85.1909790   2.1620638  35.4962425  59.3756294  62.1350365  25.8956566
  60.1962967  61.7212715  25.6282082  59.0209236  62.5074196  25.0883465
  56.5402184  61.5893326  59.6959839  57.0718956  61.2768211  60.4280281
  56.9848289  62.3832054  59.3987961  36.4408531  43.7397614  40.1717453
  37.0260353  44.4972267  40.1780357  36.2140007  43.6047096  41.0918159
   2.2285430  67.9098053  25.3443851   2.5829065  68.4820786  26.0249462
   2.1786509  68.4652481  24.5664253  33.1817932  49.2498741  52.5551414
  32.4576912  48.6267967  52.4944534  33.6651115  48.9800797  53.3360710
  63.8855629  41.3213158  31.0790749  64.3488770  40.9323578  30.3372669
  64.4284439  41.1092758  31.8383846  34.4351463  16.2286758  82.0324707
  34.3444977  16.7954750  82.7984695  33.8375473  16.6032257  81.3853073
  78.9824295  63.1466446  19.0942097  78.9604492  63.0541306  18.1417446
  79.7694855  62.6726837  19.3627853   2.8494704  38.1956291  79.4369354
   3.4032805  38.1078873  80.2127075   3.4606137  38.3947487  78.7276459
   5.0952616  50.2983780  50.0676804   5.0887475  49.4804649  49.5704765
   4.4339647  50.1705017  50.7478027  70.0039444  33.3265381  40.8383713
  70.6489334  33.5495148  41.5095634  69.8497620  32.3892326  40.9563446
  49.7767181  61.3979988  46.9689751  49.8201141  60.4792137  47.2338867
  49.4405594  61.8540916  47.7404747  74.8429642   3.6183698  64.1515427
  75.5005569   3.9577317  64.7586975  74.8099365   2.6794064  64.3345337
  11.0461550   1.9389944  68.5466003  11.2856693   1.1810383  69.0798645
  10.6442537   2.5493808  69.1647720  66.4316177  69.8156586  79.0855255
  66.3679276  69.9597855  80.0296707  67.1429520  70.3904419  78.8029404
  48.8937988  47.2612724  81.1171417  48.7793312  46.3846397  81.4840698
  49.7283592  47.5637283  81.4752655  38.4102898  50.6840630  60.7558594
  39.2972717  51.0404243  60.7058182  38.5022430  49.7727966  60.4777031
  58.8641319  10.8114128  84.2165451  59.2467613  10.8870592  85.0906754
  58.2964973  10.0424910  84.2692795  69.3469238  40.0455017  33.8100281
  70.2057495  40.2207832  33.4254036  68.8779449  40.8768082  33.7377548
  45.0184326  62.5191269   2.9309812  45.0703812  63.2453346   3.5523953
  44.0855751  62.4411697   2.7311378  75.3531113  19.7124214  33.3173409
  76.3019104  19.7260513  33.4431801  75.2312698  19.3091679  32.4578247
  84.0559998  16.9089069  19.3675518  83.5125580  16.4627762  18.7180367
  83.6420364  16.7058277  20.2063732   1.7237490  41.1699181  41.7276688
   1.1718167  41.8362503  42.1370659   1.3349729  41.0347862  40.8634796
  71.1439056  12.0784292  32.5286102  70.3868332  11.8516273  31.9885807
  71.2948227  13.0069380  32.3516121  51.1422729  39.1688919  62.3430328
  51.7668228  38.6428490  61.8435822  50.9711571  39.9292145  61.7872772
  69.4771957  46.3297310  35.5019073  69.8347702  45.5883789  35.0132713
  68.7285767  46.6209946  34.9813614  16.5262337  32.0759392  15.0286846
  17.3315220  31.5702915  14.9188643  16.6782303  32.6007042  15.8146544
  70.8039246  41.7668991  51.7717323  70.2276230  41.0273247  51.5790024
  70.2317505  42.4161453  52.1807938  82.0657196  51.1419754  13.5357685
  81.8695526  50.2360992  13.7748003  82.9943085  51.1327324  13.3036633
  21.1280956  38.5603828  21.7119617  21.2378178  38.4640427  20.7659645
  21.1830997  39.5037270  21.8646202  29.6999092  50.5455208  36.1308403
  29.5618515  51.3712692  35.6668243  30.6187897  50.3310738  35.9699059
  33.9097176  29.0053482  86.6811371  33.2146111  29.1026917  87.3319702
  33.4465637  28.8694038  85.8545532  10.1072817  69.5613403  17.5916214
  10.2151508  69.8182602  18.5073662  10.7603464  70.0778427  17.1194324
  70.8130112  54.2163849  73.3714142  70.0280228  53.7936478  73.0231171
  71.4338837  54.2059784  72.6429596  70.2446899  27.1335487  52.3781776
  69.7180023  27.8317337  52.7672348  69.9539795  26.3377018  52.8235397
  15.9460382  50.0634804  43.2751198  16.8632393  49.9735794  43.0164871
  15.6113682  50.7738609  42.7277756  32.4589653   3.6719019  64.3958130
  32.0017776   4.4980893  64.5527496  31.8478241   3.1561499  63.8697548
  82.8666153  59.0290642  75.2634583  82.3565979  59.7172318  74.8362198
  82.9084015  58.3250694  74.6162491  27.4907227  51.3170090  46.4069061
  27.0778542  51.1482468  45.5599747  28.4095364  51.0825157  46.2764206
   4.1570163  32.5469971  85.2381516   4.2161007  31.7009125  85.6818695
   5.0633578  32.8484192  85.1755371   4.3604093  67.0504913  34.2207336
   3.6186318  66.6446915  34.6694298   4.9585867  67.3006210  34.9249001
  58.7468033  52.3502769  19.0601368  57.9391632  52.2437172  18.5575523
  58.4554405  52.6520233  19.9205360   2.5531144  56.0051308  47.8336983
   1.7351024  55.8358917  47.3663177   2.4672368  56.9049263  48.1487007
   9.1049595  56.2451668  29.8705196   9.6685839  56.9408951  30.2089272
   8.5251617  56.6870689  29.2502079  83.8231812  43.7346764  41.0082550
  83.6258087  44.6517715  40.8179550  82.9754562  43.2925987  40.9617615
  84.5972290   2.8796039  83.5829239  85.0544815   2.1274552  83.2068558
  84.1477509   3.2825758  82.8400803  30.6684532   3.6935055  24.8585892
  30.4733601   4.5345726  24.4453373  29.8243179   3.2438204  24.8966541
  38.3389931   8.7098179  86.2448654  38.3981514   9.2370462  87.0415802
  37.4317627   8.4051619  86.2260742  59.1199989  12.4708424   5.0634747
  58.2448044  12.1556702   4.8377976  59.7082748  11.7755394   4.7689981
  41.3561592  67.5078430  46.5571213  41.1419258  66.6868515  46.1140633
  42.2710648  67.4066544  46.8196945  25.7592182  49.7863426  38.0338516
  26.0989933  50.0546684  37.1801605  24.9794846  49.2700081  37.8297729
  10.7534676  -0.2874487  19.5074940  11.6376810   0.0680356  19.4178867
  10.1967535   0.3341641  19.0385609  67.4222794   3.3367479   1.4887137
  68.1490326   3.9193892   1.7091378  67.7706299   2.7687201   0.8015268
  36.3244019  19.2358551  66.7452316  35.9113312  18.8163052  67.4999390
  35.8981361  20.0906658  66.6833496  46.8746986  56.8390808   8.1964025
  47.2079697  57.0683289   7.3288727  47.4091568  56.0931969   8.4688826
  50.4749413  57.4652100  66.2479248  49.6233749  57.7868042  66.5439682
  50.4102249  57.4600792  65.2929306  51.2193947  65.1359863  39.0354156
  50.7222252  65.5538635  39.7385712  51.0400162  65.6728287  38.2635002
   6.6521664  35.3506927  73.9367981   6.6707458  34.3938866  73.9165421
   5.8476725  35.5844841  73.4738083  84.4346313  47.1116104  65.6993179
  85.3802719  47.1826248  65.5691452  84.0611420  47.2661171  64.8316345
  24.3496304   4.8460436  61.3199234  23.8674545   4.8102617  62.1460342
  23.7724686   5.3264313  60.7263374  63.4938698  44.1134872  39.9429169
  63.5695305  44.1231384  38.9887619  63.5591850  43.1881599  40.1790085
  51.5199966  34.6935730   3.3166032  52.3954773  34.4893990   2.9878418
  51.0494080  33.8609390   3.2778802  33.1471939  29.2387409  75.3017273
  33.0541763  28.4744034  75.8703842  34.0872688  29.4188328  75.2944031
  74.0865784  32.7351570  80.3049088  74.7491302  32.1895638  79.8811417
  73.2520905  32.3529358  80.0333023  37.3156433  50.4684601  38.2979851
  38.0239334  50.0425720  38.7808685  36.6655083  50.6837616  38.9667206
  16.4347363  66.9790268  72.8778763  16.3097916  66.5691452  73.7338028
  17.3542366  67.2449493  72.8715897  75.3723297   7.4651122   1.6276149
  76.2822342   7.7127008   1.4632589  75.0214310   7.2543182   0.7623580
  49.8588676  17.1556664  70.4262619  49.0555267  16.9757080  69.9379120
  50.1070099  18.0413189  70.1611633  19.3883018  55.2578773  18.5378475
  19.5063171  54.7950897  17.7083092  20.1926365  55.7655182  18.6454411
  43.4056892  44.5263023  57.8405228  43.1354790  45.1853409  58.4799614
  44.3570175  44.6186523  57.7888145  80.4496765   0.7997911  27.1887627
  79.7271652   1.3644193  27.4633675  80.4226379   0.0625380  27.7986469
  48.5687332  37.7241974  82.9729538  49.2933273  38.0585442  82.4443588
  48.4777260  38.3590775  83.6834946  45.6770248  49.4163170  34.5382347
  45.9932365  48.5199547  34.4252052  44.7763138  49.3950996  34.2149658
  23.4919930  51.9284134  67.7449036  22.8916798  52.6727486  67.7875519
  24.1823502  52.2115326  67.1453323   7.3695054  29.7823029  61.6595840
   6.5063281  29.6388550  62.0476303   7.2480116  29.5941238  60.7289619
  78.4237442  33.7414665   9.8374128  78.6557770  33.1917686  10.5858946
  78.1413803  34.5691719  10.2265253  48.4427185  34.7581482  15.1029835
  48.9868393  35.5003052  15.3663568  47.9451103  35.0807076  14.3516054
  45.3818703  66.4007111  86.9442749  45.4719429  65.5987167  87.4589844
  44.4440880  66.5918198  86.9607468  50.4725113  58.6644173  80.8775024
  49.7757492  58.6958466  81.5330658  50.0261154  58.8229218  80.0457382
   1.2351656   8.4999800  12.4703703   0.7069133   8.9712305  13.1146564
   1.8584176   9.1515169  12.1489859  26.6235886  68.9925385  84.6943283
  26.2721062  68.1185913  84.5243225  27.0385704  69.2482224  83.8705292
  84.9428864  28.1089630  26.3084049  84.9993515  27.4080658  26.9578590
  85.8537750  28.3144970  26.0980186  34.0839386  45.7282562   6.9558449
  33.4153290  45.2576103   6.4581661  34.8565292  45.7152100   6.3908982
  19.9055614  49.9524269   3.7547076  19.2638664  50.5234718   4.1770391
  19.8626404  50.1881104   2.8279703  33.0532799  50.8046417  56.0844765
  33.3334808  50.3543777  56.8813324  32.1385117  51.0341225  56.2481003
  44.0113487  45.4785881   3.8885629  43.7249756  44.9595337   4.6400967
  44.9001770  45.7542992   4.1126170  85.8123093  32.5402985  71.9294662
  85.6239395  32.0016594  71.1609497  85.9819489  33.4129448  71.5745773
  27.3962994  17.2262001   5.0008941  27.3895550  16.6259270   5.7464533
  26.4896622  17.2372704   4.6941042  38.0754280  16.7500954  65.8955917
  38.0405846  17.0724449  66.7962036  37.3678017  17.2136803  65.4477234
  70.2131042  13.9667101  25.1352787  70.2080154  13.3578253  24.3967228
  69.5514832  14.6210136  24.9108276  40.8390160  70.4469070  79.6349335
  40.5321312  70.3601456  78.7324219  40.1031761  70.8438339  80.1010132
  48.1605530   4.8281503  30.1037045  47.8158531   5.0957036  30.9556599
  48.7230301   4.0783296  30.2976608  81.9408798  16.4470768  11.9302368
  82.3963318  15.7962275  12.4642706  82.4644547  17.2428532  12.0242500
  72.7720337  59.4707642  57.2550545  72.7325516  59.0256615  58.1015549
  71.8629150  59.7001801  57.0624504  80.4338989  41.5918465  51.1701317
  80.9698257  40.7991295  51.1950989  79.5422287  41.2833099  51.3312645
  51.8479309  15.3885651  14.1933651  50.9244728  15.5539465  14.0033407
  52.1417274  16.1737022  14.6553984   5.8656740  61.3623428  26.1971092
   5.7965460  61.4448357  27.1482391   5.9989953  62.2584076  25.8880424
  61.7099457  12.7989063  26.4686108  61.8319092  13.5829649  25.9332523
  60.9817772  13.0170021  27.0503654  74.3306122   7.1681347  88.2214661
  73.4103851   7.3604889  88.0414276  74.5063248   6.3622522  87.7357635
  67.6180496  59.6354637  24.1802235  66.6936417  59.8760262  24.1182461
  67.6904449  59.1762123  25.0169296  77.0696335  50.1975136   9.1962976
  77.9813461  50.2781143   9.4765034  77.0870667  50.4043846   8.2618828
  18.5289936  27.9123306  13.6406155  17.6146812  28.1746712  13.5336494
  18.5145760  26.9580879  13.5668287  48.8508682  33.8948555  64.8197174
  48.7240715  33.7256241  65.7532730  49.8006020  33.9475441  64.7126846
  10.6027460  19.2287445  20.9522152  10.3361588  18.6878433  21.6955776
  10.5554390  20.1267338  21.2802544  52.4074135  10.0880280  52.5387039
  52.8702469   9.7651997  53.3118782  53.0900154  10.4900427  52.0014229
  69.2102585  46.6125717  88.1250229  68.6638031  46.6782761  88.9081573
  68.6317139  46.2396164  87.4598694  58.0530891  68.4409866  52.6517944
  58.7732925  68.5793228  53.2669373  58.3660088  68.8157349  51.8284607
  19.7403622  40.1319008  33.8305969  18.8338299  40.3176918  34.0753632
  19.9093494  40.7063255  33.0837975  56.5093803  26.8642998  75.3709946
  56.4320908  25.9352989  75.1537094  57.1791840  27.1953049  74.7726364
  43.6887093  57.2723465  67.9923706  44.2573700  56.8654022  67.3387299
  43.3509750  58.0571060  67.5607224  80.9689941  29.5730743  13.7897472
  81.5683823  30.3193588  13.7945414  81.5143661  28.8294945  13.5330687
  47.9935226  14.5747290  61.5788193  47.3046036  14.2095394  61.0236130
  48.7996521  14.4387178  61.0809364   3.7847247  65.8694916  59.3189545
   3.9580402  65.7692261  58.3829308   3.0997200  66.5364380  59.3656082
  32.9625740  53.5528221  82.2305832  33.9128036  53.6655540  82.2063522
  32.6477890  54.2861252  82.7591705  13.8268528  41.0378189  86.4497223
  13.4191341  40.9775429  85.5857925  14.0235405  41.9683876  86.5573425
  61.0019913  12.7205048  58.2196426  60.6020241  13.2580099  58.9032669
  60.4106941  12.8052502  57.4717026   1.2305435  55.0448418  24.3485680
   1.4458405  55.7582054  24.9493942   0.5751135  54.5273056  24.8163300
  86.2378082  61.9571953  36.1535912  86.6773682  61.8048363  35.3170471
  86.7893677  61.5139160  36.7981949  74.0375824  38.1511993  27.3578339
  74.4751053  37.4791145  26.8352318  73.7978058  38.8282356  26.7250919
   8.5437069   2.4734066   9.5480738   8.6589422   3.1072502   8.8401222
   9.3944216   2.4461665   9.9859943  42.2959404  45.2355843  17.5873642
  41.7415314  44.8051796  18.2382240  43.0553284  44.6593170  17.5009003
  83.6825333  44.0990028  60.7350197  84.3195038  43.5475006  60.2807693
  83.2038040  44.5399094  60.0331230  32.1935654  30.9038849  15.5119553
  31.9761276  29.9819069  15.3744383  31.5158749  31.3834343  15.0355101
  72.4338379  37.4453850   5.6999149  73.0676041  37.2958984   6.4015036
  71.7531662  37.9844131   6.1028619  32.4218750  62.2083168  61.2819519
  31.8054790  62.4404297  60.5873947  32.6983643  61.3170509  61.0688095
  10.7801867  44.0698967   2.0952816  11.6300507  43.8895378   1.6934924
  10.1671991  43.5075722   1.6217096  64.8841705  56.1082268  20.8277454
  64.8919907  55.5626945  20.0412579  65.8050461  56.1793213  21.0790844
  45.7594032  21.4613323  40.7716904  45.4962387  21.6360493  41.6752701
  44.9864845  21.6791382  40.2507401  15.9700146  43.5942574  12.8516521
  16.7544212  43.0470886  12.8123751  15.7866306  43.8158913  11.9387007
  42.3933411  17.4627342   6.2191410  42.2121658  16.5382328   6.0497169
  41.5586014  17.9034157   6.0602808  82.1704559  14.6117392  35.5275154
  82.2961502  14.3470173  36.4387512  83.0303040  14.9267321  35.2488213
   9.3490543  39.4491653  71.3147430   9.0902605  38.9336090  72.0785904
   9.0567083  38.9303284  70.5653610  60.4473190  35.8147736  28.0362854
  59.5018005  35.9453735  27.9643593  60.7942619  36.1068993  27.1933594
  65.6426010  17.3317394  62.1549759  64.8903961  17.9013329  61.9937897
  66.3738022  17.7723446  61.7220230  41.5096893  50.1649628   0.0691896
  42.2007637  49.5109711   0.1738043  41.9235191  50.9922066   0.3154482
  44.2627792  48.9970551   6.0581946  43.7465744  48.6083069   5.3520489
  45.0767822  48.4934845   6.0650377  18.6031227  42.4356918  66.1112137
  19.0216255  41.8996315  65.4376144  17.8524170  42.8324928  65.6693726
  74.9454803  11.0177431  76.2770233  74.7017899  11.2313442  77.1776962
  75.0390396  11.8674173  75.8462830  86.2132568  14.7094221  47.3301888
  86.3052216  15.2956352  48.0812721  86.0283356  13.8531246  47.7159233
  68.6807785  34.3466415  62.4750099  67.8419342  34.6929054  62.1705780
  69.3157196  34.6537971  61.8279114  19.3263226  30.6159782  84.6809311
  20.1919670  30.4618168  85.0592499  19.3799057  30.2438126  83.8006744
  68.6765442  64.2464905  21.4134026  67.8950577  64.1436920  20.8703156
  68.8056793  65.1932220  21.4705105  62.0319023  59.0238533  22.2243309
  61.9895134  59.9799843  22.2086010  62.3916283  58.8142014  23.0862331
  46.2429428  18.5553246  12.6262255  46.3105774  18.7315922  11.6878300
  45.6964722  19.2647190  12.9644012  20.0040684  32.9472313  67.2820282
  19.9939823  33.8041534  66.8556290  19.3081932  32.9975891  67.9373550
  39.7806511  59.0573349   1.4348999  39.9647942  59.4527588   0.5828639
  40.5883255  59.1775742   1.9343314  70.5955276  20.7697735   9.5512514
  70.9446335  21.2043133   8.7730913  71.3531723  20.6637135  10.1265459
  50.6367836  60.8112335  30.6679802  51.0313950  61.2905502  31.3965206
  50.7468147  59.8892021  30.9003143  68.6471329  35.4253960  57.9656487
  69.1810837  35.7679558  57.2488632  68.0723038  34.7826385  57.5501060
   3.1595006  59.8458710  39.2752686   3.4663627  58.9741821  39.5247231
   2.3115020  59.9348373  39.7102585  55.3208046  62.5044937  63.0696716
  55.1406136  63.0189400  63.8565063  55.3939171  63.1540108  62.3703766
  76.1015854  67.0290604  24.3751736  76.2259674  67.4921570  25.2036057
  75.4664154  67.5614014  23.8962154  58.4825745  29.4523239  59.3301201
  57.9554901  28.6545410  59.2858543  57.9299431  30.0788898  59.7972870
   1.0122417  40.0492783  55.3376961   1.7341610  40.1313400  55.9608612
   1.1317577  39.1844597  54.9452248  46.1123161  56.7041969  76.6140823
  46.9365730  56.3384666  76.2930298  46.3389702  57.1053391  77.4530945
  35.3542976  21.3783665  86.1690598  35.8083382  20.7323303  85.6280212
  34.5518379  20.9366360  86.4468384  47.1561317  17.2940197  88.5906143
  46.5516777  18.0335560  88.5277100  46.8846817  16.8294792  89.3822861
  25.6790352  59.6159134  25.1779804  26.1408367  58.8377762  25.4901848
  25.8630466  59.6430206  24.2390251  42.3641586  18.7431736  12.4987431
  43.0140076  19.4082699  12.7258406  41.8830986  18.5907726  13.3121233
  47.8124237  39.4679565  55.4342499  48.0414124  39.1577110  56.3103447
  47.6584549  40.4061699  55.5450478  23.6368999  46.0724220  81.5744629
  22.6878567  46.1887589  81.6193390  23.8094101  45.3008881  82.1141052
  46.1497726   7.8050389  26.2861538  46.3858452   8.6856079  26.5778732
  46.7368279   7.2261839  26.7724934  86.4204330   8.5229034  50.2411880
  87.0522003   8.3716288  49.5381813  86.5878677   9.4217997  50.5243492
  27.7053337  60.1151886  72.7391510  27.8511391  60.9600639  72.3135223
  27.2768898  60.3345795  73.5665207  78.3045578  67.7209091   0.0159881
  78.9007111  67.4161682   0.7000729  78.1051407  68.6253967   0.2575619
  68.2136688   9.9092026  46.0057449  68.9935150   9.5154381  45.6145592
  67.5593491   9.8893309  45.3073921  47.7394829  13.6952324  33.0541229
  47.7608757  12.7399807  32.9969444  47.4813423  13.9818869  32.1780930
  11.7176151  44.9382744   7.2299809  10.8350420  45.2122078   7.4794903
  11.9571028  45.5257759   6.5132403  67.3077774  57.5633354  86.0721359
  67.6265488  57.0654030  85.3193512  66.6904678  56.9737778  86.5052490
  42.4990730  30.5139580  68.3650436  43.1201668  30.3038197  67.6676788
  43.0058365  31.0345459  68.9882660  45.5867958   3.9951825  64.3295670
  46.2439384   3.3085887  64.4435196  45.4914780   4.0804238  63.3809509
  61.7990913  15.6061602   6.8421369  62.4249039  15.3817520   6.1534905
  61.4459457  14.7638683   7.1286039  60.9611893  59.1396370  17.7748260
  60.5557938  58.3136177  18.0385990  61.8433723  59.1022415  18.1444054
  29.7188740  16.8113213  86.9379349  29.7704277  15.8608398  86.8371506
  29.6963844  17.1463528  86.0415649   9.0733566  42.3643456   0.7931259
   8.9454727  41.5644722   1.3031096   8.2332153  42.8198242   0.8472934
  32.4418526  16.2681065  80.2214127  33.2578583  15.9181061  79.8638229
  31.7544022  15.7582121  79.7928696  17.0341988  59.6016541   1.7953391
  17.9204311  59.4145775   2.1048963  17.0460968  60.5353699   1.5849463
  77.0453110  16.6932487  84.9544601  77.1653290  16.9657345  85.8641739
  76.5427780  17.4037819  84.5559158  17.5330906  46.7001457  57.5651970
  18.0981655  45.9299202  57.6257973  16.8653488  46.4574432  56.9237518
   3.7969136  42.1744957  53.8335648   3.9705796  41.3999214  54.3684540
   3.2045326  41.8646011  53.1485252  35.9254761  42.6138344  57.6825790
  36.7133026  42.8581619  58.1682396  35.4828529  43.4449081  57.5104370
  42.9562263  26.0065346   9.0413017  43.6875992  25.9764481   9.6580801
  42.8526878  26.9360847   8.8377132  82.0247192  70.0967560  74.9192810
  81.6182251  70.7839203  74.3912659  81.2895966  69.5726929  75.2373810
  27.7872772  22.9972057  86.3898392  27.9598255  22.1285114  86.0267563
  26.8741970  23.1742916  86.1636581  63.6133270  37.2633705   9.4491234
  63.0886765  36.5321465   9.1231089  63.3475151  37.3599052  10.3635931
  82.8181915  23.2253780  56.7249870  81.8692551  23.3448124  56.7636528
  83.0156479  23.1775188  55.7895966  36.2609634  66.0570450  89.2060699
  36.8937149  65.5425873  88.7048721  36.2712440  66.9195709  88.7911301
  70.7550354  25.6245499  73.4728851  71.3623505  26.3505363  73.3302460
  71.2969971  24.9283028  73.8440247  65.1210327  62.6247559  80.5357819
  64.4491348  63.2971497  80.4232407  65.9466324  63.1091270  80.5378571
  72.2037277  47.9222832  65.9525528  71.9563751  48.7426834  65.5259399
  71.6819687  47.9026985  66.7548065  15.3710833  65.6737976  29.7265511
  15.6863613  65.9768982  30.5779991  14.8221426  66.3893661  29.4058285
  72.9067078  38.4978027  11.9802027  73.8304901  38.6144028  11.7582474
  72.9087982  38.2962227  12.9159336  29.7291546  52.3792763   1.0928233
  29.8845196  53.3147240   1.2233349  28.8131218  52.3243103   0.8206209
  18.6432877   0.3950412  73.8508835  18.1291809  -0.2447195  74.3434601
  18.0034161   0.8393058  73.2946243  71.4375687  26.1544571  50.0060272
  71.1590805  26.6569061  50.7716789  71.8446121  25.3684826  50.3704300
  33.7117882  33.4606857   9.9324350  33.3595657  33.6291351  10.8063898
  34.2862816  32.7037582  10.0475349  24.3384991  37.9276085  56.0194740
  24.1991844  37.3623428  55.2596703  25.1364117  38.4142952  55.8128357
  52.5979156  13.3240767  10.5234919  52.4872780  13.8165598   9.7101955
  53.3485184  13.7351961  10.9522209  46.7859039  45.0370750   3.8455884
  46.8030319  45.3035545   2.9263895  46.7191811  44.0826302   3.8170602
  15.7643404  52.4559364   7.1493578  16.5795803  52.3099556   7.6292596
  15.0754919  52.2123260   7.7677207  62.2801247  26.7528210  42.9018173
  63.0269394  26.8576488  43.4913139  62.1289024  27.6295128  42.5485878
  74.0683060   2.6008410  70.9021683  73.5546646   3.3249226  71.2600937
  73.7556076   1.8290666  71.3741989   8.8764992  66.9023361  73.8159943
   8.9730482  66.9089584  72.8637009   9.7027760  66.5420532  74.1380081
   5.3352246  42.2702904  21.4184151   4.7706966  41.5044136  21.5231667
   5.2809334  42.7246437  22.2591572  39.1084099  38.9283485   7.7608614
  39.1201553  37.9741745   7.8359880  38.3023415  39.1935692   8.2037363
  84.7870026  63.5817947   2.4447844  84.3613434  64.3535080   2.0712838
  84.1814880  63.2780113   3.1210220  76.9814224  44.9972305  13.8313503
  77.0728683  45.5637741  14.5974426  77.6062775  44.2879448  13.9820385
  77.1685944  68.9703369  53.8179817  77.6681900  68.1549530  53.7756271
  77.4823685  69.4024963  54.6123466  65.0595551  15.7171745  81.9318542
  65.8645325  16.2241421  82.0378113  64.8985672  15.7177811  80.9882889
  79.1420593  15.2308769  32.0023193  79.9673386  15.0499792  32.4522362
  78.5533600  15.5328751  32.6940269  18.8761806  44.1454430  49.0981522
  18.7616386  45.0180931  48.7218552  18.1211700  43.6480751  48.7838058
  47.8790321  37.0939865  30.3020992  48.6188583  37.1372070  30.9079189
  47.8492851  37.9612503  29.8981228  63.0521202  54.9150696  75.9284897
  63.3414726  55.5791245  76.5542221  63.6766891  54.9785461  75.2059174
  43.7513084  47.0140648  77.8259735  43.1269264  46.3374062  77.5642166
  44.3340187  46.5753975  78.4458542  25.4124775  58.4598808  29.6055603
  25.1530361  57.7186279  29.0583248  26.2348213  58.7645493  29.2219486
  84.6674042  22.4017105  13.4226265  84.4069748  23.0658264  14.0608749
  85.1995163  21.7836266  13.9236784  62.8492928  64.2601089  21.0064125
  62.6052780  65.1403503  20.7203102  62.1366043  63.7013397  20.6964302
  68.5527954  33.3310585  44.6974258  68.0249634  33.9429512  45.2104721
  68.4681320  33.6397285  43.7953224  27.9847851  41.4534760  12.7079926
  27.8442612  41.6518250  11.7821732  27.8576298  42.2906647  13.1542845
  20.1346817  36.9251709  57.8653641  19.3779488  37.4513893  58.1235886
  20.5880260  36.7380562  58.6873741  19.9375172  21.6895218  25.6522675
  19.1118889  21.3005791  25.9408741  20.3194027  21.0346603  25.0678444
  39.1989326  36.2342339  60.6066093  39.8591080  36.7031822  60.0962257
  39.1712456  35.3603363  60.2170372   7.7430544  58.6789665  80.3542557
   7.2386017  57.9627991  80.7400818   7.2250667  58.9569893  79.5988617
  50.6446190  12.7475471  57.0334129  51.3038101  13.2399893  56.5443306
  50.1331596  12.2983074  56.3604889  69.3503723  62.1964722  61.6135025
  68.6216965  61.9357185  62.1767769  68.9686890  62.8301849  61.0060844
  38.5855064  25.8162041  68.4596024  38.0757751  26.4005737  67.8984299
  38.4385376  26.1467342  69.3458252  27.6827202  22.9474297  11.5297918
  27.1160870  22.4767780  10.9185266  28.4922333  22.4369297  11.5475073
  16.4538193  45.6391487  42.8148956  16.2775097  46.2078209  43.5644035
  15.5971985  45.2848892  42.5762978  29.8550091  41.9647217  57.9244080
  30.7790051  42.0187607  57.6803932  29.3864098  42.3161621  57.1673508
  26.2302761  28.3428612   6.4493856  26.4577618  27.5954075   5.8963962
  25.2768002  28.3040009   6.5242591  77.5498276  31.4365349  54.4778099
  77.3346634  31.2729149  53.5595703  78.1045532  32.2163696  54.4585419
  69.0836258   0.8756086  58.4240990  68.1553040   0.6602711  58.3342018
  69.2752838   1.4298532  57.6675835  40.1932945  66.4950714   6.3242860
  39.6674957  66.9961319   6.9477463  40.0720024  65.5827866   6.5874562
  42.0988579  68.4136047  53.4748230  41.9160461  67.5424423  53.8267937
  41.8703194  69.0120773  54.1860428  20.4332333  40.2718239  54.4239807
  20.2166901  39.3509636  54.2778320  20.8653049  40.2836380  55.2780304
  18.9344730   2.1790042  16.0629883  18.8439560   2.8271916  16.7614803
  18.6299400   1.3605084  16.4548492   9.1082258   3.2347496  15.5138960
   9.9941521   3.4082992  15.1957016   9.0979033   2.2944772  15.6928177
   3.9294808   0.8098369  76.2641602   4.7778997   0.4885482  75.9588852
   3.8498120   0.4671924  77.1543732  25.7673759  37.7622490  10.8585472
  26.6267834  38.0689316  10.5694132  25.2732830  38.5633774  11.0326061
  47.2371101   7.7383804  67.6408157  47.2565422   7.5024576  66.7133484
  47.3342590   6.9052367  68.1019745  70.1421890  17.6769314  56.4893761
  70.9887772  17.2651825  56.6625595  69.9746017  17.4998360  55.5637512
  60.8748932  70.6481781   5.4732385  61.3180885  70.3868332   4.6660790
  59.9605522  70.7677612   5.2165055  70.8402557  17.9981632  75.2105331
  71.1899185  18.8569355  74.9728775  71.4707642  17.6487637  75.8403015
   4.6399159  65.6135101   8.8919420   4.0560708  65.8344498   8.1663103
   5.4245157  65.2633820   8.4699888   5.5547247  54.6412277  66.9265213
   6.2566605  54.0617218  67.2226486   4.9261370  54.0580482  66.5010681
  79.0932312  24.7829933  36.8191452  78.3159790  25.3331509  36.7219696
  79.5411835  24.8501949  35.9759064  25.3608837  49.5547791  14.8411121
  24.9588203  48.6934624  14.7283545  24.8352966  50.1379852  14.2935171
  44.1999702  60.7641449  70.4743042  44.8693924  60.4822044  69.8509140
  44.5539131  60.5241699  71.3306732  60.4388428  45.2189560  11.1041842
  60.5209579  44.7893562  10.2527552  59.8336639  45.9441833  10.9491596
  36.6716728  66.3812943  36.9036102  37.3030586  66.1224518  37.5748634
  36.1180420  65.6094742  36.7851944  64.7965317  19.1721115  30.0973988
  64.8029251  19.5090084  29.2014694  65.6450272  18.7404232  30.1970177
   9.5633793  30.1149254  11.9213037   9.2270136  29.9408035  11.0422297
   8.7952518  30.3909016  12.4213524  17.5028648  19.1820545  14.4040365
  16.7863522  19.7164783  14.0616446  17.4409084  18.3592110  13.9189377
  51.5398560  54.0258293  49.3673096  51.2263718  53.7805939  48.4967842
  52.2894554  53.4511871  49.5226097   0.4481525  43.0400772  51.2087021
   0.7360318  42.2091713  51.5867920   1.1627216  43.6487961  51.3960037
  43.6267319  38.0587883  32.9640465  43.5749702  39.0134583  32.9175873
  43.7888870  37.8724365  33.8888206  19.3253231  27.2185555  66.3539429
  19.8820629  27.4164543  65.6008759  19.4713669  27.9468060  66.9577255
  49.0449791  13.7957058  37.4881592  49.1703072  14.7104158  37.7408066
  48.5383339  13.8384876  36.6771622  28.5615158  61.3709831  77.0157013
  28.9340172  61.8833008  77.7333374  27.6787891  61.1496658  77.3124313
  76.5851135  36.1281738  84.9802170  76.4260101  37.0317650  85.2530594
  76.5334549  35.6207733  85.7902222  54.0642204  30.2581539  72.1394730
  54.0999641  30.5088692  71.2163773  53.1417999  30.0571823  72.2975311
  53.3631935  54.4416351  41.3632965  53.9007339  55.1270638  40.9664726
  53.8274727  53.6283531  41.1651764  75.9286270  67.6670609  77.6076660
  76.2092667  68.5592499  77.4040146  75.2672577  67.7741699  78.2912827
  68.2314835  26.8430843  70.2971115  68.0829544  26.7854652  71.2409592
  67.8392029  26.0446644  69.9437408  18.6488667  25.1505299  13.6021652
  18.4779072  25.2406502  14.5396528  18.3016644  24.2873325  13.3772802
  56.1341057  67.1067276  76.7035522  56.0972900  66.2038040  77.0191498
  55.2310486  67.4183960  76.7634506  37.1706581  68.9161911   9.9979200
  36.7671318  69.0889587   9.1473026  37.2297096  69.7761612  10.4140949
  26.1505222   3.0948830   4.9797974  26.1765060   3.6472886   4.1985135
  26.8190746   3.4643130   5.5566778  43.2202225  67.6506042   1.1206193
  43.1066208  66.7463074   1.4131359  43.9043312  68.0024414   1.6902204
  69.3532944  15.2595978   7.6631851  69.1267166  16.0824986   7.2299113
  69.3116379  14.6033087   6.9676409  37.3282509  30.9144821  10.3580704
  36.4102249  30.9421101  10.6276979  37.3541565  31.4179726   9.5444012
  11.9110451  37.7425308   6.9139199  11.6652699  36.9170799   7.3315988
  12.1515942  37.4966583   6.0206594   6.5279741  20.1852207   5.8640981
   6.1535606  19.3624306   6.1788411   7.1982522  19.9182243   5.2350736
  85.5877914  52.5396538  62.4806900  86.1767807  53.2939987  62.4636345
  84.8908768  52.7659569  61.8647919  52.5232239  24.0532894  15.1958828
  52.4606743  24.3267784  16.1110458  51.6163063  24.0287495  14.8907156
  42.8419609  38.3334312  38.0070763  43.2272491  38.7747650  38.7640495
  42.3386192  37.6106262  38.3818169  75.7412949  58.0351257  29.5658779
  75.0178146  58.5580597  29.2204151  76.2182541  57.7433357  28.7889614
  30.1596031  46.6482697  62.6291656  31.0934849  46.6400490  62.4193344
  30.1280499  46.7854843  63.5759544   9.2871056  11.4770870  86.4798355
   8.9251671  12.1284657  87.0806122   8.5311184  11.1619806  85.9844360
  47.7417908  53.0913391  83.8508530  48.1187210  53.5015030  83.0724411
  47.4212608  53.8243408  84.3764038  59.7371216  14.7867165  16.0442810
  59.0006790  14.6228828  16.6333809  59.5638199  14.2315092  15.2840548
  61.1464882  54.4958267  31.1173248  60.5008698  55.2023888  31.1039181
  60.9509163  53.9778328  30.3365135  76.0685272  48.6592941  54.5729980
  76.7270737  48.5228271  55.2541199  76.0138931  49.6103783  54.4797897
  27.8981609  12.5908117  80.2478790  27.0398216  12.3434992  79.9039001
  27.7771797  13.4820251  80.5755005  36.9786034  64.9278183  16.9559174
  37.3216667  64.8588104  16.0649757  36.0523109  65.1395264  16.8401699
  10.9721022  71.3066711  46.2702255  11.2478685  70.5323029  45.7797737
  11.2783546  71.1464386  47.1628456  84.0116272  22.4857597  74.8370056
  83.8024521  23.1905689  74.2240448  83.3917084  22.6025982  75.5569229
  81.5039978  62.1451073  19.4174500  81.7764816  61.2295380  19.4784126
  81.5360718  62.3427277  18.4814205  72.0942230   5.4998903   0.0622850
  72.9764786   5.4997616   0.4335655  71.6732635   6.2694817   0.4453721
  86.2479172  65.8776627  33.0225220  86.7657623  66.4817276  33.5546570
  85.3493881  65.9976349  33.3299141   7.5587988  37.8003845  49.6707191
   7.7861142  38.6413803  50.0673103   8.2781458  37.2181053  49.9150963
  72.5155792   4.3906579  62.6488571  72.6171265   4.6988559  61.7483406
  73.4026871   4.4042945  63.0081444  15.8253469  42.7724419  34.3608704
  15.5339251  42.4697685  35.2209244  15.0251274  42.8121452  33.8371277
  40.9558907  60.7693291  31.8197784  41.4865837  61.0113029  31.0608025
  41.3345566  59.9443855  32.1236076  76.7872162  49.3745155  70.7322235
  76.3168335  48.8058701  71.3418198  77.4377670  48.8027115  70.3247223
   2.8583722  56.9341698  56.3976097   2.8665369  56.5460167  57.2725410
   2.8833644  57.8781548  56.5541306  61.8343239  48.2355919   1.8235617
  61.6533928  47.6227036   1.1109135  62.6640015  48.6467400   1.5810274
  58.6772232  17.6094398  75.8567047  58.8868484  18.2930470  75.2203369
  59.0775833  16.8174171  75.4980392   8.2961178  24.6371250  61.7203789
   7.9430003  25.4637241  62.0494308   9.0568295  24.8924847  61.1985168
  72.5503159  67.4206543  36.2344589  72.7058258  66.4887314  36.3879662
  72.4211121  67.4892807  35.2885056  56.5691986  13.7433939   2.5844626
  56.8732529  14.6507473   2.5622611  57.2674255  13.2463217   2.1582828
  82.0335999  65.8630371  72.6330261  82.9230118  66.0337677  72.9429245
  82.1235352  65.7738190  71.6842499  32.7838478  45.4132500  71.9660263
  32.2487564  46.1446991  71.6579819  32.2009087  44.6552505  71.9230118
   8.8188753   0.6408753  53.3027420   8.9518366   0.3277945  54.1974678
   8.2748461   1.4223161  53.4007950  27.4693127   8.9130573  69.6177673
  27.1387081   8.1077137  69.2198257  28.0970612   8.6148081  70.2759552
  59.7469254  34.3416252  86.3112946  59.3152504  33.4889221  86.2585144
  59.0979881  34.9136505  86.7210464  31.9327869  30.6525192  78.2370377
  32.4244194  30.2978973  77.4962463  32.0638580  31.5990105  78.1804123
  14.4215641  51.8204575   9.5108242  13.8455296  51.0613136   9.6009359
  15.0931358  51.6923943  10.1807661  71.5294952  17.6497803  38.0197601
  71.1921844  17.1734257  37.2611160  72.2126617  17.0812759  38.3751755
  83.2817078   2.9455442  14.7238607  84.0750961   2.9467132  15.2593660
  82.5841141   2.6957011  15.3298130  34.0589943  70.3352966  86.4728546
  33.7323189  69.4851379  86.7673798  34.5578346  70.1385956  85.6799545
  53.3447075  15.9063368  42.1642914  53.8818550  15.7732468  42.9453087
  53.4931793  15.1226654  41.6350975  24.6568260   4.0890603  21.0909023
  24.2578716   3.7545011  21.8941078  25.5188580   3.6740601  21.0607834
  36.7361565  28.1768227  45.2408333  37.1251907  27.9145660  44.4065056
  37.0408897  29.0741482  45.3756523  13.5434170   8.3170567   7.2290659
  12.9084539   8.8007574   6.7007790  13.2322683   8.4172192   8.1287241
  57.2488441  39.4825172  35.4990463  56.4091911  39.5380440  35.9552650
  57.8400421  39.0778656  36.1338425  79.3301468  20.8344383  48.9399986
  79.2040176  20.7884998  47.9922562  80.2664719  20.6796684  49.0647888
  65.1379547  68.4310074  40.7970505  65.8289871  67.8552399  41.1244621
  64.8895950  68.9615784  41.5540466   3.8244131  61.7752380  18.8655910
   3.5863342  62.1175690  19.7271938   2.9937160  61.7152061  18.3938160
  30.5481262  26.6342983  72.2317200  29.9167747  26.7883701  71.5289459
  30.1499844  27.0363579  73.0037689  64.7915955  58.8080559  65.0206375
  65.4326935  58.5414810  65.6795425  64.2369995  58.0372047  64.9004364
   2.2314706  42.9020653  46.3506088   2.4920187  43.3200302  45.5298500
   2.3215563  41.9643288  46.1809998  83.3525238  69.6188126   6.5073791
  83.6670609  70.4175797   6.0839782  82.4090424  69.7518387   6.5989089
  28.7376423  39.4008408  79.5515366  28.8544884  39.1563759  80.4695892
  29.6184750  39.3607712  79.1790314  63.1599503  47.0058022  16.3098450
  62.9433479  47.8682137  16.6641979  62.9356308  46.3951302  17.0119781
  66.7328568  49.7972260  26.1124725  66.1873016  49.0126915  26.1682682
  67.0117188  49.8304558  25.1973972  30.9428596  27.7319336  15.6429405
  31.4598827  26.9803200  15.3531179  30.0676556  27.5708694  15.2903700
  61.1974335  27.2528515  11.5685034  60.4250870  27.4298725  12.1055088
  61.2698631  28.0153427  10.9943991  34.8746071   0.0059499  62.4742546
  34.0285149  -0.2684825  62.1206398  34.9822655   0.9059265  62.1665459
  57.6055565  34.6978760  80.4892044  58.2140884  34.6731834  79.7507553
  56.9045715  35.2832108  80.2024384  26.6391201  49.8013954  61.7386322
  27.3560925  49.6196404  62.3462105  26.9089413  49.3871651  60.9189758
  80.2282257  54.8529129  37.1656647  80.9825897  54.8105698  37.7533569
  80.5308838  54.4392433  36.3572693  17.5389709  23.5265560  61.0607452
  18.3061790  23.7262192  61.5971756  17.5556870  24.1836262  60.3648911
  64.3063354   9.0676479  19.2736225  63.5208778   9.1700659  19.8110161
  65.0047150   9.4680948  19.7914467  17.3711987  12.7897806  73.2018585
  17.9688530  13.1740456  72.5604706  17.1287804  11.9433594  72.8263168
  26.7476540  23.8741646  14.1673918  25.9437180  24.0070515  13.6651373
  27.3650665  23.5026588  13.5372982  15.4161520   2.9865272  54.9406128
  14.6585369   3.5178974  55.1853485  15.2972116   2.1655390  55.4181709
  15.0911608  39.1654053  32.0814896  14.9080715  40.0595589  31.7930374
  14.3855219  38.9626427  32.6956482  72.4165115  41.5532799  77.4631195
  71.4617996  41.5084419  77.4107132  72.6450119  40.9624329  78.1806946
  57.2302704  12.6038513  24.3122482  56.8534889  11.9339533  24.8827763
  56.8664360  12.4142017  23.4474430   4.7078681  49.0998344  10.6130276
   4.0611420  49.3080597  11.2872820   4.2082000  49.0904083   9.7966490
  20.1628571  35.2248116  12.4809732  20.5673790  35.7723808  11.8080997
  19.6483707  34.5836449  11.9906225  45.3097649  50.8750076  22.3457775
  45.4057961  50.8247948  21.3947315  45.6661491  50.0465622  22.6665649
   6.8894734  10.3019228   8.3519783   7.1438098  10.3975353   9.2698030
   6.0538969   9.8359556   8.3822765   5.5882812  21.9309311  15.9850960
   5.7172055  22.8778782  16.0389519   5.4619470  21.7590981  15.0519581
  47.8549881  43.8009033   6.4968977  47.5274086  42.9434395   6.7683296
  47.1979713  44.1241188   5.8803816  76.2196121  30.1639366  20.6441269
  77.1431885  29.9938698  20.4588757  76.1633530  30.1656094  21.5996704
  71.8623810  42.7795715   7.9485211  72.2842407  41.9667053   8.2269325
  71.6635208  42.6412315   7.0224819  54.5535088  45.9353561  31.2789574
  54.7508087  46.7007370  31.8188629  53.6041374  45.8332481  31.3460026
  39.5075035  13.1479359   7.4255366  39.8588638  12.8449306   6.5882993
  39.7834854  12.4826365   8.0559664  31.1413479   2.2815714  12.2237883
  30.5118103   2.5776336  11.5663223  31.8642769   1.9145240  11.7149858
  48.0801163  42.2387810  49.4792290  47.2762680  41.7458649  49.3146210
  48.2039337  42.7656288  48.6897163  39.2444572   6.1336570   7.4332514
  38.8545685   6.9463367   7.1111202  38.4962425   5.5666652   7.6201334
  63.8064499  29.1627636   5.7843289  64.6219559  29.2833996   6.2707710
  63.5997314  28.2341328   5.8898873  24.1929474  28.3735752  18.4666958
  25.1489124  28.3797321  18.5149288  23.9342537  29.2573566  18.7279186
   3.9217217  46.0040665  72.2434692   4.1457295  46.6942787  71.6192398
   3.7857230  46.4648170  73.0713882  55.0414619  11.7204523  60.5017776
  55.3281784  11.8677282  61.4030724  54.1482468  11.3868408  60.5860672
  15.9500828  34.8814964  19.6155338  15.6325550  35.7558327  19.8412437
  15.9283991  34.3981934  20.4414749  36.8797989   1.2999290   6.3593702
  37.4826050   0.6211173   6.0559402  37.2691650   2.1195920   6.0547738
  20.9034061  54.6781960  66.1048965  21.6015167  55.2374153  66.4457016
  20.6895409  54.0925713  66.8312149  76.7856445  71.6134644  62.0374260
  76.7053299  71.5621643  61.0849800  77.2903595  70.8363571  62.2774277
  52.2146187   6.4136491  55.5449257  52.2757568   6.8535571  54.6969986
  51.7551155   7.0382023  56.1061935  27.3709373  35.8503189  88.8180084
  26.5478992  36.2266197  88.5061798  27.1367035  35.4022942  89.6308060
  29.9012547  38.2986450  70.3798370  30.0790653  38.5465927  71.2871017
  30.5519810  37.6245804  70.1838226  38.9576874  67.1048737  12.6691542
  38.0897522  66.9460220  12.2980957  38.7902679  67.3190384  13.5869417
  19.2499943  19.0249901  19.8779469  19.4562683  19.9584599  19.8298416
  20.0666866  18.5866089  19.6390553  64.7885590  70.9349442   9.6427469
  64.4090729  70.8086472  10.5123844  65.0424728  71.8576584   9.6239262
  70.8750229  52.1177864  26.8624744  70.9786224  53.0492706  26.6679573
  70.0907974  52.0731125  27.4094887  66.3714142  22.7578373  78.7965012
  66.2736969  22.1951294  79.5646439  65.7459946  22.4077816  78.1620407
   9.5497217  45.8955536  20.5715332   9.9690800  46.2028313  19.7678242
   8.8520746  45.3135338  20.2702484  29.0281811   7.6495509   7.1369443
  28.2267780   7.8355279   7.6262264  28.8948784   8.0731945   6.2890124
  74.1743164  29.8886471   2.7329752  73.8592911  29.5460491   3.5694046
  73.4826355  29.6695652   2.1086309  83.5037766  13.5150232  20.7759304
  83.0060959  12.7267981  20.5585690  82.8580170  14.2210636  20.7489090
  22.4315357  13.6126499  71.7800217  21.6181412  14.1139593  71.8375549
  22.7278137  13.7394810  70.8787079  49.8097076  52.2859840  53.4711685
  48.8798828  52.4990578  53.3920708  50.0441933  52.5621758  54.3571548
  39.8669891  35.4024353  15.2541275  40.2232437  34.8162308  15.9217205
  40.2117195  36.2652168  15.4843483   2.7022436  19.1965046  89.2716599
   3.5226655  18.8086147  88.9672241   2.3827868  19.6997089  88.5226898
  31.4565144  68.4136200  19.5416126  31.7555714  67.9989853  20.3508568
  30.5930443  68.7656479  19.7577744   0.6093355  60.5090828  72.1513519
   0.8486666  60.0782661  72.9719315   0.4036230  59.7897491  71.5542984
  45.6505775  27.4893436  18.2108746  45.2595863  26.6920357  18.5681629
  45.9958763  27.9501915  18.9754810  74.9311752  42.1109772  23.7038994
  75.4219513  42.6712074  24.3051567  74.1346741  42.6058121  23.5116768
  55.4724045  33.8193359  77.6291885  56.2201805  33.2546463  77.8246155
  55.8635864  34.6356163  77.3179169  63.1938248  54.5777092  62.4980812
  63.7691002  54.7275009  63.2483177  63.7160683  54.8394127  61.7397919
  17.6297703  63.0591316  61.5375633  17.5664444  63.1218452  60.5845222
  18.2278500  62.3275452  61.6902428   0.8706470  59.2032356  17.5403156
   0.4450125  59.5791855  18.3108559   1.8057067  59.3400764  17.6925316
  85.3472290  31.2728901   3.4344196  84.4962921  30.9529552   3.1347842
  85.9533539  31.0341873   2.7330883  43.7635078   2.8461652  78.9822922
  43.9470139   1.9166515  79.1185379  43.7910767   3.2269144  79.8600769
  77.7221832  38.4023399  83.3660812  78.3109512  38.0401993  84.0282288
  77.6684875  39.3343925  83.5773468  84.7906113   7.4709101  13.3885403
  84.0349731   7.3777037  13.9686737  85.0125275   8.4010229  13.4318428
   9.0558691  55.3998146  49.2371521   8.9951935  54.5846443  49.7351952
   9.7132626  55.2212791  48.5647011   0.6853878   4.5321894  56.9973221
   0.5154370   5.3066678  57.5335426   1.5054848   4.1780424  57.3412018
  84.4935989  29.1570911  76.4126740  85.1083832  28.4286613  76.3251801
  83.6616058  28.7422581  76.6405640  77.2479324  53.6683846  51.5567780
  76.3826065  53.3774071  51.2690735  77.6170120  54.1131401  50.7937546
  63.6305771  31.4221230  28.0108852  62.8619576  31.9260941  27.7435513
  64.3750916  31.9430981  27.7100220  22.5471096  68.7812195  75.1912231
  23.0482845  68.7208481  76.0044937  23.1914921  69.0369263  74.5312042
  38.2816620   3.5794766   5.3400288  37.8271637   4.2305303   5.8746243
  38.7230263   4.0917592   4.6625361  59.8189659  30.0775909  53.4641953
  58.9901848  29.6830559  53.7356606  60.3719444  29.3333778  53.2263031
  15.2313938  32.2084656   0.5830165  14.4677029  32.7119064   0.8650669
  15.0681496  32.0236092  -0.3418677  25.3164768  65.0422821  39.2713852
  25.9096127  65.7381516  38.9882050  24.8069286  65.4354706  39.9799004
  50.9482422   6.8734798  48.2341843  51.2729187   7.3637195  48.9894867
  51.1160049   5.9569521  48.4534187  -0.0643689  50.3868332  44.0686760
   0.4939203  49.8855057  43.4743576   0.4486382  50.4615135  44.8733368
  77.4665451  40.2675400   6.0304360  77.7024994  40.8276176   5.2909303
  77.5322342  40.8398628   6.7948737  45.1268387  10.2228880  33.3738708
  44.9063492   9.3040934  33.5269470  44.7904205  10.4070330  32.4968643
  82.8751984  12.7410955  62.5150795  83.3173676  13.0938711  63.2872658
  81.9850845  13.0889740  62.5689468  46.4241447  11.3823576   4.0320220
  46.4709053  11.3278046   3.0775225  46.9789467  10.6658611   4.3403401
  49.4471283  67.5076904  27.6055145  49.3726234  68.1660614  28.2963371
  50.0255547  67.9068375  26.9556389   1.4754114  48.2175941  61.4145126
   1.0882716  48.4329834  62.2630196   2.1729152  47.5952797  61.6205330
  59.1634712  28.4366798  82.5521545  59.8482704  29.0918751  82.6863174
  59.4924583  27.6528225  82.9921112  81.3487473  45.7042084  48.0380211
  81.1513367  45.3321114  47.1784821  80.5214996  46.0883217  48.3284569
  56.9486542  61.7806778  24.3480968  57.0423584  62.7313805  24.4082088
  57.6818733  61.5019493  23.7995243  79.2807083  15.6080580  81.3073578
  78.7339172  15.0220032  81.8306122  78.6628418  16.2237301  80.9131165
  76.0613937  43.7434807  57.4400749  75.3460541  43.3311996  57.9243736
  75.7968750  43.6804543  56.5223160  11.5177011  56.7023392  43.0527229
  11.4059048  56.4497910  42.1362343  12.0945606  57.4655800  43.0221863
  68.8939133  54.5275879  47.0962563  68.8780746  54.1647682  47.9818878
  69.2495270  55.4095917  47.2050819  72.6152878  16.2427444  23.6371059
  72.0902939  15.5145741  23.3048725  73.4336624  16.1929474  23.1431198
  76.4732666  33.6858902  43.1259499  75.7073822  33.9629250  43.6288414
  76.2323837  32.8282738  42.7756577  17.5323009  10.8792295  59.8307228
  17.1755333  11.7666426  59.8687363  17.9536438  10.7538528  60.6810074
  63.0669937  10.7049656  58.4717941  62.3775787  11.3539143  58.6125221
  62.6213837   9.8614016  58.5496597  16.1713009  39.4839859  86.7681198
  15.3666916  39.9991570  86.8267593  15.8707628  38.5788574  86.6865921
  65.4861145  56.8519745  25.2045231  65.9419250  56.0159912  25.1065502
  66.1419830  57.4399071  25.5792255  68.6847229  22.8103447  13.1258745
  68.3789062  22.3429279  12.3485537  68.9311676  23.6769886  12.8027258
  51.4003830  45.1807518  36.9247360  52.0722351  45.7799759  36.5995026
  50.7845345  45.7434311  37.3941536  56.5114441  33.0509911   3.1938577
  57.1352463  32.5460052   3.7154830  56.7593269  32.8738708   2.2864361
  61.0562706   7.8997769  74.0372543  60.2061996   7.9825063  73.6050873
  60.8671455   7.4307747  74.8499680  29.0018158  32.7105103  10.0773020
  29.4347095  31.9164371  10.3908043  28.2786694  32.3917694   9.5372124
  23.7145634  41.5375900  54.0233116  23.1024532  42.2116776  54.3185387
  24.0097618  41.8414688  53.1649704  56.8217888  42.7608490  10.8790627
  56.0963593  43.3745537  10.9945908  56.9235077  42.6861305   9.9302197
  15.5322094  19.5375500  78.2398148  15.6454811  19.2809067  79.1549911
  15.4603329  20.4916954  78.2657776  38.7601318  15.0936518  11.2729607
  38.9730873  15.5572710  10.4630604  39.5728645  14.6501446  11.5158548
  47.1573868  40.9428253  36.6925468  47.3116074  41.8872032  36.6681023
  47.7537193  40.6201668  37.3682060   6.7458062  61.3355064  88.5293198
   5.8092337  61.2138023  88.3735962   7.0673966  61.7613029  87.7346497
  40.1533432  32.0731125  67.8448639  39.6693077  32.3238564  68.6316681
  40.8885536  31.5542259  68.1711349  74.5215988  20.9522209  44.4472008
  73.6849976  20.6816692  44.0688782  74.3547058  21.8278103  44.7960892
  84.9687119  34.6276817  44.9694519  84.3945618  34.8452187  45.7037926
  84.4134521  34.7212486  44.1953964  31.0116749  27.8592777   8.0658207
  31.5241318  27.1106453   7.7605872  30.3100662  27.4718685   8.5891666
  26.9536037  64.9637680  10.6074924  26.8119221  65.5146942   9.8376627
  27.7743454  65.2829361  10.9826574  57.8211174  18.5366478   8.5073709
  57.8066559  19.4425373   8.1985245  58.5475197  18.1331673   8.0322075
  41.3121376  39.3858795  49.6188011  41.6533051  38.9630508  50.4068718
  41.4581108  38.7464561  48.9216194   7.8863244   1.9021626   5.8003211
   7.9838104   1.6102854   6.7067075   6.9912715   1.6577941   5.5649567
  31.9424477   5.9275770   5.2308426  32.7959404   5.5509739   5.0164800
  31.3436985   5.1807661   5.2284374  77.9919662  11.6746750  26.7947788
  78.8852921  11.5615349  26.4701271  77.7339401  10.8030682  27.0947075
  40.8504486  47.1953011  24.6121807  41.6606560  47.2213058  24.1031418
  41.1315536  47.3317146  25.5169468  21.5531902  64.4357605  84.1819992
  22.2597313  63.8346786  84.4180756  20.7537556  63.9829140  84.4504547
  60.2636948  46.3104401  51.1206245  61.0054321  45.7652893  51.3830605
  59.8631096  46.5832977  51.9460411  46.6284065  11.0388298   1.2413716
  46.3665428  10.7457676   0.3685749  46.2924194  11.9328890   1.3046482
   7.8458185  61.8350868   2.0815821   8.7984867  61.7871628   2.1613200
   7.6836710  61.8260994   1.1382585  86.3129578  41.5853348  53.9307823
  86.1149673  42.3840599  54.4197311  86.5166092  40.9364471  54.6043549
  38.8041000  13.2354040  84.6316681  38.5792236  12.4121618  85.0651855
  38.1507454  13.8591413  84.9483871  47.1741714  16.5446453   6.9760122
  47.7360840  16.0305214   7.5558052  46.3115501  16.5143909   7.3897824
  38.8566704  62.6613960  64.4457932  39.7958870  62.6338654  64.2631836
  38.4443321  62.6509666  63.5820198  15.1941853  20.2932777  83.2709045
  14.2962952  20.5996742  83.3979721  15.7399950  21.0223846  83.5653915
  46.4914436  49.5033875   9.0404234  46.4936371  49.2135658   9.9526901
  46.0338974  48.8071976   8.5690413  12.1315956  45.9213142  76.8051224
  11.6106300  46.7112007  76.6605301  11.5518246  45.3384285  77.2953720
  65.2564011  12.6396627  40.2080383  65.3807449  13.5256491  40.5483322
  66.0337296  12.4770517  39.6736679  66.7599945  34.5406570   4.9298711
  66.2311707  34.9647369   5.6056890  67.4724579  35.1572495   4.7612200
  69.8498840  45.7617836  77.9418030  69.9958878  46.6683578  78.2120667
  70.6335754  45.5314369  77.4428101  22.0484600   1.1459024  78.2658386
  21.1444798   0.8882079  78.0851669  22.4652519   1.1772399  77.4047165
  71.6031265   9.2483149  85.9765854  72.1866837   9.5342903  85.2737961
  70.7228546   9.4161959  85.6401825  49.8803749  46.6687355  39.4067879
  49.1756821  46.1288033  39.0488625  49.4623413  47.1792641  40.1002159
   2.3815110  36.7293282   6.7671938   2.0181904  37.4332581   6.2298741
   3.3206606  36.9117813   6.7978678  62.9503593  39.7180519  53.9473038
  63.7372627  39.5774078  54.4738350  62.2261086  39.5263138  54.5430641
  56.4677963  48.7697716  38.7638817  55.7355118  49.3742905  38.8844948
  57.2475586  49.3191490  38.8438148  61.4362946  62.0369339  40.4498520
  61.0283737  62.2815361  41.2805138  62.0498810  61.3394279  40.6805611
  47.4749680  46.8151360  62.8002815  48.1304855  47.2026711  63.3802338
  46.7513657  46.5789642  63.3806725  45.7741928   2.9794421   5.4390888
  46.1725464   3.8406522   5.3131423  46.4996758   2.3630557   5.3392239
   4.6359801  19.3250732  29.6989021   5.2291317  19.5882683  28.9952469
   4.6209154  20.0756321  30.2927589  19.1721363  69.3298798  73.1858139
  18.2837048  69.6409760  73.3594284  19.4433060  69.8055344  72.4006653
  24.5839176  46.3635864  21.5453014  25.1110420  46.6770363  22.2802315
  24.2584934  47.1605949  21.1268368  81.9214325  54.0104332  21.2246304
  82.8570862  53.8892021  21.0631142  81.4942780  53.3860397  20.6382008
  39.5508499  56.4759789  30.1389103  39.6624451  57.2385368  29.5712109
  38.9577827  55.9015694  29.6546021  61.5511894   5.5028596  68.0168762
  62.0956192   4.7892184  68.3493576  61.8874512   6.2847161  68.4548950
  57.0459633   5.2006822  42.8657722  56.3400497   4.5718288  43.0156479
  57.7478600   4.9169364  43.4514847  77.0906219  61.0996590  15.9342670
  77.1382599  60.4482765  15.2345104  76.8045273  60.6054497  16.7024689
   7.9185925  49.6353493  84.8768387   7.4306493  50.2107925  84.2877731
   7.6319599  48.7529297  84.6414490  13.9988909  57.4159813  55.8940163
  14.1385622  58.1650467  55.3146820  14.2093182  57.7462120  56.7674599
  28.1205769  69.8449554  77.5892868  27.8002224  69.4533157  78.4018326
  28.1171017  70.7868500  77.7597504  67.1477509  61.5577850  16.3707390
  67.8491135  61.7028389  15.7356939  67.5845032  61.1578674  17.1227684
  74.5877914  59.6238556  82.5054779  73.6423874  59.5533409  82.3733139
  74.8062210  60.5065994  82.2066650  79.0774994  17.4903984  57.5003967
  78.6411819  17.8821335  58.2569695  79.3090820  18.2350636  56.9453506
  10.4700994  24.4002705   2.4495585  10.5748234  25.3367767   2.2815709
   9.8055725  24.1171169   1.8214983  31.9841442  69.5733414  70.8186188
  31.9419956  70.3598480  71.3625488  32.5805283  69.8059692  70.1069717
  67.7349777   5.6983070  36.7290955  68.2219315   5.2689276  37.4324722
  68.0778732   6.5918021  36.7112007  24.7801971  45.4046745  79.0677032
  24.6331120  44.4634171  78.9748230  24.6443501  45.5775452  79.9993134
  22.4308395  14.2600355  64.8688507  22.4809341  13.9078445  63.9802094
  21.9937267  13.5744238  65.3739243  41.3076935   4.2010336  20.7579861
  41.0988121   3.2730258  20.8647652  41.8037834   4.4269519  21.5448055
  47.1744690  13.5288286   8.7113943  46.3356323  13.9896727   8.7258635
  47.8266411  14.2217102   8.6073875  29.6081600   4.5474191  82.6482239
  30.2198296   5.2038355  82.3147430  28.8112526   5.0402064  82.8440094
  79.8570099  12.9361439  42.3859520  79.4063721  12.0966005  42.4771690
  79.5867538  13.2609663  41.5270653  43.3301468  32.4562454   3.2209980
  43.4434357  33.1717377   3.8466702  42.4777641  32.0795898   3.4396431
  56.4407997  38.9538116   6.2966638  56.0882835  39.7074242   5.8233418
  56.2003746  39.1106491   7.2098060  65.0902023  26.4290638  54.0935860
  64.7590866  27.1081638  53.5058670  65.4224930  25.7476978  53.5091591
  73.1226654  38.5832062  35.9077797  72.2788773  38.1413879  35.8125801
  73.0621109  39.3426208  35.3282509   8.2870264  58.1850128   4.5798407
   8.8423109  58.9010582   4.2713437   8.8567724  57.6685944   5.1498685
  12.0499516  60.8625412   7.0674100  12.2508001  61.3100929   6.2454677
  12.1254644  61.5436821   7.7356730   0.6237376  36.1808395  48.3358994
   1.1184577  36.9974060  48.2673225   0.5862094  35.8475227  47.4393921
  48.9111137  26.2119884  26.6370144  49.6738777  25.7859879  26.2459297
  48.9750900  26.0081291  27.5700645  58.6183472  54.4722481  27.8677826
  59.4128227  54.3234940  28.3805332  58.7117920  55.3647919  27.5348148
  29.8586559  33.4839592  74.2044983  29.2983284  32.9657402  73.6268234
  29.9321728  34.3329086  73.7684860  35.9412880  59.0238762  17.7975979
  35.6322250  59.8705750  17.4753971  36.5406876  58.7136154  17.1188564
  77.0865707  16.6401443  45.2097397  76.7754211  17.3154240  44.6068993
  78.0407562  16.6868172  45.1498375  45.6967926  26.4522057  57.9464722
  45.3451118  26.7776089  57.1178207  46.1428452  25.6378098  57.7140312
   3.2892549  37.4790077  12.5935278   3.3486419  36.7532463  11.9722567
   4.0701251  37.3909302  13.1400776  40.1381607  61.7429276  34.2645721
  40.8230286  62.3191452  34.6039238  40.4585381  61.4707069  33.4046402
   3.4174104  39.0135651  69.1935425   4.3685322  39.1039886  69.1350403
   3.2462344  38.8820076  70.1260757   7.9902472  59.8844223  67.8379288
   8.1096840  60.5848389  67.1965332   8.8552256  59.7700958  68.2315979
  44.9379768  58.0281601  43.6168137  45.4763985  57.5594864  42.9791031
  44.0723801  58.0752220  43.2109032  80.9647903   4.9891076   4.5792003
  80.5106277   5.7288942   4.9825344  81.8086929   4.9518428   5.0293980
  59.5739326  11.0173168   8.7300644  59.6271629  10.5625734   9.5706635
  59.2845039  10.3457994   8.1123829  77.8190689  24.7433434  27.6142197
  77.0569916  25.2329521  27.3047733  77.5259399  24.3330765  28.4278488
  78.8598480  13.0717249  82.2116699  78.0701218  12.6476851  81.8758774
  79.5611191  12.4437542  82.0381546  83.7572098  34.1606102  48.3410492
  83.9104156  35.0278397  47.9659882  84.0731125  33.5517159  47.6734581
  82.8560410  54.3639717  68.9348373  82.2964249  53.6897316  68.5495300
  83.3643036  54.7031860  68.1980667  67.7989273  38.4856606  20.7123756
  68.1520615  37.6383095  20.4412212  67.5963821  38.9344788  19.8915424
  15.3764210   2.9810503  10.9624891  15.4769726   2.0453081  11.1371546
  14.6476040   3.0323060  10.3440800   6.9930234  65.3793869  88.7125320
   6.5440240  65.9885483  89.2986679   6.3676500  65.2229080  88.0049667
  76.4374924  16.5027084  26.3522797  76.1984329  15.9827328  27.1195507
  76.9305191  15.8982725  25.7974682  61.0418396  10.4031744  38.7559280
  61.9849777  10.4967918  38.6219101  60.9585915  10.0742025  39.6509590
  57.5568771  66.4176331  67.3077316  58.4008369  66.8314438  67.4886246
  57.3330727  65.9646683  68.1207352  73.0501556   0.7318235  33.3918839
  73.0549240  -0.2146636  33.2491570  73.7486877   1.0627066  32.8272552
  71.1877441  65.5791321  87.2190399  71.6491776  64.7410278  87.1890335
  71.8713303  66.2340927  87.0777359  21.1542206  50.5025635  14.0788202
  21.2155552  50.0327301  14.9105215  21.5791492  49.9244270  13.4452381
  71.3749924  42.0450745  58.6782722  72.1993484  42.3290710  59.0732651
  70.7641678  41.9888306  59.4130936  24.5785522  36.0937805  79.8280411
  25.2390251  36.7865334  79.8379669  24.9022694  35.4634209  79.1845474
   1.5852336  68.6641693  85.0334320   2.2036343  69.3944702  85.0115814
   0.7340519  69.0755005  85.1835403  76.9866333  17.6021824  52.4943352
  77.2401886  18.3031082  53.0948753  77.3893051  17.8440151  51.6603088
  52.5980721  36.9039841  10.1326399  53.2705307  36.5116959   9.5757351
  53.0828896  37.2677231  10.8735018  68.9935303  12.8312845  86.4313583
  68.7233505  12.2834673  85.6943817  69.5385056  12.2571039  86.9694595
  81.0180054  13.1906967  72.2480774  81.7552032  13.6067371  72.6949234
  81.1409302  12.2543211  72.4040298  18.7692604  45.5783005  61.2060242
  18.2948303  45.9295311  60.4525070  19.4175377  44.9855156  60.8258018
  63.3668289  19.1395683   7.6959085  63.1694260  19.0567684   6.7629523
  63.0779839  18.3100872   8.0763788  51.0991249  45.6962471  56.2115669
  50.4279327  45.4604301  56.8519745  51.6086426  46.3836136  56.6406937
   6.4423642  47.6599197  38.5928421   6.9684134  46.8998680  38.8414879
   5.7571015  47.3025246  38.0281143  49.1867676  71.3872604  49.8072395
  49.8423004  70.8530960  49.3587074  49.6731873  72.1492920  50.1217766
  13.2014122  32.5796776  70.3121414  12.6083984  33.0118027  69.6974640
  12.6321754  32.0214691  70.8418655  59.8343124  15.5981731   4.1253314
  59.6054001  14.9450932   3.4640300  59.3999329  15.2943983   4.9223695
  27.8533344  59.2163849  54.9623566  28.7286777  58.8334427  54.9043694
  27.2629547  58.4631081  54.9785194  74.4080582  37.4674034  64.0623169
  73.9935074  38.3048592  64.2697906  73.8271790  36.8108673  64.4467316
   1.2188916  63.1476555  71.7078781   2.1700194  63.2533112  71.6872635
   1.0825324  62.2005310  71.6835403  71.8081970  54.2117958  64.5227890
  72.2620392  54.7080231  63.8415947  72.4448929  53.5552483  64.8052673
  26.1099262  21.5934525   9.7722874  25.9615574  20.9996376   9.0363522
  25.6184864  22.3830223   9.5457954  49.5291443   2.0018489  45.3179665
  49.9946823   2.1577277  46.1396790  50.1959724   1.6507927  44.7277679
  36.3279419  23.0839386  14.8431568  36.8669624  23.0709305  14.0522594
  36.3921661  22.1946602  15.1914282  71.8855515  31.1682606  25.9161739
  71.6097946  31.0721951  25.0046024  72.7891312  30.8525982  25.9276028
  74.9494476  27.8725338  15.4153671  75.0623016  28.2817593  16.2732887
  75.5285187  28.3675575  14.8358364  33.2403336  56.7012939  63.7679901
  32.5133934  56.8153725  63.1557999  32.8507195  56.2603226  64.5229568
   4.7020621  47.5067902  20.9215374   5.1107273  48.3706932  20.8677197
   5.0880051  47.0137405  20.1975327  47.0726395   3.7881749  35.9517403
  47.8846207   3.3012681  35.8108902  46.4015388   3.1123192  36.0470085
  79.3699875  19.7970886  35.5797462  79.8574142  20.0616741  34.7995949
  79.4850540  20.5238361  36.1919785  24.7256165  41.4942589  24.3364162
  23.9360847  41.1106033  24.7180977  24.4213085  42.2971230  23.9132919
  40.4771805  42.4769058   3.9039075  41.3676796  42.1326599   3.9726977
  40.5782890  43.3138466   3.4505422  45.6671257  70.8705215  83.1141052
  44.8064880  70.6019592  82.7925415  45.6391296  70.6890717  84.0535355
  65.7362595  22.3579159  76.0460358  66.6042099  22.2339001  75.6619568
  65.2019501  21.6641159  75.6595306  66.5643997  18.3087845  58.9087410
  67.1547852  18.9011803  58.4431801  67.1459961  17.7231064  59.3934708
  54.3586769  56.0939827  23.1869659  54.0322685  56.9464111  23.4751549
  53.6295128  55.7106171  22.6995411   5.8961501  10.0285940  36.7047920
   5.0140576   9.8281193  36.3918152   6.1742630  10.7756805  36.1749344
  41.5879364   0.9268096  76.4805908  42.2246552   0.6709102  75.8132629
  41.2486496   0.0979024  76.8182755  58.1239090  28.6683521   2.5873468
  57.3000717  28.9910355   2.9525855  58.6357460  28.4006805   3.3506343
   4.2030568  32.7576866  43.3900642   4.1632652  33.6887970  43.1717110
   3.4435363  32.3758316  42.9501228  55.0119324  20.9965630  72.5698853
  54.1677895  20.7777691  72.1751938  55.6144981  21.0568562  71.8285980
  17.9747410  17.0170097  82.4934464  17.2672310  17.2105732  83.1084213
  18.1202393  17.8410549  82.0286789   6.0977063  48.9297104  57.6877937
   6.2089109  48.2001610  57.0781898   6.8613834  48.8799515  58.2627335
  81.3928070  -0.0109133  45.3249435  81.7454834   0.1982251  44.4600067
  81.1133804   0.8328977  45.6800995  32.1063423  45.4309616  14.2141199
  32.1690445  46.3740234  14.0626945  32.5109901  45.0368729  13.4413424
   4.2404785  67.6879425  65.2529678   4.8847961  67.9819794  64.6090546
   3.8900092  68.4961548  65.6273880  18.9140549  71.1332016  16.5714474
  19.0375023  70.4912491  17.2706528  19.6397743  70.9728851  15.9682388
  34.1107445  56.5325623  48.5695763  33.4811211  56.5221329  49.2904739
  33.8956757  55.7562866  48.0524902   7.0693040  41.2428207  55.9335175
   6.9264107  40.3840714  56.3314667   7.0679307  41.0734444  54.9914207
  73.0411987  56.9532280  35.8912086  72.6077347  57.3965416  36.6204681
  72.4352722  57.0517578  35.1567841  63.4510345  68.0742493  86.5199509
  62.7147865  68.6852646  86.4910812  63.0430489  67.2089615  86.5524292
  80.5322189  68.4594116  35.3418465  80.7851334  69.2250061  34.8259621
  79.9038544  67.9949722  34.7889481  47.7381439  40.0226746  33.6776237
  46.9804840  39.9508209  33.0970879  48.1952744  40.8087273  33.3786430
  26.9092541  38.1045609  58.9072495  26.8675175  37.7726860  58.0103989
  25.9995003  38.1054764  59.2048759  13.4725199  34.4666061  20.9779072
  12.6437960  34.4219017  21.4548244  14.0634775  33.8972740  21.4707165
  31.5196762   3.0222592  20.5851688  30.9169064   2.2913003  20.4487877
  31.8267822   3.2465479  19.7067547  23.9613914  23.5896568  70.3036728
  24.0783195  24.4809227  69.9747314  24.8517532  23.2539330  70.4074936
  77.3445282  27.5130157  67.9313965  77.6194534  28.2272644  68.5062866
  78.1561813  27.2027435  67.5299377  66.7955856  40.1413345  25.9636536
  67.3836899  40.1422119  25.2084293  65.9657669  39.8097153  25.6206436
  44.8336678  31.4625530  28.3619804  44.4774017  31.7990551  27.5397434
  44.5202370  32.0751762  29.0273285  66.6556549  26.6504936  59.1156273
  67.0455856  26.0436230  58.4864235  67.1812820  26.5439854  59.9084702
  45.3347473  53.1728401   0.7288500  44.8198090  53.9518051   0.9392865
  45.0349503  52.5117760   1.3528258  61.0871620  65.3412247  67.8194427
  60.8826370  64.6163635  68.4101868  61.0575066  64.9531708  66.9449387
  21.3192863  50.1865883  71.5567856  20.3942356  49.9728470  71.6785431
  21.5507240  49.7814522  70.7210007  61.5224113  34.2634239  35.8883171
  60.5691681  34.3503685  35.8888168  61.7877274  34.5404472  35.0113335
  53.5154533  62.9190559   6.6722598  54.2898178  62.3578529   6.6317596
  53.0436211  62.7351379   5.8599925  41.1455421  52.1013451  57.0582924
  40.9622383  52.3362923  56.1486626  40.4995422  51.4262810  57.2661438
   4.3812213  56.1912918  68.8756104   4.5333571  55.6948204  68.0714874
   4.9087873  56.9831810  68.7716064  46.3983459  26.1339645  60.4851494
  46.1351318  26.3829498  59.5991707  46.3249092  25.1796665  60.4975471
  56.0543976  51.7021484  37.3829308  56.9466400  51.7232819  37.7288857
  56.1525688  51.9121361  36.4542198  44.4349785  13.6487226  83.5399323
  44.7873459  12.7606249  83.4820404  43.7065659  13.5776482  84.1568527
  65.8785248  40.4790916  54.6536407  66.7227097  40.3123016  55.0728798
  65.6787109  41.3895378  54.8713493  53.9383736   3.8756709  12.1251125
  54.1224060   3.7009101  13.0480547  54.7308540   3.5974195  11.6660032
  36.7745667  60.6762161  74.3580322  36.2720795  60.0494690  74.8785477
  36.1123619  61.2343826  73.9504013  31.0087757  52.1830025  80.3490448
  31.6689739  52.5746918  80.9208450  31.5028839  51.8724594  79.5903244
  81.4021835  12.7410507  75.8570786  80.8728180  12.0836735  75.4055710
  82.1325455  12.2464008  76.2287292  80.8440781   6.3141246   2.0318344
  79.9177475   6.1117239   1.9008119  81.1789703   5.5804162   2.5473466
   6.8353276  57.5316238  62.0909805   7.2075830  57.6043663  61.2121353
   7.5026064  57.0669823  62.5960312  18.7137928   4.1685286  17.8315659
  18.9139748   4.4584761  18.7215595  17.8369446   4.5116467  17.6594105
  11.6178789  57.7110100  73.2772598  12.4300098  58.2055092  73.1670609
  11.9043598  56.8327484  73.5279007  68.0485001  62.5419731  40.3302460
  68.3850098  61.7308235  39.9494209  67.1617889  62.6218071  39.9786797
  53.4310722  62.8753242  13.1475077  53.0431747  63.1039314  12.3028164
  53.8985214  62.0564575  12.9826412  26.9958248  68.1176987   5.0154204
  26.0985832  67.9596710   4.7217984  26.8976955  68.5400696   5.8687673
  55.8706093  44.0862923   2.3910120  56.0530052  44.4029083   3.2757246
  55.3296471  43.3075676   2.5220897  57.3832970  44.9557915  62.0370064
  58.0266876  45.5620308  61.6699142  57.8019562  44.0970840  61.9771957
  82.0619354  63.8270607  10.0591946  82.9231949  63.9256325  10.4650946
  82.1326218  63.0268402   9.5387297   0.4206145   8.9662170   2.3890917
   1.1871961   8.3930159   2.3840055  -0.1825810   8.5650377   1.7634380
  67.7702026   9.3799601  15.6780033  68.6206360   8.9860449  15.4835043
  67.9784546  10.2675152  15.9697390  34.5528069   2.1733108  83.6896820
  35.3701019   2.5600615  83.3755417  34.6360703   1.2411942  83.4885406
  78.0261993  54.0330276  72.8090286  78.8544235  54.4725380  72.6164169
  77.8219070  53.5464020  72.0104752  65.6055679  15.8705273  51.0203972
  66.5252914  15.7436934  50.7874832  65.2150345  15.0006809  50.9362488
  46.0377464  21.5759583  61.5187874  46.0350876  20.6710396  61.2067871
  46.4040833  21.5238609  62.4015770  64.1790466   7.0659719   9.6868687
  64.0388336   6.8412619   8.7670450  64.6726913   6.3265247  10.0415068
  58.3502274  18.6737900  73.4305420  58.4362564  17.8157024  73.0151901
  58.9347763  19.2422581  72.9291611  21.5217209  24.9730339   9.7500172
  21.0323372  24.4080753  10.3479767  20.9508114  25.7291603   9.6137629
  52.1793442  46.1330566  50.2808075  51.6719131  45.4879723  50.7733650
  52.5827980  45.6306267  49.5729790  16.4929638  14.0554209  13.3958759
  16.5387917  13.0993261  13.3920355  17.2585258  14.3339243  12.8933001
  39.8033714  30.1650009  20.7438850  39.2203064  30.1056519  19.9870834
  39.9003830  29.2609196  21.0429764   1.3977085  30.4468689  44.9915314
   1.6427753  30.0167503  44.1722794   0.4459522  30.5350456  44.9403763
  48.7502670  70.4835358   5.9990392  48.0250854  70.1921310   6.5516930
  48.9314384  69.7368393   5.4282064  34.6280937  17.0700417  71.6690598
  34.0046158  16.4198742  71.9927673  35.4769936  16.6298332  71.7116928
  62.3209496  49.4734955  65.6897964  62.0031776  48.8817406  65.0078278
  62.2228432  48.9771652  66.5023651  32.5381660  58.4832840  78.1540070
  33.3424835  58.3223686  78.6473770  32.4015007  59.4283524  78.2203598
  30.9650497  43.0936928  72.3032074  30.5531311  43.3847389  73.1167526
  31.7240734  42.5846634  72.5878220  54.4501686  22.7011852   7.9600205
  53.6348610  22.5137157   8.4251671  54.1706924  23.1211529   7.1465387
  48.0477180  10.5628176  52.4039536  47.2061729  11.0165443  52.3573723
  48.0755730  10.2000942  53.2893295  15.6441212   8.7699432   5.4573178
  14.9677649   8.7332125   6.1336493  15.6125994   7.9090495   5.0400643
  45.0058060  58.8617439  84.0276566  44.2230644  58.3155212  84.0997009
  45.6825752  58.3734779  84.4964981  62.7315712  22.2148399  79.3171310
  62.9934006  22.6130543  80.1472473  62.9037399  22.8912926  78.6621475
  18.9172955  52.6322250  62.5407372  18.5546131  51.7834053  62.7941093
  18.1920071  53.0832024  62.1085243  43.9018326   2.7514007  84.7783661
  43.4706192   2.0138428  85.2099838  44.4907913   3.1072729  85.4437332
  18.4623299  64.8824692  43.2351227  18.5911198  65.8271942  43.1505814
  18.2041836  64.7567062  44.1482353  41.0799599  53.3939323  43.4558907
  41.1744232  53.4038239  44.4083672  40.9185104  52.4753036  43.2407455
   3.0214019  19.0095406  81.0462723   2.7122796  19.4761162  80.2697525
   3.0011165  19.6650810  81.7434692  54.4370575  39.0836945  29.4429474
  55.2678719  39.2002106  29.9038181  54.1473007  39.9737625  29.2428226
  63.6153717  28.1521664  13.2076159  62.9545670  27.6298428  12.7529249
  64.3964767  27.5989170  13.2121840   3.2784178  53.4347153  56.3273582
   3.4387362  52.5310364  56.0555267   2.4446352  53.6639671  55.9168930
  70.4835663  40.2202911  65.5591660  69.5744705  40.4483070  65.3647919
  70.5193939  39.2693863  65.4555893  29.0015984  67.2931824  51.9415359
  29.9067459  66.9830322  51.9142303  28.7137070  67.1133957  52.8365364
  32.0097923  46.8340034  51.6410751  31.6177464  46.1885567  52.2292366
  31.2684460  47.1998215  51.1585693  72.0221252  30.9710903  83.7842484
  71.5681763  31.7651825  83.5021515  71.3316727  30.4169579  84.1481781
  85.6433182  28.6206894  44.1493568  85.2768631  27.7690792  44.3874855
  86.1626816  28.4468956  43.3643188  66.4496613   2.0743833  78.8049164
  65.5586700   1.7570792  78.6576920  66.7109680   1.6775895  79.6358871
  71.6486816  21.2388115  43.9632339  71.6944504  22.1406708  43.6457672
  71.0721893  20.7949162  43.3412666  81.6702347  59.5074539  19.0236187
  81.0754242  58.8713684  19.4208927  82.0107498  59.0641594  18.2465916
  77.2327347  65.8105240  13.4467144  76.9479294  65.2964401  14.2022524
  76.4406509  66.2581253  13.1492481  59.1269112  48.5515671  73.7435837
  58.9738617  49.4962921  73.7262497  59.3535843  48.3623161  74.6540985
   6.0423012   3.8088355  36.0439224   6.5280557   4.6329470  36.0773087
   6.4306750   3.2736876  36.7360306  79.8251190  48.0451889  24.8616333
  80.6919098  47.6410980  24.9018192  79.7263031  48.3096123  23.9470043
  68.2218781   0.4675791  49.2461472  68.4956589  -0.0600218  48.4958725
  68.7948837   0.1855548  49.9591370  48.2423706  41.3727341  52.8013611
  48.1336746  41.1855164  51.8689613  47.8088913  42.2166595  52.9283218
  72.8037262  47.0073204  26.7527657  73.6305923  47.3939896  26.4646473
  72.6569290  47.3770599  27.6233845  78.9487915  51.1736374  32.9234161
  79.3021698  51.4143066  33.7798195  78.4777679  50.3552055  33.0800743
  82.8692780  17.1157417  78.1935959  82.8208847  17.2886715  77.2533875
  83.0983429  16.1883907  78.2550812  54.6184464  36.7736206  45.2803650
  55.4590530  37.0959587  45.6054993  54.0966415  37.5638657  45.1408615
   3.4994843  19.0828037  20.9977741   4.4098530  18.9307022  20.7441502
   3.1587551  18.2117138  21.2010899  78.2625046  46.4618225  31.1350899
  78.3038254  47.2101707  30.5396881  78.2390518  45.6980743  30.5585766
  82.5867157  12.1859598  38.4866257  83.3809891  12.6082153  38.8138351
  82.3971863  11.5019064  39.1287918  85.7257614  12.1893282  28.0127010
  85.9927597  12.0856991  28.9260483  84.9903107  12.8010731  28.0460930
  37.4360199   4.4372954  75.8170776  37.6637840   5.3446460  75.6144180
  36.4928055   4.3867731  75.6620789  25.9554729  50.3314667  35.4715042
  26.4122810  51.1126480  35.1595535  25.0993042  50.3683586  35.0450706
  33.0489731  35.2538414   3.0046272  32.9161530  34.3065338   2.9700637
  33.9622688  35.3772392   2.7459733  75.2351074  69.6141281  83.6108170
  75.8296432  69.1587906  84.2069931  74.3871078  69.1924896  83.7499084
  82.7765808  44.0825958  83.2097397  83.2679214  44.2900620  82.4148941
  82.2864532  43.2907257  82.9885025  22.3258038  62.0285568  52.0128479
  23.1457081  62.2931938  52.4299278  22.4528561  61.1040039  51.8000374
  72.5773697   2.9207354   2.9914761  73.1811218   3.6394587   2.8039668
  73.0662613   2.1308448   2.7606287  15.0958652  31.6599865  77.2857819
  14.7308016  31.2540455  76.4995422  15.9855652  31.3117504  77.3440628
  45.6456108  37.6162186  65.2464066  44.9084892  37.0457611  65.4642563
  46.3754120  37.0162888  65.0924301  20.5109329  44.8342934  74.7282639
  21.4082241  44.9907036  74.4339218  20.2475624  45.6566582  75.1412811
  16.6345139  63.9948235  80.9003677  16.4442806  63.3008385  80.2691498
  16.3444538  63.6402473  81.7408218  68.8883286  16.8420525  45.4209442
  69.3208923  16.1230316  45.8815155  69.3503876  17.6271362  45.7148361
  42.7676735  11.2462921  81.1472397  42.1875572  11.7599030  80.5851898
  43.6461906  11.5640697  80.9387741  35.1053925  44.4918709  23.7046394
  35.6936798  43.7462540  23.8238335  34.4763336  44.1977119  23.0458603
  59.8450928  61.2680130  16.2835960  59.1931992  61.8750381  16.6340065
  59.9260139  60.5900040  16.9544067  82.8235779  31.3634205  76.0241547
  82.2428436  31.5472221  76.7625275  83.3016434  30.5764351  76.2855606
  42.6239433  21.6598129  61.9533005  43.4204712  21.1451340  61.8233795
  42.3850975  21.5049152  62.8671913  84.9268875  35.7049294  68.9476318
  84.9513550  35.0708199  68.2310181  84.1709290  35.4432716  69.4732742
  38.1046982   1.0282598   9.0070705  37.5923462   1.4635873   8.3257351
  38.4445648   0.2396852   8.5841379  19.6849785  32.6078224  62.7800865
  20.1348896  32.6768150  61.9380341  18.8937283  32.1044464  62.5883408
   6.8282928  50.0156593  36.6652908   6.6803694  49.5749550  35.8285561
   6.7909002  49.3140984  37.3154030  -0.3026752  51.2490273   4.9142098
   0.0895769  52.0610466   4.5932808   0.2951275  50.5617065   4.6201725
  44.7372246  39.4058800  88.0642242  45.6467171  39.1552391  87.9022446
  44.2677116  39.1243095  87.2790451   4.7515092  64.3774719  77.2963791
   4.2628441  65.1955566  77.3868179   4.1690822  63.7093697  77.6578369
  72.1284866  70.0715485  28.1999340  72.2203827  69.9685135  29.1471252
  71.2974701  70.5333862  28.0887527  15.6008930  62.4188614   5.4649153
  15.6690149  61.4811935   5.2850018  16.1021919  62.8344040   4.7633042
  80.1014252  42.8470688   8.2208366  80.3559189  43.6310844   7.7342310
  79.2116318  42.6584206   7.9226694  46.9453506   0.9640608  45.3704948
  47.8274307   1.3205566  45.2652397  46.7788544   0.4920385  44.5545845
  85.6772385  70.9296265   0.3977874  86.0859070  71.7385178   0.7058847
  85.2796326  70.5488358   1.1808159  31.3132477  45.4306984  37.6290970
  30.7967987  45.5813293  36.8373756  31.6871433  44.5578079  37.5086975
  84.3930206  61.3594208  80.4267883  83.9040680  61.7017746  81.1750870
  84.9893951  62.0682831  80.1857834  47.0743027  66.2012100  77.3776703
  47.6097870  66.6184845  78.0524750  47.1568756  65.2636719  77.5521469
  58.7004814  29.5998535  -0.0364916  58.3689232  28.8354588  -0.5076635
  58.5432129  29.3992786   0.8861502  57.6879616   2.7614846  13.7725687
  57.2004547   1.9400036  13.8337135  57.3751640   3.2813046  14.5129585
  85.5732269  38.0839577  76.6433563  84.9010849  38.7635307  76.5920639
  85.9468918  38.1822701  77.5191116  28.2055912  58.3466911  81.7064056
  28.7817764  59.0201225  81.3448257  28.6539516  57.5220184  81.5190048
  19.0842285  37.3059654  45.5275688  19.9311638  37.5526123  45.1559563
  19.2819386  36.5697327  46.1064529   9.3578577  42.7121391  56.8595467
   8.4955206  42.3261719  56.7058029   9.8541107  42.5137062  56.0654488
  66.9443817  36.6427841  59.8299332  67.5789032  37.2129250  60.2641563
  67.3928680  36.3440475  59.0388298   7.9552212  50.1940613  14.0645981
   8.2911501  49.3083153  13.9273586   7.0255222  50.1343575  13.8447638
  63.3493500  64.1178131  44.9512024  62.5276070  64.5933609  44.8294525
  63.5141296  63.7035904  44.1041527  67.6524582  15.7396545   9.6951761
  67.7231598  14.9049082  10.1582441  68.3147583  15.6880941   9.0060205
  53.4427032   4.1612930  27.5450344  53.6467133   4.5600276  26.6990891
  52.5423317   4.4310780  27.7260742  82.5432892   9.1257257  69.5670319
  82.1191940   8.3836689  69.9979935  83.4775772   8.9946585  69.7287827
   9.3232079  51.7656784  37.3621445   8.5648079  51.5849190  36.8068161
   9.6374941  50.9012489  37.6271362  43.8091507  65.8315430  71.7665939
  44.0879097  66.7376556  71.8988342  44.5068741  65.4406357  71.2406616
  17.9409084  23.0575619  57.1963005  18.5916920  22.3598366  57.2730560
  18.1096573  23.4492702  56.3393745  69.9181671  57.3755112  77.7448502
  69.5356064  58.2291374  77.5418549  70.6846466  57.3148689  77.1747055
  34.4212914  53.4422646  43.7013359  34.4750175  52.7690849  43.0229721
  35.2423744  53.3596191  44.1863403  13.5774708   7.5338864  69.5618591
  14.5051861   7.3213749  69.6639099  13.3221464   7.1056924  68.7447357
  80.1355820  24.6088657  30.8778515  79.8684387  25.1295109  30.1203594
  81.0794296  24.4932575  30.7681847  29.6353531  21.3345928  70.4052963
  29.2058315  21.7929077  69.6830139  30.0694008  22.0268784  70.9038696
  17.0841866  55.9742813  43.9664688  17.4261284  56.2115517  44.8284492
  16.1722565  55.7328377  44.1287193  63.6296883  10.0766373  67.2124863
  62.9533310  10.0632334  66.5352936  63.9346199  10.9838257  67.2285233
   5.0255232  16.5439072  64.4913864   5.3428950  17.3862915  64.8168030
   4.8830733  16.6868801  63.5557022   4.3427029   8.4774666  74.5150299
   4.9710493   7.7635303  74.4068298   4.3032470   8.8943148  73.6542664
  83.7786331   2.1885784  64.7233353  84.2036972   3.0462101  64.7184753
  83.6124573   2.0088599  65.6487122   7.3821750  68.6108856  78.4171829
   6.6305556  69.1799164  78.5830231   7.5853529  68.2276840  79.2704773
  26.2779522  55.8930130  15.6926365  25.9553604  56.6242905  16.2193279
  26.1318874  55.1211548  16.2395630  76.9170609  63.9357224  69.1186218
  77.7462311  63.6399498  69.4944305  77.1500702  64.7065048  68.6010971
  67.1220703  18.1959877  86.4888840  67.9376602  18.1180687  85.9939270
  67.1412659  17.4592533  87.0996857  29.3493710  35.1230278  55.6319695
  29.8554859  35.4898567  54.9070435  29.9469109  34.5047112  56.0525169
  41.0376320  71.0302353  33.7719116  40.9225121  71.9730911  33.8902130
  40.1687546  70.7116776  33.5273552  75.1758347  40.4222527  46.3018761
  75.6073837  39.8188934  45.6969337  75.6327896  40.2954063  47.1333427
  21.9555798  39.5637207  76.7958755  22.5774689  40.2682228  76.6137619
  21.3067322  39.6299591  76.0952759  26.8080826  34.7600250  75.6956024
  27.6745491  34.3559113  75.6491470  26.3776340  34.3201485  76.4287109
  81.5486679  69.3928375  67.9013214  82.4158173  69.2606049  67.5181732
  81.0480576  68.6225204  67.6325378  12.3916082  49.9734650  54.4006577
  12.5057001  50.6692276  55.0480614  11.7708178  50.3345795  53.7678490
  60.6444626   6.5619626  14.7885103  60.5285072   7.3006573  14.1909180
  61.4098778   6.0976605  14.4496965  -0.0127453   7.0282264  10.3251867
  -0.0153871   7.3425751  11.2292938   0.1292938   6.0845938  10.4001169
  57.4200821  55.4861450   4.5077405  57.8126411  55.9428978   3.7637618
  57.4992676  56.1023102   5.2359605   6.5819011  57.7119713  35.3919220
   6.8080921  57.7458076  34.4624481   6.4246874  56.7840576  35.5665398
  57.6480675  21.4943371  19.6292992  58.1767387  22.2016315  19.2598820
  58.2601128  20.9951839  20.1701107  15.5910254  49.4559250  20.7067699
  16.2956314  49.2325821  21.3149490  16.0101910  50.0085526  20.0471249
  11.7350292  53.8781242   4.1447902  11.8627796  53.8812943   3.1961589
  12.6093006  53.7262383   4.5036941  44.4128304  50.5737724  71.0194550
  44.0720329  51.4681740  71.0079422  45.3565216  50.6754265  70.8955994
  60.0663185  11.1141071  15.0627947  60.8204231  10.6049719  14.7655678
  60.2799873  12.0173798  14.8289652  21.9288559  35.5046463  74.4374847
  21.1525841  35.0661621  74.7858582  22.4373550  34.8035126  74.0299683
  55.5373077  38.5600700  68.7078018  56.4687614  38.3417244  68.7386246
  55.1972427  38.0550842  67.9691696  19.3327198   1.0724200  13.5030937
  18.4556122   1.3820964  13.2772322  19.3320065   1.0274341  14.4592361
  54.2284203  45.0093575  46.5461769  54.4370155  45.7513428  45.9785652
  55.0725403  44.5892754  46.7111588  16.8495789  48.5129128  89.2791214
  17.3729000  49.0220604  88.6601486  17.1901302  47.6214867  89.2041779
   1.7096366  36.6834946  38.3077507   1.8555285  35.8078423  37.9497299
   1.3709344  36.5283737  39.1894836  84.5386429  15.5167856  37.1653976
  83.7940292  16.0986137  37.3178940  84.8055115  15.7003651  36.2646713
  44.2981377  58.3347549  53.9350319  43.4894218  58.8010254  53.7233658
  44.7776604  58.9342995  54.5067291  70.7327499  65.1530075  54.8114471
  71.3797836  64.9553299  54.1343193  70.2547989  64.3326035  54.9328232
  46.5415039  58.2077904  28.1566143  46.9459648  57.4906845  27.6683540
  46.9114838  59.0005875  27.7682610  52.8755684  16.5614738  57.6047478
  52.5750885  17.0097389  56.8141785  52.9849319  17.2604485  58.2495003
  11.7718840  60.0013542  53.3854828  12.0347967  60.7219124  52.8128510
  12.5728073  59.7612228  53.8514099  39.9621506  22.1452579  10.6100931
  40.5042381  22.9328384  10.5643673  39.4240875  22.1785889   9.8191395
  62.8188477  51.7959175  68.9595261  62.3793602  51.0164452  69.2993851
  62.3305283  52.0199661  68.1673279  63.1502724  40.6809616  23.4790745
  63.3056335  40.5639534  22.5418434  63.4848518  41.5572777  23.6697483
  18.1850948  51.9874344   4.4902849  17.7224979  52.2097054   3.6823049
  17.5876179  52.2533264   5.1892519  66.4550476  42.7916603   9.4535322
  66.1904144  42.1493988   8.7949734  66.9678268  42.2886353  10.0861864
  57.6296349  55.4738655  83.1733170  58.4066849  54.9245377  83.0700455
  56.9132156  54.9433403  82.8247223  83.4307251  47.8201637  63.2691650
  83.6829758  47.2980690  62.5075760  82.5725479  48.1775055  63.0409813
  49.3290710  33.6484985  60.0325279  50.0189972  33.1485710  60.4687691
  48.5434647  33.1110458  60.1335297   3.0385320   4.5985847   8.5916548
   3.0522480   4.0548668   7.8039904   3.8340008   4.3547001   9.0649214
  49.3542404   0.9465044  40.9708214  49.5640678   1.6184545  41.6194267
  50.1769829   0.4752912  40.8393631  62.5140762  17.0947895  80.4110336
  62.4416504  16.6303806  81.2448883  62.4167747  18.0185642  80.6421280
  35.5632133  16.6921120   1.2910767  35.5071030  16.0711651   0.5647787
  35.5898895  16.1426640   2.0744209  43.9569244  51.6326599   6.3185658
  43.8607101  52.0448723   7.1770859  44.1041489  50.7069473   6.5124969
   4.3537078   7.3564315   9.9505301   4.0138760   6.5502300   9.5622196
   3.9708307   7.3797936  10.8275080  19.6363678  25.4651718  19.0849323
  19.3164501  25.4044704  18.1848202  20.4111309  26.0242500  19.0265656
  62.1525841  58.8590698  42.8736115  61.4693909  58.7938881  43.5408669
  62.8203430  59.4197693  43.2685127   1.6926637  36.2101517  28.5016689
   2.0929708  36.8044968  27.8670521   1.3654714  36.7842407  29.1941986
   8.3230839  15.6775379   0.7100208   8.5651636  14.8582306   0.2783223
   7.6510582  15.4251690   1.3432059  53.5911255  35.6563454  82.7383423
  54.1370010  35.7780685  83.5151520  53.5695305  36.5186005  82.3232803
  70.4449539  71.1485977   2.0376399  69.8214493  70.5497437   2.4485335
  70.7694168  70.6701508   1.2747209   7.0894299   4.7124443  19.8436089
   7.9530621   4.8561254  19.4566631   6.8927803   5.5300870  20.3007984
  27.5215187  70.8626404  15.6333637  28.0763741  71.4124985  15.0801649
  26.8150215  70.5762482  15.0545120  64.1812820  26.4962139  56.5746765
  64.4903793  26.3669319  55.6780281  64.0531921  27.4418201  56.6498680
   6.4185448  21.6953583  69.2992172   6.8318276  22.3964958  69.8030396
   5.6144166  21.4974251  69.7792511  10.7771339  32.0887489  27.7371063
  11.2446394  32.0136185  28.5689869  11.3420496  32.6380730  27.1936512
  79.6648102  64.1776733  13.9655247  78.8240051  64.6020508  13.7947054
  80.3139114  64.7719498  13.5890598  60.3833313  14.0276356  30.1578007
  61.3359566  13.9684381  30.0854435  60.1513443  13.3681021  30.8115807
  54.5663948  65.6464005  37.9102478  54.9230614  65.7088089  38.7963219
  54.5823593  66.5453339  37.5817719  13.4166365  48.3997383  47.5659142
  13.8279886  47.5632248  47.7833099  13.5079327  48.4717827  46.6158066
  35.2215004   3.1625869  19.3681717  34.5059357   3.7983487  19.3713303
  34.7905922   2.3176270  19.2393494  17.8377075  26.0062141  83.9124832
  18.6104279  26.5555115  83.7805405  17.1107922  26.6260071  83.9731827
  65.5626526  65.9127579  36.7216034  64.9509811  65.4568405  36.1434860
  65.5854111  66.8093033  36.3870583  71.0643997   7.5909405  71.9308472
  70.4965057   7.4525690  72.6888580  71.1732407   8.5407438  71.8833160
  32.0802460  42.9542809  88.7158203  32.5138168  42.1511078  89.0042038
  32.7562943  43.6286201  88.7825241  44.4754944   3.7711706  69.5097351
  45.2384567   4.3488283  69.5305099  44.6547470   3.1633339  68.7923584
   5.1694884  42.5079994  33.5750427   4.9106698  41.8577690  34.2280731
   5.0470414  42.0657043  32.7350388  84.0423889  63.7550964  40.5042458
  84.4972763  64.4508514  40.0296669  84.6850052  63.4384499  41.1390724
  16.4073009  47.7597694  12.6620359  16.4986324  47.7494316  11.7092590
  17.0568180  48.3975487  12.9580011   8.0678539  66.3120346  52.9061012
   8.0755930  65.7399597  53.6735001   7.2067342  66.1725845  52.5120735
  53.4182968   5.5786986  15.3592825  52.6915436   5.7219028  14.7530203
  53.8181038   4.7603402  15.0648708  42.2156830  45.9261780  66.9159164
  41.7425880  46.7404823  66.7446823  41.5559883  45.2400551  66.8145828
  58.5902863  31.9697533  61.2162895  57.6365089  32.0086937  61.1453972
  58.8763847  32.8755875  61.0986290  52.9270363  43.1104355  22.0995827
  52.0240326  43.0672493  22.4141445  53.1471024  44.0414886  22.1303101
  57.0218620   6.9235454  25.3103218  56.9403152   7.0678601  26.2530594
  56.1228333   6.7909136  25.0096722  66.9827499   2.3491738  67.7130356
  66.4910660   3.0724201  67.3239441  66.4092636   2.0127733  68.4016418
  75.6842804  37.0772057  12.2671032  75.4059601  37.8945198  11.8538656
  76.1919022  36.6278877  11.5913315  35.0809288  65.7630234  46.9041252
  34.6551247  66.4289017  46.3641853  34.4336166  65.5498047  47.5762558
  31.6423721  61.7661133  70.6889420  31.8247261  60.8933754  71.0372391
  31.8901176  62.3625259  71.3954468   4.5505605  19.1561966  74.9745178
   5.0362687  18.9271431  75.7668915   5.0333505  18.7303467  74.2661438
  63.0310249  52.9167480  19.2596302  63.3105888  52.3456841  18.5441151
  63.4689484  53.7500191  19.0861015  68.0200729  60.4866295   3.8719447
  67.8465500  61.1231766   4.5654373  68.1530228  61.0179558   3.0869281
  48.1460838  57.7061882  46.3041916  48.2771568  58.4921341  46.8346062
  48.8461609  57.7377663  45.6521721  51.9683952  42.0479813   6.3978763
  52.0654259  41.0994911   6.4826393  51.4068871  42.1637459   5.6313639
  28.5605392  65.6309891  72.5671692  28.7272644  66.5208206  72.8780289
  28.9819832  65.5943527  71.7085190   5.6030574   6.0449238  17.7145081
   5.9949212   5.3691130  18.2676411   5.6726580   5.6969171  16.8255329
  67.4766922  19.5234051  29.5542831  68.3711472  19.4698830  29.2176590
  66.9615555  19.8467598  28.8151531  25.5263615  12.6185637   1.1140822
  24.9990997  12.9929819   1.8197998  26.4203835  12.9005709   1.3075511
  74.3988266   4.9706693   2.1736298  74.8579865   5.8096776   2.2119768
  74.9776382   4.4039631   1.6636763  81.7765884   0.2995104  36.0338783
  82.1398392  -0.4814467  35.6162834  81.3187637   0.7571634  35.3287659
  82.7653656  20.1273823  78.1418304  83.1664505  20.5436974  78.9047470
  83.1308212  19.2427502  78.1319275  49.3637009  60.7140045  76.1267319
  49.3759499  61.0238838  75.2211609  48.5050812  60.3031387  76.2276917
  60.9257851  25.2947636  81.0809784  60.7920990  25.9051189  80.3558426
  61.7661629  24.8776779  80.8911438  43.4868546  25.4109135  80.0843582
  42.7832909  25.2801838  80.7200775  43.2509766  26.2190666  79.6288605
  85.2204208  66.0188599  39.1712151  84.5140228  65.9831085  38.5262680
  85.9107208  66.5248032  38.7425690  85.1323471  44.0603180  49.7955589
  84.3679886  43.5357552  49.5571671  85.6711197  43.4719353  50.3244820
  67.5831604  15.1106157  70.5761566  66.8052826  15.6505899  70.7160187
  67.2567291  14.3331108  70.1232071  52.2854958  38.1263733  78.6009674
  52.5204887  37.2019463  78.5206757  53.1126556  38.5945053  78.4874344
  56.2042046  10.6416035  21.8568707  55.5535011  10.7174826  22.5547657
  56.8408661  10.0095797  22.1906986  53.6763496  62.9974060  48.0382881
  54.1412315  63.4244995  48.7578125  52.7528687  63.1874275  48.2035255
  57.1626511  16.4150600   2.7610772  57.2344322  16.9429626   3.5563118
  57.2968483  17.0382137   2.0470018  56.0301323  65.2418518   1.3026609
  55.5197639  65.0369263   2.0860910  55.9318619  66.1877060   1.1934218
   0.3625159  57.3020287  22.1797218   0.4149532  56.4515648  22.6158333
   1.1003016  57.7986145  22.5337124   7.8404603  31.8165340   5.9575644
   7.9754071  30.8803959   6.1047668   7.2104940  32.0763245   6.6297860
  47.3766594  60.2279663  12.1172476  48.2790298  60.5464325  12.1404905
  47.3421173  59.6622467  11.3458862  16.6748276  19.9422874  10.0067253
  16.9948921  19.2665100  10.6043167  15.8319817  19.6095772   9.6982651
  74.9740982  65.2564392  26.5283794  75.5024643  65.8502655  25.9950504
  74.2808990  65.8100281  26.8878765  40.8306351  11.1080704   9.0757380
  40.8244209  10.1869545   9.3360033  41.6183853  11.4670544   9.4841681
  52.7620583  60.6879883  17.9857521  52.1170654  60.4483566  17.3203259
  53.0525208  59.8517647  18.3498840   0.7673820  62.8604012   4.0305829
   1.0530303  62.7391739   3.1250772  -0.0355132  63.3769264   3.9613376
  16.1913338   9.3627214  53.5002937  16.4733219   9.9661388  54.1877556
  16.7726879   9.5505943  52.7634354  80.7213440  14.3665676  22.2832756
  80.1106415  14.5478973  21.5688591  80.1668015  14.0582418  22.9999657
  41.8337364  61.2410851  74.5846176  41.9515266  60.6800575  73.8180618
  40.8989105  61.1835480  74.7821579  63.5865936  41.7613678  41.6694069
  63.0168457  41.1346054  42.1152573  64.2418976  41.9982986  42.3256645
  13.5247107  67.5541916  57.5519600  13.4590120  67.2709122  56.6400032
  14.1135340  68.3084335  57.5266457  49.9019203   0.6367337  76.9259644
  49.3686790   0.4235292  76.1601715  49.6360359  -0.0012990  77.5881195
   2.5330369  36.5034561  56.8572426   1.9181986  37.0171089  57.3810425
   2.7082765  35.7260933  57.3875580  43.9314880  20.5452251   8.9236488
  43.2168198  19.9721031   9.2011509  43.6009827  20.9755764   8.1351099
  70.2836151  31.0489883  44.4910507  69.8143082  31.8792133  44.5729675
  70.0555038  30.5655518  45.2850800  45.3059578  48.3276253  47.7903976
  45.0566750  48.1715050  48.7012863  45.6954231  47.5015755  47.5037155
  50.1559334  57.1009369  52.1758003  49.5082207  57.1775208  51.4752045
  50.6286583  56.2925491  51.9776306  72.7525101  46.8546028   5.5055480
  72.8534470  46.4321976   6.3585534  73.6486664  46.9875984   5.1965985
  38.4561234  69.5958023  33.8129044  38.4912529  68.6405182  33.7635727
  37.6439285  69.8291397  33.3633270  71.8562927   4.3719473   8.8989906
  71.2879639   4.3842959   8.1288719  72.7093048   4.0970721   8.5627747
  29.9074001  60.3537712  80.6341019  29.5988064  61.1442375  80.1911926
  30.8579502  60.3726082  80.5230560  17.1771793  35.2462997  63.1147499
  17.0712643  34.3481903  63.4284554  16.3561020  35.4405060  62.6627045
  86.3318405  24.5497818   3.8725321  86.4776306  24.2497692   4.7697320
  85.9425507  25.4187031   3.9708197  81.7518845  49.8265495  59.4830055
  82.3440247  50.1232529  60.1740646  80.8775635  50.0407295  59.8084641
   3.2047849  59.4222832  79.0211716   3.7150364  58.7719727  79.5038452
   2.5676422  58.9073982  78.5260239  71.6719437  33.3907661  63.7154655
  71.5642548  32.8195992  64.4759979  70.8888779  33.9412575  63.7165680
  11.1109743   0.4959679  74.3050690  11.0633354   0.9623074  75.1396255
  11.2790785  -0.4143371  74.5486221  13.4148340  66.2019196  71.8077393
  13.1265755  66.1945801  70.8950043  14.3019552  66.5600128  71.7758636
  19.2745438  27.7644405  85.5253983  19.0373058  28.5901833  85.1033783
  19.1051807  27.9135571  86.4556198  19.7509899  44.1717262  68.0707397
  20.4071846  43.5443687  68.3741608  19.2101383  43.6746368  67.4570465
  64.6905212  20.1860600  19.6896229  64.5801239  19.2933311  20.0168495
  64.3259506  20.7407475  20.3792896   0.6392656   2.4705439  81.0672836
   1.0819010   2.8262489  81.8378601   1.3017716   2.4971642  80.3769150
  32.9264793  59.7105942  37.2723541  32.1745834  59.5373840  37.8388214
  33.6852341  59.6311188  37.8504562  47.4021263  70.9360046  55.5232201
  47.3802185  71.1363144  54.5874710  46.5764580  71.2823334  55.8616867
  52.6021957  25.7084885  66.5585175  53.1558151  24.9282494  66.5895615
  53.0365791  26.3336296  67.1388092   7.5965662  13.3925943   8.9892740
   7.2390404  12.7367373   9.5878201   8.4837418  13.5523262   9.3112020
  70.5125809  33.1957474  82.9727097  69.5575333  33.1481705  82.9296036
  70.7898712  33.2750702  82.0599899  85.3057632  51.0871582  66.7650986
  84.7557678  50.8114128  66.0318146  84.7171860  51.0851936  67.5199509
  40.9392509  44.8549004  12.6302986  41.0269928  45.0894737  11.7064438
  40.6276817  43.9498978  12.6190767  81.6203232  16.8982449  63.0453148
  81.7150345  17.8114929  63.3159447  80.8275681  16.8883610  62.5089645
  15.8123903  35.5202522  81.5572281  14.9641056  35.2158661  81.8797073
  15.5990715  36.0661850  80.8004684  65.5182266  33.2473984   1.5265086
  65.1395721  34.0946388   1.7611129  66.2037735  33.4586754   0.8927782
  14.2582026  53.2434120  79.6307602  14.6062422  52.3886032  79.3769913
  14.8268127  53.8742180  79.1891785  71.9634781  23.2535763  61.6991920
  71.1228485  22.7992687  61.6427994  72.3076019  23.2322941  60.8062439
  57.1933250   1.7426443  36.9085922  56.6117630   2.0250509  37.6144714
  57.9093552   1.2903777  37.3546753   2.4797595  54.6999969   4.6521320
   3.1573045  55.3449516   4.4491606   1.7868695  55.2059898   5.0765219
  31.8812580  23.9347267  12.3525667  31.9142952  23.0145874  12.6142607
  31.1613712  24.3035946  12.8643599  85.1468506  15.2938671  54.2956581
  85.6875839  16.0086632  54.6316719  84.3833008  15.2794771  54.8727303
  86.0205231  68.6258469  71.2275848  86.6869507  69.3104324  71.2863388
  85.5315781  68.6965714  72.0474396  64.5306473  20.9756145  66.6542435
  65.2389374  20.9210510  67.2957916  63.7335014  20.8342648  67.1649399
  34.8841972   2.4391384  60.2952919  34.0435448   2.3073339  59.8569260
  35.5273285   2.0520825  59.7013206  11.1913004  46.8361626   2.1721892
  10.8871002  45.9402275   2.3170943  10.4884396  47.2496223   1.6709232
  70.5627899  16.1672440  68.0247269  71.2521286  16.5562744  68.5629654
  70.4295654  15.2963305  68.3988876  64.0751190  56.4412537  16.0124512
  64.5468216  56.1283302  15.2405653  63.5769386  57.1961098  15.6990051
  54.8720779  15.0774097  38.8991623  54.4229164  14.6940880  38.1458054
  55.7992744  15.0540867  38.6625443   2.2731628  52.0247078   3.3180790
   2.5034347  51.8587685   4.2322292   1.9257708  51.1901588   3.0033052
  11.1527109  48.7890434  16.9120026  11.3085518  48.8271523  15.9683437
  11.4888353  49.6214981  17.2440796  85.9792099  15.7925787  31.9089298
  86.7602386  16.3359833  32.0134697  85.3841324  16.3271198  31.3832073
  71.5103531  13.2096891   3.4651630  71.2684326  12.2998314   3.6379774
  72.2318726  13.3845778   4.0693612  12.2583847  24.0905552  68.1972427
  12.5152855  23.9080086  67.2934113  11.7499657  23.3237190  68.4612579
  71.3110580  55.2267876  52.7435455  70.4644775  55.6211700  52.9532967
  71.2144089  54.9169044  51.8430672  50.1492424  13.1139660  77.7971191
  50.8150101  13.6969814  78.1619186  50.4659653  12.2333202  77.9980698
  13.2905293   0.7865234  72.1160049  12.8838749   0.6758772  72.9754333
  12.5542650   0.8209169  71.5052948  14.2301416  32.6460457  13.2142057
  15.1663265  32.8292313  13.2931604  13.8684206  32.8740158  14.0706043
  62.9859734  10.2864838  45.5067062  63.2509842   9.6117163  46.1317596
  63.4720879  11.0660553  45.7753944  56.7690201   2.1384742   3.6858299
  57.2214966   1.4325631   4.1475496  55.8948174   1.7893670   3.5122559
  79.0858383  34.5058441  63.1140709  79.6118011  34.5813484  62.3178940
  78.7792435  33.5990753  63.1134911  75.7082901  27.7274570   3.9571068
  75.9026337  28.6403942   3.7449453  75.7594223  27.6873837   4.9120998
  16.3701878  49.3414307  32.6417580  17.1386395  48.8437080  32.3624992
  15.7369862  48.6749001  32.9082642   8.0900764  51.3830223  16.5608864
   8.2101135  51.1106758  15.6511326   7.3686924  52.0113983  16.5295944
  72.7685165   3.6628139  19.5035172  73.5861206   3.6712153  20.0012054
  72.3391037   4.4865446  19.7343960  72.5073471  45.2607269  65.7304077
  71.8105164  44.6496277  65.9696121  72.1482010  46.1246185  65.9327469
  79.9937363  44.4946861  42.2311974  80.0357666  45.3655396  41.8361244
  79.0670319  44.3686409  42.4350662  60.3115387  46.8677444  17.8392010
  59.4793396  47.2544403  17.5669098  60.0924263  46.3477974  18.6124268
  13.1640463  35.0225945  15.7048664  12.8224316  35.7899132  16.1639442
  13.5488729  34.4822807  16.3949375  39.3136253   2.7414494  58.0340881
  38.5212746   2.6518886  58.5636063  38.9930954   2.9525754  57.1572075
  64.2397385  40.1681900  75.2220001  64.2660751  40.6692963  74.4068756
  63.3268700  40.2195168  75.5053177  11.7802401  49.8856201   1.7966198
  11.8902187  48.9387856   1.7092206  11.9558201  50.0628471   2.7207382
  63.3794975  56.7230949  79.2966690  63.8973770  56.2741890  79.9648895
  64.0224686  57.0108986  78.6486053   9.6446638  66.7254333   4.2245250
   9.4510756  67.4200211   4.8540511   9.7328272  67.1794739   3.3864889
  22.2260323   7.3322773   7.1304073  21.3905201   7.7677164   7.2993517
  22.8622208   8.0457420   7.0807600  29.4548988  67.9077225  70.2827377
  29.9554958  68.6707306  70.5716095  29.5171871  67.9279327  69.3277740
  69.8964157  49.8350182   0.5500304  69.2333984  50.4478683   0.8679194
  69.3949738  49.0884781   0.2222085  68.3540497  34.0768204  31.8965912
  68.1407623  34.7091789  31.2103977  68.3634872  34.5924797  32.7029648
   6.0857239   5.4369397   1.6822501   5.5803986   5.5238538   0.8739654
   6.8476968   6.0010180   1.5501715  81.9046402  20.0013962  48.9560165
  82.3857117  20.6849861  48.4896431  82.3391266  19.1871166  48.7022400
  37.7679710   3.1236365  78.3401566  37.4376183   3.4719560  77.5120468
  37.6045532   3.8207548  78.9754181  69.5500946  45.0333214  71.8263321
  69.6019058  45.3750229  72.7189636  68.8437958  45.5344887  71.4186478
  68.7203064  30.2256622  30.2704372  69.4302750  30.8656292  30.2192879
  69.1093597  29.4104919  29.9536343  57.6141319  26.9911938  67.5678024
  58.2496109  26.5823669  68.1553879  58.1151810  27.1962605  66.7784195
   1.8819906   0.7631138  53.4536018   1.6961758   1.6050434  53.0378380
   1.6634127   0.8979264  54.3757095  82.5820389   3.9288473  44.3839264
  83.0526047   3.1443021  44.1023369  81.6787338   3.7794957  44.1046982
  48.9310608  48.0211411  86.5239792  48.0521736  48.3470345  86.3301163
  49.0276489  47.2476692  85.9684219  74.2748032  35.1447449  43.8873825
  73.9969025  35.3702545  44.7751579  73.8874969  35.8240662  43.3353424
  36.1904564  35.9165840   6.6421924  35.4631081  36.2172585   6.0974078
  36.9706726  36.0831909   6.1132936   3.3418784  19.1137104  14.7794008
   2.9360375  19.1308842  15.6461363   3.8343508  18.2931061  14.7617464
  63.1881676  10.9868546  70.5522842  63.1236954  10.6218328  71.4347992
  63.9119148  10.5086823  70.1475906  72.2500534  59.1713943  32.4883614
  72.2669983  59.6045303  31.6349354  72.9016724  58.4739761  32.4159851
  17.5658417   7.7522540  79.2714157  17.5157146   8.4795370  79.8917160
  16.6662502   7.4321208  79.2044678  69.0345383  43.6109390  52.7142944
  68.2574234  43.1752167  52.3643265  68.7491608  43.9719162  53.5536308
  67.8291016  57.3437614  74.1152344  67.1882706  56.6362839  74.1862183
  67.3345490  58.0795860  73.7543945  86.4101410  68.7554932  82.5373917
  85.5309753  69.1224976  82.4446030  86.7357025  69.1188965  83.3609085
  45.3218307  20.5817013  85.0927811  46.1682014  20.5876331  85.5398407
  45.4609795  20.0288677  84.3238602  25.4486332  43.2359734  27.8427200
  24.5234661  43.0417633  27.9929924  25.7265778  43.7023697  28.6310425
  76.7887421  12.2967482  56.9526596  76.8248062  11.9913101  57.8591042
  77.6037598  12.7838755  56.8314552   4.2213578   0.4647096  71.5471573
   5.0383401   0.7979006  71.1760025   4.4978676  -0.0827192  72.2820740
  21.1995392   6.9121799  10.4688692  20.9631310   7.6644783  11.0114460
  20.7071419   7.0377412   9.6576910  78.4046707  41.5077057  54.8673630
  79.1590424  41.2726173  54.3271027  78.7843018  41.9290237  55.6384697
  35.1449127  67.6483612  64.9766006  34.3662872  68.2050629  64.9688263
  35.8386841  68.2018738  64.6180725  66.0609055  39.3116798  37.7420731
  66.6183929  40.0471001  37.9962234  65.2498703  39.4452248  38.2326012
   2.6809022  26.1326733  48.8516693   2.6364923  26.6722603  49.6410408
   1.9597691  25.5103493  48.9460640  44.9486580  24.8643131  69.4601898
  44.2040596  24.4632854  69.9085007  44.9679375  25.7642193  69.7858124
  46.5729485  47.2667313  26.1243992  46.3101730  48.1148834  25.7668781
  46.0648918  47.1789742  26.9308777  69.1288757  58.2399445  37.2973213
  68.4610214  58.8894081  37.0773277  68.6438522  57.4201393  37.3916550
  54.7802582   4.7101793  66.0511856  55.1770668   4.2762079  65.2959137
  54.4934311   3.9927759  66.6162491  42.5506172  41.7196617  48.7581902
  41.8407707  41.9588509  48.1622543  42.4845619  40.7682304  48.8397026
  29.9385128  48.6703758  10.6482410  30.0956001  47.7268066  10.6130810
  30.6173935  49.0472260  10.0884771  35.4511452  41.9327202  88.1134796
  36.2742157  41.4503555  88.0352936  35.2840462  41.9702187  89.0552368
  55.9996681  36.0796623   3.4677634  56.3007736  35.4279633   2.8346288
  55.2389069  36.4846115   3.0512457   4.1449656   8.7487411  26.0036316
   4.2607098   7.9904470  26.5761909   5.0277333   8.9526234  25.6947842
  67.0491409  54.5782585  16.5079765  67.3945847  53.8866806  17.0724449
  66.2272034  54.2230492  16.1696358  13.7276049  23.9522972  62.4534683
  13.7365294  24.8294067  62.8366508  14.6154432  23.8285122  62.1178284
  78.2902451  51.4459953  20.5184155  77.7086105  52.1568947  20.7877808
  77.7289810  50.6708031  20.5012512  76.2839890  64.3463287  10.6422386
  76.2234650  63.6219292  11.2649879  76.7645798  65.0272980  11.1129236
  13.4050503  46.2510681  68.3525162  12.5843258  46.2786522  67.8607025
  13.2487326  45.6072884  69.0434189  39.6946259  38.0750046  32.2329102
  38.8541451  37.7098961  31.9562817  39.8712807  37.6575241  33.0759621
  10.7653971  32.8785515   2.3203835  10.6697483  33.6534843   2.8740613
   9.8672523  32.6138535   2.1216300  75.7263489  63.4418793  45.7484894
  75.9691467  64.0206680  46.4711838  75.2821350  64.0137558  45.1224976
  50.6878204   2.2409132  56.6002617  51.4230156   2.6607747  57.0468483
  50.2336502   2.9590034  56.1594582   0.2891070  66.1788635   2.5730286
   0.0180174  65.9622498   3.4651160   0.8014032  66.9819870   2.6667252
  41.6661072  67.4860153  57.8668365  41.8587799  68.0310898  58.6297264
  42.1111145  66.6576538  58.0457764   3.3538256  66.9566116  72.6656189
   3.5705636  67.6577759  72.0511093   3.7589850  67.2266541  73.4897308
  56.7813797  16.3141556  53.7119865  56.0542297  16.2198982  53.0966835
  57.1426353  17.1806068  53.5249329  66.5851135   3.6304915  29.6649399
  66.0545044   3.6415904  28.8683453  66.1568527   4.2584405  30.2467518
  61.4416771  40.5185966  46.6978798  61.8826103  40.5636635  47.5462761
  61.6376877  39.6400146  46.3724480  12.8548431  62.3797417  57.9096870
  13.7060080  62.7340164  58.1670570  12.5389271  61.9245758  58.6902313
  77.7841568  29.0256634   1.7484286  78.6579590  28.9187508   2.1242940
  77.7011185  28.3031998   1.1260283  55.6162567  45.7579842  64.3070831
  55.9379196  45.5375633  63.4329109  56.2524757  45.3627472  64.9031067
  10.7664652  34.5423622  57.9760284  10.8140774  35.0536079  57.1681976
  11.3018179  35.0314255  58.6008873  37.1130753  61.4088974  68.6218262
  37.7928505  61.3951683  67.9480743  36.3436584  61.0337601  68.1934586
   4.4376478  46.2085266  37.5044746   4.0917125  46.8884697  36.9263420
   4.4897408  45.4283752  36.9523163  54.2051544  47.3194199  22.3710728
  55.0514450  46.9296379  22.5903835  54.4046478  47.9528999  21.6817703
  22.7035465  21.2510548  69.0729752  23.2027740  22.0414715  69.2785110
  21.9613628  21.2726803  69.6770630  69.3652115  14.8803005  73.3399048
  69.5439529  15.7927818  73.1126175  68.4731979  14.7262764  73.0287323
  73.1668701  47.7210007  29.3921890  72.9302902  46.8427429  29.6903954
  73.5882187  48.1259460  30.1502895  65.9368439  41.2023621  83.5184784
  65.3743515  41.8319168  83.0673676  65.6469116  40.3487015  83.1968689
  59.4300346  13.8492889  60.4661942  58.8348351  13.7773829  59.7200089
  58.8928490  14.2203732  61.1661682  83.9155121  63.2432938  36.4165878
  84.7881088  62.8840408  36.5770226  83.5121765  62.6282158  35.8040237
  17.2225685  61.2524185  44.1050262  18.0144863  61.4842453  43.6198959
  17.5376377  60.7284851  44.8415451  70.4029465   5.3933969  44.3125229
  70.5546265   5.9634538  45.0663528  71.2244949   5.4211469  43.8221016
  58.1566925  31.4758091  70.2668915  57.7345009  30.8347931  69.6949768
  58.0506325  31.1171818  71.1480103  27.8384647   4.8120341   0.8059416
  28.1478577   5.2215552  -0.0020187  27.0208874   4.3804560   0.5578694
  24.6815662  62.3295784  43.2889786  24.5545444  61.9167252  42.4347839
  25.0955753  63.1693459  43.0899315  23.9212074  30.9016418  19.5119801
  23.0825081  30.9531822  19.9704132  24.0777931  31.7922993  19.1982250
  53.5543594  31.5041924   6.4338779  54.0914497  30.8454266   6.8740978
  53.5841789  32.2645569   7.0145569  86.1343689  58.3946342  36.8149757
  85.7221375  58.9133720  37.5057755  85.9877396  57.4860077  37.0779037
  48.5129852  42.5890541  32.7203560  49.1290283  43.2033424  33.1195717
  48.8377953  42.4701385  31.8278370  48.0899582  52.1774597  60.4459610
  48.7384987  52.8805046  60.4091911  48.1075974  51.8827133  61.3564835
  42.0858688  51.1108017  13.8730736  42.8694611  50.5687218  13.7815924
  41.3653717  50.4830055  13.9277039  61.6904068  54.4074783  59.3058319
  60.9836617  54.9920654  59.5797005  61.4321136  53.5475883  59.6376572
  70.7245255  23.4574070   8.3848839  70.6311035  24.2507572   8.9122362
  70.0825653  23.5598469   7.6823039  64.6288147  19.0191460  83.9574432
  65.3031540  18.4076920  83.6614227  63.8023796  18.5882359  83.7393646
  68.1810379  22.1859207  73.7410965  67.9148026  22.2261066  72.8225479
  68.8578033  21.5094204  73.7649307  65.4862289  22.3636742  46.1178818
  64.9811783  22.7421589  45.3982201  66.1483307  21.8228378  45.6873627
  68.0129242  22.2649822  10.5364771  67.5979462  22.7305374   9.8103323
  68.9378052  22.2190228  10.2941828  34.5303993  69.6249542  82.0388794
  33.7650414  70.1726608  82.2134552  34.6204491  69.6359253  81.0859909
  72.1736679   1.8788725  58.3781738  72.2802353   1.1397551  57.7793579
  72.5943375   1.5928001  59.1889954  49.3327484  17.3924751  86.6425858
  48.4526138  17.4030151  87.0187225  49.5822411  16.4683609  86.6427689
  52.6503830  66.4257050   6.0022311  53.2346573  66.0618286   6.6673999
  52.4823189  67.3213501   6.2951512  52.1360779  27.0155640  53.1789894
  52.7782059  27.5708828  52.7368050  51.3296013  27.1361046  52.6776962
  84.0195389  35.4863625   2.8792493  83.8372040  36.0112267   3.6586735
  83.3577728  34.7949753   2.8958747  59.9469910  53.1407433   9.5965109
  59.5012054  52.5106583   9.0303783  59.2524643  53.4998207  10.1487131
  63.2718430  58.2060890  24.5413265  63.6017723  59.0522614  24.8436108
  64.0592422  57.6922646  24.3618221  28.1666565  13.1680031  25.8858643
  27.5704079  13.3452721  26.6133919  29.0402412  13.2235870  26.2731495
  72.3274002  61.0857239   0.4717187  73.2624817  60.8896408   0.4133311
  72.1949234  61.3522682   1.3814635  14.6495142  53.8355484  18.4594269
  15.4628086  53.6816292  17.9787045  14.3058853  52.9596596  18.6354160
  55.5467453  41.5070534  13.1340523  56.1807556  41.9397202  13.7059441
  55.9704514  41.4905930  12.2758942  11.9629869  51.5677605  88.4331131
  11.3909740  52.3169479  88.5996933  11.9347811  51.0599136  89.2439957
  55.4654694   2.8903308  21.2068405  55.3943710   3.8405323  21.2979126
  56.3969231   2.7336187  21.0517063  66.3808212  45.1466370  59.4917870
  66.2370224  44.2183189  59.3079872  67.0224152  45.4237175  58.8377190
  75.9746704  10.5025311  64.9899139  75.8753433   9.8696127  65.7010956
  75.4536209  10.1409492  64.2729797  51.8464165  37.2793579  56.2156067
  51.5481567  37.9896317  56.7837486  51.0655174  36.7453766  56.0696907
  25.1735840  55.4794388  52.5243111  24.4950352  56.0886612  52.2333565
  24.7848568  55.0279617  53.2735023  86.4439926  55.0348015  58.8630676
  87.3870621  54.9182396  58.9782486  86.1064529  54.1477699  58.7386818
  34.3013573   5.5641437  79.1177063  34.5476189   5.4808855  80.0389328
  34.1623840   6.5026612  78.9908142  66.9842224   6.6425519  17.1193047
  66.0552444   6.8101749  17.2778492  66.9973907   5.8376679  16.6014061
  27.1188240  61.3215256  40.2912254  27.3144360  62.0127144  40.9238586
  26.7951679  61.7872162  39.5201149  16.9136543  67.4118958  25.2478485
  17.5708904  66.7448578  25.0495453  16.7773075  67.3404007  26.1925850
  58.1378860  29.8543854  34.3313217  58.0802155  30.1788692  33.4326477
  59.0519562  29.9945984  34.5783997  28.7653065  54.9005547  38.8529434
  28.3894386  54.9204712  37.9728508  29.6987400  55.0644341  38.7184982
  71.6847076  50.6845207  56.7766953  71.9869308  51.3108482  57.4344254
  72.3181458  49.9681549  56.8192329  56.9198914  21.1860371   8.1271391
  56.0125084  21.4879436   8.1688862  57.3212357  21.7269478   7.4470134
  56.4681740   8.5414162  66.7588654  56.7185898   8.8763857  67.6198654
  57.1498756   7.9055262  66.5417099  31.5731678   9.6950531  73.0390778
  31.8107033   8.7688980  73.0843124  32.3299942  10.1168251  72.6321945
  16.0289288  57.9943695  69.7917328  16.6891632  58.0810394  70.4793472
  16.4660931  58.3060341  68.9992828   3.7142215  41.9956665  30.2529182
   4.1093426  41.3139153  29.7094803   3.9645343  42.8159218  29.8277645
  59.7939072  46.1244888  69.7498856  59.2417488  46.2607841  68.9799652
  59.1834984  46.1342010  70.4871368  39.0029488  64.1867981  37.8392715
  39.6551094  63.8376846  38.4467583  38.3227119  63.5142136  37.8056107
  76.0077972  20.0478477   2.0944333  75.7248611  20.1990032   1.1925856
  75.1939545  19.9285946   2.5839882  37.2808418  40.3211861  60.6776199
  36.7602158  40.1035500  61.4508057  36.6438713  40.3647385  59.9644585
  72.3304138  63.6940727  52.8544807  73.0186691  63.3950119  52.2602615
  71.5678635  63.1632881  52.6242104  84.7960892  42.3296623  14.0348186
  84.8479309  42.3955345  13.0812969  85.7042694  42.2213593  14.3171511
  75.6389008  58.1816254  32.2911453  75.7098923  58.0273285  31.3491364
  74.8965225  57.6438446  32.5666580  13.8777275  21.1088886   5.6729312
  13.6126118  20.4240665   5.0589571  13.4356136  21.8972569   5.3579021
  63.8172112  31.0549412  33.5317879  63.3368874  30.3270683  33.9264030
  64.2378235  30.6743488  32.7607689  60.6468353   9.2000542  79.5955353
  60.6770935   8.8836784  80.4984283  59.8268852   9.6909208  79.5410995
  70.4572067  17.4969940  60.4924316  70.0050125  16.7869644  60.0367851
  71.3523407  17.4665031  60.1547470  28.4819984  52.5295181  16.9580765
  27.7375584  53.1298943  16.9181747  28.1044693  51.6678047  16.7815685
  71.0718384  20.3649845  73.3830643  70.8025513  19.8369579  72.6314621
  71.7464066  20.9488411  73.0362320   9.9539108  11.7332878  83.8205414
   9.9991741  11.7229490  84.7766190   9.8263264  10.8164568  83.5768738
  58.2741394  57.0142136  64.2228165  58.5744095  56.1228027  64.4001770
  58.2010765  57.0570793  63.2693672  31.6366024  26.4392986  79.2935715
  31.1773548  25.6102467  79.1594315  31.0897217  26.9179859  79.9164810
  56.3885994  63.3929558   7.8455095  55.8788567  62.8311424   8.4292564
  56.3634720  62.9451752   6.9998770  85.7852020   9.1293631  77.9144897
  85.3409119   8.8499861  78.7149811  85.9175339  10.0703154  78.0299301
  71.6608582  46.1239777  41.2777367  72.5592041  46.4216919  41.1343155
  71.6029816  45.9838562  42.2228546  58.9233780  16.0079174  10.8461370
  59.2165298  15.6248560  11.6729126  58.2432404  16.6321049  11.0991964
   8.1141119  70.1225433  73.3711243   8.5756674  69.7002945  74.0956345
   7.2511568  69.7084427  73.3631058  37.5418930  39.5930290  44.3650703
  37.0686302  40.2794952  44.8351936  37.3234711  39.7388496  43.4446030
   2.4367630  64.7474518  32.8472481   1.5224029  64.6716690  32.5744247
   2.8515394  65.2617111  32.1546211  26.4582958  26.3459721  80.7219162
  26.6129112  25.5074768  80.2868881  25.5100784  26.3788452  80.8485489
  21.5113029  27.8791771  75.5086212  20.9626865  28.6524487  75.6401749
  20.9922810  27.3113651  74.9390259  34.9364586  12.5450811   8.3203230
  35.4896889  11.7948284   8.5377769  34.0477753  12.2549706   8.5260220
  67.3327713  16.9534607  79.7718735  67.4978943  17.6546860  80.4021530
  68.1797333  16.8051147  79.3512955   9.3420753  68.0502319  47.0557442
   8.9067240  68.7906418  46.6332626   9.3472834  68.2746048  47.9862595
   1.3323027   6.3360314  31.1022377   2.0757904   6.5158691  30.5268116
   1.5281463   6.8195243  31.9048042  46.0690498  15.9716568  36.8521156
  45.1620255  15.7318449  36.6623039  46.5920563  15.3314543  36.3695831
  15.1346893  58.4479752   3.3008616  15.8082104  59.0051460   2.9107859
  15.1131353  57.6712303   2.7419007  54.3233948  46.8866386  18.4092445
  53.6978035  46.6810837  19.1039505  53.7904358  46.9437408  17.6161957
  55.7044144  59.8501320  63.7801323  56.3530655  59.2185326  63.4693794
  55.8288002  60.6163902  63.2201233  57.2970352  38.8938980  19.3145580
  57.5601425  39.1707115  20.1922703  58.1212540  38.7899094  18.8390789
  39.2492790  14.4873133  87.8952103  38.8148651  14.5774403  87.0470428
  40.1408272  14.2135105  87.6797867  32.6096230  53.2092400  85.6309280
  33.0675430  53.8237953  85.0574646  32.2984695  53.7473068  86.3588715
  64.1515732  21.4348202  58.5853958  63.8333511  22.2722435  58.2482185
  65.0849915  21.5785351  58.7413216  65.6289444   8.3159933  61.7275314
  64.9945221   7.6494408  61.4639854  66.4803391   7.8917508  61.6209030
   3.3132942  54.8559227  64.1615829   3.3781080  55.8049088  64.0545273
   4.0393848  54.5064659  63.6449509  40.6352501  55.5995483  54.8006363
  40.9911346  55.2827187  55.6308174  40.5359688  56.5431404  54.9271507
  59.2351379  27.7068634  16.0601902  59.3699570  27.6321812  17.0049019
  59.4287338  26.8330383  15.7208052  29.9441185  18.1119442  84.4946518
  30.3871193  18.3859444  83.6915894  29.0452709  17.9282246  84.2216034
  39.2399292   7.5548182  11.2154417  39.7453041   7.4865880  10.4053946
  39.8502846   7.9350128  11.8472271  29.1270008  68.1170654  85.6083755
  29.4003029  68.4872665  86.4477158  28.3109798  67.6565781  85.8040466
  37.6083908  46.4282990  40.0955963  37.4447975  46.4832001  39.1540794
  37.1893196  47.2091141  40.4574432   8.2460995  37.0296288  53.8182373
   8.7684031  36.4698410  53.2437210   7.4190793  36.5593567  53.9236450
  78.0730743  51.1619301   6.7867408  78.4124451  52.0080414   7.0785623
  78.8303299  50.5771713   6.8159451  53.3906708  59.8505249  76.9478455
  53.5347672  60.4250259  77.6997833  53.5567131  58.9698143  77.2840118
  12.0464296  48.4768753   9.7788000  12.3505096  47.6024475  10.0219889
  12.1759739  49.0034714  10.5675640  41.6707306  26.7770538   1.1778890
  42.4913864  26.3135624   1.3450350  41.8732452  27.3690128   0.4534563
  73.3713455  68.8979416  57.6721306  72.9038849  69.6707764  57.9890518
  72.8130798  68.5484467  56.9775620  24.7469959  62.7214661  68.3845520
  25.0961685  63.3736076  67.7770767  24.2100029  62.1480370  67.8376999
  38.2192001  42.1193504  67.2684860  38.3745003  41.1762276  67.3197937
  37.3951492  42.2522316  67.7370071  52.5808144  15.7714806   4.4402003
  52.8474350  14.8559399   4.5234442  53.0183983  16.0770779   3.6456187
  21.1243038  29.1396828  70.6088104  21.8784580  29.7218304  70.5161514
  21.3220177  28.3985844  70.0361710  47.6606407  51.2448196  74.6055145
  47.0423851  51.0199432  75.3008041  48.3799057  50.6226540  74.7141266
   4.2847090  64.1981583  55.4073677   4.5189080  64.1678391  54.4797554
   3.4543831  64.6738739  55.4293327  41.2621803  68.6542053  85.4492798
  40.8295746  67.8176651  85.2781525  41.0247536  69.2038193  84.7024307
   8.7029037   6.9302144   2.5782485   8.2563858   7.4388199   3.2551336
   9.5324774   6.6726174   2.9803474  61.6948929   8.6552629  43.6663132
  62.1447754   9.3078136  44.2029839  61.1441689   8.1750717  44.2846603
   0.6404934  18.4074039  33.4152756   0.6474716  19.0207729  32.6804543
  -0.2871145  18.2889633  33.6195984  27.7795734  68.9739609  28.7668419
  27.8202381  69.5323334  29.5432453  27.4612026  69.5513840  28.0729675
  45.2270546  49.5853462  25.4829369  45.3788757  50.4822006  25.1848850
  44.3976097  49.6282578  25.9587650  76.0910950  29.9619026  23.2563972
  76.6097717  29.3598652  23.7900276  75.3809662  29.4225407  22.9084949
   7.9314799  23.7825871  57.9109993   8.8376703  24.0905952  57.8975525
   7.9164171  23.1124058  58.5942726  81.8894348  34.6000710  87.7146072
  82.3064346  35.4124565  87.4275970  82.2131729  34.4664154  88.6054306
  19.1661835  44.3598404  23.6758537  19.4141922  43.8155518  24.4231625
  19.9608364  44.8483772  23.4611683  39.9300728  10.4841080  79.7325974
  39.0919418  10.4223242  79.2743988  40.3832321   9.6698484  79.5138321
  26.4203758   9.2782393   2.6659677  27.1472950   8.9102554   2.1635656
  25.7120838   9.3718071   2.0289440  53.0891457  51.2663879  16.6681385
  52.5516891  51.4163857  17.4458752  52.5177498  50.7825050  16.0718174
  12.8750877  70.2301636  12.3216896  13.4395390  69.8218765  12.9781389
  12.6288214  69.5126572  11.7379341  72.1393051  64.9936066  39.0899315
  71.1916122  65.0214462  39.2215958  72.4641113  65.7851105  39.5191727
   6.0460458  39.3600159  68.8072662   6.6703305  38.6368141  68.7482681
   6.1547761  39.8379517  67.9850845  55.1809807  64.3793335  44.9556122
  55.3111000  63.8841286  44.1468620  54.8714828  63.7298470  45.5869713
  78.0146561  56.5441818  37.0461006  77.2886276  56.1460800  36.5658646
  78.6885986  55.8647957  37.0678062  66.2410583  31.1700649  19.2380886
  66.2235260  30.7036438  20.0737782  66.4983292  30.5059967  18.5985146
  61.3916817  24.4053421  55.6738892  60.6215057  23.8719997  55.4774094
  61.8417168  24.4947968  54.8338318  79.3899307  50.3185730   1.0137974
  79.5986862  51.0034180   1.6491255  80.2418213  49.9823189   0.7354975
  57.0292587  35.8649139  55.6009941  56.0764847  35.8924484  55.6887398
  57.2584267  36.7088509  55.2117882  72.1951447  29.6681061   0.9012233
  71.4968643  29.0333443   1.0615652  72.4372482  29.5315781  -0.0147338
  35.4561195  48.8628044  28.4519539  35.3688622  48.6428528  29.3794441
  35.3746376  48.0239487  27.9981747  14.7764359  56.7029572  52.0527496
  15.3499136  57.3455734  52.4703598  15.3529310  55.9683037  51.8425789
  72.4412308  56.0073051  61.9365425  71.8739471  56.6199188  62.4046555
  71.8398361  55.4708519  61.4200401  69.1778793  30.3124104  87.8672180
  69.1565323  31.2189808  87.5607834  68.3993759  30.2272243  88.4175873
  19.1690884  10.8128996  75.0092468  18.9187603  10.6945515  75.9255219
  18.8691273  11.6953125  74.7910614  21.9464550  36.9356232  14.2129135
  21.4854641  36.2392311  13.7451973  22.8722343  36.7742043  14.0309591
  40.8092461  57.4280777  65.1096802  41.3041916  58.1985970  65.3881760
  40.8868599  56.8161354  65.8416214  66.6542664  34.4256554  75.9482346
  66.5529022  35.3458138  76.1916733  67.5993729  34.2753029  75.9682999
  46.2574463  68.8767548  65.1740112  46.8629723  69.5753021  65.4222107
  45.6896439  68.7695999  65.9371262  65.3487396  40.7753067  33.4232330
  66.1169434  41.2994576  33.6498718  65.5777969  39.8857765  33.6924973
  19.5076561  36.9424171  51.3726730  19.7508354  37.7757149  50.9692955
  18.7436047  36.6497726  50.8758698   8.5370665  41.2144775  81.0366898
   7.7629099  41.7662621  81.1482544   9.2568951  41.7375870  81.3894424
  27.7305222  56.7568779  26.7186718  27.3894024  57.2495537  27.4650879
  28.1710358  56.0028229  27.1105633  43.7523422  19.2039089  67.6634750
  44.6581573  18.9502583  67.4862900  43.5831413  19.9261227  67.0584869
  31.3117466  11.8951931  87.2048111  31.4920635  11.1058073  87.7152863
  31.9259682  11.8519974  86.4719391  69.2837143  41.8933525  24.3885651
  68.7699814  41.8015976  23.5861397  70.1451645  41.5423317  24.1628914
  85.6819534  37.2358437  26.2694454  85.5598831  36.7168770  27.0644321
  84.8304520  37.2093391  25.8330116  76.6316528  15.2394648  59.3601952
  77.5491714  14.9715872  59.4114418  76.6660385  16.1831799  59.2038269
  73.1690674  54.1593246  55.1330414  72.7051163  53.4005470  54.7791519
  73.5435104  54.5907364  54.3649864  13.1847620  28.8070469  77.7404938
  12.6251945  28.6549568  76.9789276  13.4832802  27.9343548  77.9964752
   3.1628578  59.4638901  49.3299637   3.7522039  58.9105873  49.8425674
   3.2264314  60.3262596  49.7404633  40.4879875  46.9675064   9.3846111
  40.1462288  46.9192467  10.2774162  39.7184410  47.1416092   8.8426561
  49.0435181  34.0138931  33.8157349  49.2990685  33.2564049  33.2893028
  48.0973511  33.9204025  33.9264526  53.5496597  71.1833649  51.6684761
  53.7220154  71.2501068  50.7292900  54.1507797  70.5042877  51.9746399
  68.6387024  12.6102667   2.0071032  68.9807587  13.4579754   2.2910371
  68.9144516  11.9995937   2.6906753   4.0440025  44.3794136  68.9728088
   4.3211064  43.8355789  68.2354584   4.6499434  44.1530800  69.6783829
  31.7716618  64.3599014  85.4664459  31.4252377  64.3117905  84.5754318
  32.7202911  64.2912750  85.3586273  17.2559109  65.5850067  77.0453873
  17.5491333  64.8603516  76.4930115  17.7382584  65.4722214  77.8644409
  29.8466434  54.0319633  78.2487183  29.1523914  53.5212173  77.8323135
  30.1199989  53.4999847  78.9960480  13.3245764   1.2782800  82.1779251
  13.4790020   0.4491609  81.7252121  12.7171221   1.0563444  82.8835983
  55.6230164  18.0134563  62.6427879  55.7226372  17.1636257  63.0718536
  55.4028702  17.7996559  61.7361145  64.0985565   1.0959889  48.7341881
  64.3068161   1.3968339  47.8496819  63.3031654   1.5740904  48.9687233
  54.3743973  22.5519066  82.6735382  54.0583916  22.1157017  81.8822784
  55.3195343  22.4004822  82.6692963  51.5387611  59.2271614   0.9416763
  51.8037682  59.9051094   1.5632814  52.3556824  58.7899475   0.7014300
  65.7297974  69.2779007   5.0115547  66.1744461  69.7473297   5.7173562
  65.7266541  69.8939667   4.2789660  67.5049744  64.7313766  75.2151413
  67.7073441  65.6148300  74.9072723  67.2420349  64.2572098  74.4263153
  25.5995750  46.5410118  31.6669292  25.3717518  45.7186470  32.1005745
  25.9721985  46.2735443  30.8267841  70.5355225  49.5544395  64.2109070
  70.9328461  50.3206558  64.6247635  69.5937653  49.6816635  64.3255310
  49.7530708  32.5569572   3.0857136  49.4803238  31.6473198   2.9656923
  49.7710648  32.9204102   2.2003837  11.8586159  62.4929619  65.2898331
  12.3569450  61.7171707  65.0328217  11.5521793  62.2982330  66.1754990
  16.0138283  31.5571041  11.1675644  16.5109901  30.7953358  11.4655142
  15.1066961  31.3559856  11.3975496  75.2591629  23.9347076  57.5950966
  75.7500305  23.1170483  57.6770515  75.6581192  24.5191994  58.2396431
  59.7201233  24.7929306  16.8495998  60.2988091  24.9548035  16.1045151
  59.8476067  25.5503254  17.4208546  85.0133286  38.5570984  42.6581001
  84.7955933  39.4735146  42.4877815  85.9620438  38.5559845  42.7853050
  27.2966805  43.4245033  55.0639229  26.7191143  44.1702728  54.9012032
  27.1255722  42.8259277  54.3368340  34.5078278  43.4534302  61.0148277
  35.3691978  43.2683640  61.3890266  34.6319351  44.2607422  60.5157471
  35.1374969  18.6777248   8.2918873  35.4799271  18.0540562   7.6515656
  35.4132462  19.5336075   7.9637675   0.4121505  27.8624458   7.1857624
   1.2162409  27.7456284   6.6797743   0.4033622  28.7929516   7.4100661
  73.4478912  49.8268089  34.2587204  73.0521240  49.8043747  33.3874626
  72.9679871  49.1651802  34.7568932  71.3789291  29.9625874  11.6873789
  70.5439606  29.5011673  11.7657871  71.2444992  30.7832565  12.1613646
  60.3115730  66.7788391  24.2514496  60.0487633  66.4293213  23.3999805
  60.4227638  66.0051575  24.8039722  81.6177826  21.1076622  73.5712967
  82.4280472  21.0542145  74.0781021  81.3313522  22.0153675  73.6725922
  15.1413927  36.7864151   6.0645251  14.6035023  36.4802399   5.3343458
  14.6839190  37.5614510   6.3905201  44.8036232  52.1491127  28.2149982
  44.5380669  51.2368813  28.0985966  44.3129272  52.4454613  28.9815636
  11.0729952  39.9170532  61.0149879  11.6931944  40.1588783  60.3271599
  10.2133741  40.1116943  60.6416283  48.2308388  23.3765430  83.5324402
  47.4478111  23.3802376  82.9819107  48.9409256  23.6249466  82.9405746
  21.7492294  52.6131248  51.3695107  20.9529305  52.1298599  51.5899467
  22.4584579  51.9888763  51.5229340  76.2622986  36.0317383  54.6076393
  76.8854599  35.5902863  55.1847191  76.7787781  36.7088547  54.1706123
  23.8935013   5.2450204  73.7124786  23.2540474   4.7386146  73.2116013
  23.5592461   6.1416898  73.6903687  63.0687561  26.8021507   6.4747839
  62.1996613  26.4599609   6.2654786  63.2458344  26.4814777   7.3591166
  56.1903305  44.4041328  81.0037994  56.3711815  45.1684799  81.5508804
  55.3482742  44.0769501  81.3202286  50.9702263   8.0989943  57.4121132
  50.4151688   8.4284735  56.7053032  51.3179512   8.8865547  57.8305244
  46.2793808  29.6920033  74.2938843  46.5955429  30.5492764  74.5791092
  46.4510345  29.1139355  75.0372543  21.5212479  12.7003222  39.9131165
  22.3128128  12.5705996  39.3907890  21.2461643  11.8159304  40.1548042
  55.7667503  60.5353966  74.0117416  55.9655457  60.5522842  73.0755692
  55.1349411  61.2437744  74.1352463  51.8954315  23.0301132  18.2814369
  52.4722748  23.7628307  18.4973316  52.0505943  22.3903275  18.9762974
  35.4585495  31.0496330  69.6424637  35.2342415  31.0231991  68.7122955
  35.2248077  31.9353504  69.9201355   8.2268171  48.1374588  76.3292923
   7.9147463  47.2623291  76.0991058   7.4550700  48.5825691  76.6793213
   4.6521211  18.4864693  55.4017181   3.7352309  18.2169914  55.4558029
   5.0041761  17.9909687  54.6622810  24.6532021  62.9384155  53.4200897
  24.8755550  63.8608627  53.5460892  25.4974060  62.5020370  53.3055153
   5.3700976  40.0847626  29.2582035   6.0442734  40.2713051  28.6048107
   5.7394357  39.3787117  29.7885914  66.5376892  53.1283913  34.2673492
  67.0076141  52.8111954  35.0385742  65.9902496  53.8411407  34.5967941
  45.4057999  59.6983376  24.9773674  46.0972366  60.0270157  25.5519238
  44.6821594  59.4901047  25.5683155  42.2956085  45.7553711  22.4902287
  41.9699402  45.6939850  21.5922279  42.5521851  46.6721535  22.5898075
  64.0598068  16.1854916  26.6978798  63.7052917  16.2430611  27.5851421
  63.7469521  16.9787426  26.2630157  12.6088867  38.7027092   0.8330116
  12.3703356  39.3440514   1.5023451  12.6277256  37.8665009   1.2984442
  28.4249249  13.8576288  85.4435501  28.5486565  13.3353271  84.6510086
  27.7994442  13.3555994  85.9660187  72.4350204  50.9234543  50.6443138
  71.4790802  50.9286690  50.5954781  72.7177963  51.3808975  49.8524704
  27.7520084   4.1881638  64.6232452  27.0458755   4.7106972  65.0034637
  27.3080368   3.5778778  64.0344543  53.7440529  49.3580246  81.9956436
  53.4936638  49.2688179  81.0760880  53.1795158  48.7390823  82.4587173
  66.0621872  63.4816551  38.4606285  65.3626785  63.0359688  37.9828339
  66.1222229  64.3435440  38.0485992  56.4301262  62.3390427   3.4781065
  56.4217682  62.3499985   2.5210056  56.5739746  63.2520981   3.7268386
  39.1378937  55.0668411  13.4391403  39.3549843  55.3777580  14.3180218
  38.7684326  54.1948090  13.5780382  12.3782892  13.5273666  62.8052406
  11.9130411  13.4472132  63.6379166  11.9791613  12.8634329  62.2429924
  70.9219666  38.2704430  22.2853394  71.4284058  38.4281769  21.4885521
  70.3393631  37.5454063  22.0592365  10.7454062  37.6512070  86.0663300
  11.2990322  38.3352280  86.4429550  11.0584087  37.5581284  85.1665573
  80.1116943  60.4563217  60.5267029  80.7684326  60.5630035  61.2148514
  80.0123825  59.5086899  60.4352417  36.7099419  27.0547924  81.8512573
  37.3678055  27.0337849  82.5462418  37.1996155  27.2967205  81.0651779
  14.0953913  47.8861198   6.0128183  13.4551344  47.3283081   5.5710630
  13.5955591  48.3264580   6.7002072  72.9217758  23.2912769  59.0132065
  73.7673111  23.5363655  58.6374130  72.2758331  23.6834888  58.4257011
  53.3265686  47.4059677  74.6463242  52.8894730  47.1272011  73.8416672
  54.2220764  47.6075859  74.3749466  23.2052288  66.0403214  26.9542484
  23.5203705  65.7498016  27.8101196  23.5928230  65.4227829  26.3340435
  65.6531601  44.6041870  76.7539978  65.6927719  44.0903931  77.5606461
  66.1448288  44.0868645  76.1161346  40.0758781  54.6125298  84.3796463
  40.4350891  54.0611420  85.0747528  40.3944626  54.2145462  83.5694885
  78.6010208  59.4967651  20.5469093  77.9163513  59.0022736  20.9973927
  79.1642303  58.8270912  20.1588936  79.1984100  38.1716652  55.6806030
  78.7088623  37.7089310  56.3606453  79.8773651  38.6492577  56.1572151
  82.6788864  59.6266747   6.0336637  83.5270844  59.2047272   6.1706042
  82.5073013  60.0909843   6.8529353  75.0895920  63.2516136  33.3104095
  74.9683762  62.8482895  34.1699867  75.1882935  62.5121689  32.7106552
  29.4491959  56.6805992  32.9124260  29.4921188  56.1839218  33.7295532
  30.0668278  56.2379379  32.3303490   5.2919474  21.2103672  13.3447323
   6.1650124  20.8191757  13.3137846   4.6935868  20.4665890  13.2740974
  21.4186783  65.6364441  68.4642639  21.2251396  64.6998215  68.5032501
  22.1374779  65.7584991  69.0844727  84.3087616  37.0939598  40.0513878
  84.7401276  37.5851326  40.7506065  83.4200821  37.4484558  40.0227318
  28.4566650  71.4957199  72.1719818  27.5069332  71.3898544  72.1168823
  28.7379341  71.6104584  71.2642670  54.9348679   3.9115596   1.0164059
  55.6962891   4.4775724   0.8895142  54.2460899   4.5016661   1.3223343
   9.9265833  11.1329794   8.0329027   9.2774763  11.0955057   7.3304162
   9.9928732  12.0632515   8.2483816  78.4630661  55.4298553  18.6352558
  77.6034622  55.2885704  18.2385788  79.0848694  55.1261597  17.9739208
  82.0748291   1.5581830  10.9632874  81.9881668   0.6768754  10.5999441
  81.2913742   1.6736982  11.5009460  63.7778969  38.9940376  60.7432060
  64.1215591  39.3423195  59.9205093  64.5480652  38.8998909  61.3037453
  17.2379856  50.7367516  82.6378326  17.3138523  50.1206284  83.3664322
  16.4134312  51.1959801  82.7973633  26.6889248  14.5816107  66.2428970
  26.6846752  15.0036802  65.3837891  27.0788746  13.7217493  66.0853882
  43.3546524  58.1553078  81.0156326  43.6152191  57.2468719  81.1675568
  43.9495659  58.4640350  80.3322678  56.8320618  35.5980911  40.4182091
  56.0321693  35.0725250  40.4046555  56.9457474  35.8846512  39.5120125
  35.4529305  32.3921280   2.6007280  35.8406334  31.7315292   2.0266809
  34.8371086  32.8645477   2.0405374  22.0431633  51.4054222  55.7030754
  22.6263046  51.5017204  54.9501457  21.6188488  52.2592087  55.7881355
  46.0645561  59.3512802  51.4270897  45.7957077  60.0621834  50.8452263
  45.2626877  59.1012573  51.8861351   2.8649950  11.0465546  59.0430412
   3.0111494  11.0495930  59.9890099   3.4143641  11.7577810  58.7135239
  64.5303345  47.5660515  77.7243881  64.9544525  48.0702896  78.4187164
  65.1885376  47.5118294  77.0315247  12.6671057  36.5781288   4.4163094
  13.1511154  36.8299484   3.6298275  11.8755512  36.1540527   4.0848966
  82.0893936  55.6096306  65.6856995  82.9206696  55.3349762  66.0727158
  81.5292511  54.8358917  65.7473602  49.6549149  57.4541893  42.1410217
  49.0824738  56.8457375  42.6082764  50.5392761  57.2052803  42.4096870
  53.1884727   0.6110930  78.7782440  53.2879219   1.4213967  78.2784958
  52.4932632   0.1340248  78.3251190   5.9894371   2.4392154  21.0561485
   5.6113834   1.8486435  20.4045868   6.3428931   3.1664057  20.5438061
  85.9167480  48.0264435  25.6419640  85.2337952  47.3733749  25.7946339
  85.6601181  48.7725601  26.1838875  24.2829647  29.3700905   0.1009307
  23.4544888  29.1944866   0.5470499  24.2456093  30.3017235  -0.1156289
  63.7403564  61.4686127   9.8837919  64.2087402  61.4939461  10.7181826
  63.4395676  60.5632896   9.8053617   4.6142440  12.1347933   7.2274818
   5.2348332  11.7657223   7.8558826   4.2612581  11.3747749   6.7648754
  42.0514030  62.7652817  88.3718414  41.5828018  63.5885696  88.5090790
  42.3595009  62.5168915  89.2433929  48.8900414  39.5769920  21.8565197
  49.6199570  39.1978912  22.3461475  49.3061905  40.1404800  21.2041912
  32.0371666  25.4551868  14.9860334  31.1772671  25.0415154  14.9106789
  32.6308784  24.7359734  15.2016087  41.7730446  33.9276695  16.9855328
  42.2148514  33.5084953  16.2470665  41.7887840  33.2686005  17.6795120
  21.8653259  60.3388062   3.6418960  21.8686752  60.7359276   2.7709680
  22.3364124  60.9644623   4.1922274  51.8385353  65.7828369  20.5550194
  51.5633774  65.3575974  21.3672314  52.7872963  65.8748093  20.6423244
  39.3718224  16.1588955  79.8914032  39.2851219  17.0168018  79.4758148
  40.0912094  16.2658291  80.5137177  52.7702675  51.0917816  29.9907799
  51.8653488  51.2667580  29.7324371  52.8235207  50.1376266  30.0454140
  24.7240448  40.7097168  72.1576004  25.5554924  40.6318588  72.6254349
  24.2469997  41.3926582  72.6290359  44.5753098   0.9581300  50.9186554
  45.3880348   0.6084326  51.2839279  44.2205849   1.5140293  51.6124687
  78.8312759  33.5596390  21.3492985  79.3226318  33.5293198  20.5283928
  78.4744568  34.4472351  21.3822212  62.0850639  14.0843678  46.1288071
  61.5571709  13.3900528  45.7344894  61.5215111  14.4583693  46.8061295
  18.6891727  67.5224152  88.6141663  19.3170223  67.5291519  87.8916779
  18.0034084  68.1318970  88.3412399  19.6595955  58.7301788  84.9943848
  19.8960037  59.5491982  84.5590134  19.2965584  59.0029678  85.8370132
  67.4814224  37.5285606  56.0528564  66.5451889  37.4031906  55.8980064
  67.9081345  36.9416313  55.4286270  58.5822563  56.7466202   2.6007469
  58.5246124  56.4553146   1.6907749  59.2965813  57.3837738   2.6034670
  18.1016350   6.7631655   4.6003103  18.5655003   7.0108142   3.8004794
  18.7957478   6.5381236   5.2198224  50.7407761  45.0105515  79.7572098
  50.0232544  44.8532143  80.3709183  50.5250511  45.8475761  79.3460159
  40.1265602  30.7209721  86.5356979  39.3954201  31.3367748  86.4861298
  39.7218971  29.8598213  86.4313049  86.3964767  29.7556610  73.1905670
  85.5629730  29.4375782  73.5374451  86.2657928  30.6973267  73.0791245
   9.2395935   2.5061507  81.2010422   9.9930067   2.9162009  80.7762375
   9.2500353   1.6021254  80.8866196  18.5726700  67.5726852  81.7180328
  18.4872761  68.0437469  82.5469131  18.9118595  68.2253418  81.1054764
  66.8499298  21.9155579  41.1856079  67.6615829  22.2718105  41.5469170
  66.5836411  22.5518284  40.5219231  20.2625961  31.4171429  54.2487526
  19.9742184  30.5137215  54.1187630  21.1260567  31.3369770  54.6540222
   9.2307396  42.3070755  53.6132278   8.7295017  41.9994011  52.8580284
   8.9189529  43.2001076  53.7599144  15.8955116  35.5094566   3.2381032
  15.4250746  34.9138870   3.8213868  15.5882034  35.2785873   2.3614659
   3.4967520   2.5811260  13.4898434   3.0519509   1.7762548  13.7554865
   2.9382739   2.9484849  12.8047295  74.1844635  50.1484337  47.8521652
  74.0606918  51.0949440  47.9230804  73.7618942  49.9128380  47.0262375
  35.4493713  70.3380127  13.9956751  34.6522598  69.8089371  13.9653721
  35.2434998  71.0465775  14.6054173  66.2089539  41.7170334  73.4524307
  65.4803009  42.3376694  73.4624100  66.7614365  41.9844666  74.1869202
  63.7741432  32.2000008  10.1972647  63.9387741  33.0826492  10.5290117
  62.9529381  32.2760429   9.7113972  81.3076477  36.3759499  28.1775990
  80.8545074  37.0289307  27.6442032  80.7789078  35.5832863  28.0862236
  72.3282547  12.8701735  71.3689423  72.8929977  13.6429281  71.3810501
  71.6725464  13.0631895  70.6988525  76.1915970  54.3094063  54.2362480
  75.9828491  53.3996124  54.4482079  76.3253632  54.3098907  53.2884407
  85.4410629   1.1554494  18.1158714  85.4981537   0.6302099  17.3176880
  85.5333328   0.5213587  18.8269596  56.4464226  62.3445549  84.7760925
  56.9610214  61.5853157  85.0499115  55.5597801  62.1565933  85.0839233
  77.5359726  25.4244766   5.5484643  77.2174225  25.6049633   6.4328756
  77.5790024  24.4694920   5.4996305  52.1659927  18.5443859  32.2096176
  52.9447975  18.3742599  31.6797562  51.7163925  17.7004337  32.2524338
  76.4254532  27.6571293  45.4427834  75.5260544  27.8705196  45.1942139
  76.9624710  28.0347672  44.7462006  52.2959595  71.6255035  18.4029961
  51.7569733  70.8355789  18.4448967  52.6180382  71.7433777  19.2966404
  55.5877380  10.5503712  40.1264305  55.4882812   9.6135149  39.9571915
  56.4946976  10.7419186  39.8877525  11.8479004  51.7508621  65.3268433
  12.1582727  51.2592964  66.0872726  11.0060034  51.3503113  65.1100464
  27.9094505  47.3961258  67.0947571  27.4045792  48.2031059  66.9941559
  27.7062168  47.0952911  67.9804306  25.9328060  61.3664169   3.1074221
  25.0674896  61.4343567   3.5109637  25.8752594  61.9131737   2.3238554
  12.4219894   4.0416098  83.0681992  13.2434635   3.8456268  82.6176453
  11.9025707   4.5199404  82.4219513  51.8145561  23.8339977  57.3460274
  52.3704300  23.7166595  58.1163940  50.9245796  23.6935768  57.6692200
  31.7977867  63.9884415  76.1190262  31.3212700  64.8063965  75.9771957
  31.4301147  63.3824196  75.4757690  70.4523926   1.0612963  85.9825058
  70.7588043   1.4752319  85.1756592  70.4039764   1.7775052  86.6156998
  85.7197876  25.3825550  35.1003799  86.6121063  25.2439098  35.4178238
  85.1724625  25.3020725  35.8815269   6.2440820  71.0576248  13.7284966
   6.5800724  71.9260712  13.9502029   6.5877399  70.8844223  12.8520660
   1.0228612  37.4097557  54.7774200   1.6143773  37.1710434  55.4911118
   0.2033295  36.9610100  54.9853325  34.4152679  55.1491470  84.3646393
  35.3649902  55.0432739  84.3094025  34.2791481  56.0966034  84.3586807
  33.4010544  43.3008041  70.0667877  32.8076859  42.7258377  70.5500717
  34.0605774  43.5598412  70.7103424  75.1539993  28.0124969  27.9987755
  75.4166107  27.4929829  27.2389259  75.9793930  28.2756500  28.4058418
  18.2125130  25.1829510  49.6731224  18.8180676  24.9733887  48.9620552
  17.5075493  24.5415840  49.5842056  18.0275421   6.0135846  62.0197258
  18.4561520   6.5275321  62.7041130  17.3151760   6.5732336  61.7105980
  19.5551758  69.0495682  26.3168793  19.2456875  69.1610947  25.4179859
  20.4079800  68.6245728  26.2255783   7.9913096  62.3632088  81.7963028
   7.3072906  61.8788109  82.2585907   8.7645445  62.2767105  82.3538437
  44.5613594  55.2408714  17.4624557  45.1714745  55.9350624  17.7116394
  45.1091805  54.5826492  17.0348263  63.2457199  24.7385826  87.2826920
  62.5842438  24.1506596  86.9179688  63.1831169  24.6116791  88.2293777
  38.4738045   0.5276623  77.1564713  38.3768845   1.3142040  77.6933060
  38.4543533   0.8490338  76.2550430   9.6843290  32.0172958  72.0665207
   9.3829784  31.4179459  72.7493057   9.7203083  31.4801102  71.2750854
   4.0754619  37.5880890  31.4642105   4.4022713  37.0055695  30.7785702
   3.2135839  37.2361488  31.6867790  69.5502167   4.2727485  38.0594063
  69.5935593   3.6221905  38.7602119  70.2547455   4.8887277  38.2605019
  79.1439056  27.1286507  58.8667526  78.2584610  27.4634075  59.0087166
  79.3691025  26.6912460  59.6878471  77.2513351  33.3664627  31.5881901
  77.8581848  34.0821495  31.3990898  77.6774521  32.5892982  31.2267036
  70.8985291  21.0779324  35.0143852  71.5194244  20.3760319  35.2094498
  70.7718582  21.0291805  34.0668602  13.4712324  17.0732594   8.3689346
  12.6974516  17.5090923   8.7260675  13.1216631  16.3326836   7.8733711
  56.4377098  30.9523621  36.4104614  55.8590660  31.4778843  35.8579865
  56.7785492  30.2760315  35.8251114  29.6757069  59.5821686   8.7310848
  29.2416573  60.3464241   9.1102219  29.3395042  58.8411674   9.2351866
  31.0040760   9.8909159  81.0830078  31.4405308  10.3746500  81.7842484
  31.1472073  10.4227390  80.3001251  54.9134674  15.7590818  20.3678970
  55.1064148  16.2013016  19.5411892  54.1890144  16.2592640  20.7436886
  21.6234341  66.4916611  37.0526428  22.3914070  66.6520920  37.6010132
  21.8978329  65.7975464  36.4533539  25.2353516  20.6437187  42.4463654
  24.7091885  19.9108467  42.7661819  25.5138187  21.1024990  43.2389603
  70.9026031  30.0684891   4.4329462  70.5550690  29.3653469   3.8842735
  71.7816925  29.7741089   4.6712327  13.8530426  35.2739792  30.2937508
  13.7271490  34.6960411  29.5411739  13.8471432  36.1560249  29.9220066
  41.4273605  61.5991020   4.5594177  41.5673752  60.7062073   4.2441955
  41.5451736  61.5396423   5.5074768  48.2730865  21.2187099  66.4528046
  47.7776146  21.7709923  67.0575562  49.1596413  21.5791607  66.4708786
  65.4604721   9.8916292  69.6104736  66.3016434  10.0559702  70.0366898
  65.5810013  10.2047024  68.7139893  50.1769714  12.8996000  80.8891678
  50.4631844  13.8130007  80.8930283  50.8698578  12.4334688  80.4213333
  57.7776108  64.9841766  62.7281532  57.8978119  64.9072952  63.6746597
  56.9566841  64.5242081  62.5528297  30.4500427  56.4438744  22.4789314
  29.8501301  56.7309151  23.1673679  29.8792915  56.0978279  21.7928352
  51.0173531  59.5229454  68.0932159  50.1918755  59.9366493  67.8408890
  51.3219566  59.0901222  67.2956467  24.1536427   2.3396719  23.3802433
  24.8345242   2.5903573  24.0045738  23.4692574   1.9425260  23.9188747
   6.9555101  29.6402836  51.5603104   6.7138906  28.9580288  50.9339066
   7.0417795  29.1795235  52.3948708  35.9307022  44.9489784  53.9171791
  36.0194130  45.4588699  53.1119652  36.8312569  44.7794418  54.1937523
  54.2466125  68.8236771  73.4582748  53.6916733  69.5422897  73.7613678
  55.1127357  69.0237656  73.8132782  70.5035782   1.5946456  70.6492996
  70.7005539   2.2747543  70.0051804  69.8905029   1.0113817  70.2018967
  60.1529465  59.5716095  72.1996536  60.5178070  60.3028145  71.7012100
  59.8681335  58.9460640  71.5334625  56.2183380   4.2997122  72.6943665
  56.6953621   3.5385809  72.3636703  56.5953789   5.0422587  72.2224579
  30.0992374  66.5596695  15.1275616  30.5882225  66.4798508  15.9465570
  29.6671562  67.4116135  15.1886415  76.6483917   5.3906307  61.0206032
  75.8277817   5.8587818  61.1744080  77.1631165   5.5427814  61.8131561
  81.8318863   0.9551569  42.7911568  81.3431396   1.7176296  42.4813309
  81.3104401   0.2045937  42.5065880  43.5737076  71.2881317  33.0838547
  42.6319313  71.1459045  33.1790352  43.6445885  72.1316452  32.6369820
   1.8858240  32.7615433   6.7482710   2.1340594  31.9748421   7.2337723
   1.3110155  33.2401848   7.3455396  11.3854408  66.1552658  35.3212318
  10.7315683  66.8457870  35.4301453  11.1177454  65.4727097  35.9366074
  71.2491760  54.9494400  33.6031036  70.4664154  55.3587227  33.9719048
  71.0675964  54.0102806  33.6383324   0.6534231  43.9991570  32.2251358
  -0.1759490  43.5278549  32.1460953   0.8035538  44.0632248  33.1683159
  64.1806641   6.3912811  79.4163895  64.8901138   6.7858181  78.9091873
  63.4154396   6.4509706  78.8444672  20.8029976  71.0187454  64.7177200
  20.1876736  71.1698456  65.4352036  20.2613525  71.0416260  63.9288445
  72.9108963   2.7218673  48.1082306  73.3862457   3.1985788  47.4277763
  72.3176498   3.3713231  48.4857178  74.8996811  46.0441284  21.8593864
  75.0150604  46.0572395  20.9092560  75.7614212  45.8070335  22.2020512
   9.3100348  41.7171936  13.8945637   9.3875847  41.4991455  14.8233662
   8.6219168  42.3817329  13.8611908  75.5795593  40.7519646  72.9851456
  75.0753403  40.8599243  72.1787109  75.0315094  41.1445694  73.6646576
  31.1034012  57.8214912  69.6880035  31.5800686  57.8538017  68.8585587
  31.6463795  58.3232422  70.2959900  67.5544968  47.7547455  33.7568398
  66.9909210  47.4585609  33.0420761  66.9771957  47.7863426  34.5196953
  63.7494507  36.5774612  40.0514984  64.5291901  36.0845299  40.3069382
  63.3022537  36.0098534  39.4237480  52.4820480   2.8975558  21.2742081
  52.6890450   2.4179327  20.4721203  52.1902161   3.7571762  20.9706974
  79.9928513  10.8421955  74.4764557  80.5379639  10.6332827  73.7178802
  79.5975571  10.0065403  74.7247620  56.4720535  58.8058090  22.5181141
  57.3392830  58.4202080  22.6424446  56.1380920  58.3925514  21.7219238
  52.0138588   8.3460035  30.6641865  52.0454369   7.4377937  30.9648342
  52.1561508   8.8653517  31.4555531  26.4767685  62.9958801  35.2369728
  26.7044563  62.2982521  34.6223946  26.6973400  63.8042068  34.7741699
  22.9909706  68.2189560  69.7498169  23.6568089  68.7934189  69.3718262
  23.4816608  67.4624100  70.0709076   1.9574816  52.5572014  64.5538864
   2.3230181  53.4418411  64.5488205   1.3886082  52.5286980  63.7845993
  76.2920532  58.1023903  11.7660742  76.2868805  58.0011063  12.7178869
  75.4426041  58.4936867  11.5622320  43.8886261  54.0271263  26.5301342
  44.3236389  53.7829781  25.7131958  43.7077179  53.1931381  26.9636822
   1.9774978  12.4425888  19.4997959   2.5520844  11.6858358  19.6155834
   1.9496957  12.8564253  20.3624649  66.0626984  58.9121552  58.8992310
  66.7440796  59.4876099  58.5516548  65.4054260  58.8724098  58.2045097
   3.3312881  47.7535324  79.3304825   3.2076471  47.3045845  80.1667786
   2.9521899  47.1603813  78.6818771   1.9728270  25.0977516  81.6270142
   1.5239590  25.1857185  82.4678574   1.6871145  24.2483463  81.2906952
  57.7758751  15.1182909  38.8412895  57.8928604  15.4348249  37.9455490
  58.2013016  14.2608709  38.8498039  76.5280304  21.7061386  58.0943298
  76.1060257  20.9068432  58.4094048  77.0952454  21.4124699  57.3814087
  14.7848902  36.2599411  57.1170540  15.0875015  36.0052490  56.2453918
  14.8128939  37.2167091  57.1102333  21.0206375  54.4296417  62.5047569
  20.2997265  53.8005371  62.4773865  21.5869427  54.1768417  61.7756310
  22.9909821  65.0761261  56.8268013  22.8206348  64.3512497  56.2253304
  23.2440434  64.6524048  57.6469536  37.4066429  64.4844284  65.8070450
  37.8835754  63.7414398  65.4372635  36.5360985  64.1373062  66.0016937
  28.6110859  68.7221451  36.0981178  28.3460751  68.1925659  35.3460884
  27.7886505  69.0499344  36.4619675   0.3523463  22.7629776  82.6113358
  -0.5044325  23.1576672  82.7737656   0.5554068  22.2906361  83.4187393
   3.5356283  54.0994606  49.7119598   3.3749423  54.9141731  49.2358742
   3.5800128  53.4286461  49.0305862  70.0458527  37.5979919  16.6308556
  69.2559509  37.1038475  16.8501835  69.7211456  38.3950920  16.2120132
   5.7529950  65.6502380  41.7098885   6.5311842  66.1721039  41.9056129
   5.0328422  66.1323853  42.1162758  24.8214722  57.1788254  59.8312340
  25.0210838  57.2108154  60.7668419  24.8507938  58.0929031  59.5486832
   2.7826381  49.6168175  27.2262001   3.5671508  49.1685829  27.5422001
   3.0378935  50.5378456  27.1734333  22.2400017  45.9049377   4.9492445
  21.7905159  46.7212906   5.1677909  21.9092121  45.6743774   4.0811138
   0.9490300  17.9946575  15.8169250   1.2888446  17.6262169  15.0014439
   0.0773257  17.6100044  15.9086065  54.4491577  42.4584618  26.1982708
  54.8059654  41.6011047  25.9662037  55.2180710  43.0212593  26.2891712
  84.1067123  49.3915482  37.0677643  83.4043427  49.6825294  37.6493492
  84.4632187  48.6121750  37.4940453  51.8548927  43.0834656  52.3614960
  52.7285271  42.6958160  52.4137039  51.5848274  42.9440002  51.4538383
  60.4661140  48.1122856  41.0317421  60.4935074  47.4161835  41.6881943
  60.3165054  48.9117241  41.5364685  50.1752281  48.2205620  16.5614567
  49.7612228  47.3576088  16.5494595  49.4782600  48.8241806  16.3043270
  66.9970551  70.5779572  71.2335587  66.2810364  70.2959747  70.6643066
  67.4097137  71.2999725  70.7595978  41.9124985  31.2813110  12.5249500
  40.9772949  31.3906746  12.3527164  42.1601639  30.5070248  12.0196028
  63.7814445  43.4486961   4.0535798  63.7548561  43.9261284   4.8827872
  62.8695908  43.4210739   3.7637668  33.2097092  13.0617838  73.0390854
  33.6614952  12.3836908  72.5367813  33.1267090  12.6931181  73.9185333
  47.3157997   4.3563547  84.6464462  48.1320038   4.5082679  84.1700287
  46.8100510   3.7770522  84.0764847  52.3247299  34.0706215  88.5462494
  51.9636650  34.8002243  89.0497818  52.2674408  33.3200150  89.1374741
  65.7380447  43.1059036  16.8899746  66.2354889  43.5172539  16.1831722
  66.3969421  42.6469002  17.4109344   5.8131590  24.4087486  59.9385719
   6.5242453  24.3706779  59.2989311   5.9726839  23.6642399  60.5186501
  60.3942528  25.8346958  47.7631798  59.6195183  25.7748585  47.2042198
  60.8509979  26.6179676  47.4564247  72.1326675  56.6241570  44.9441528
  71.5129395  56.8295326  44.2441597  72.9079666  57.1465187  44.7385330
  34.8726234  62.6204720  87.8780060  34.6772194  63.0831413  87.0631485
  34.9886475  61.7079201  87.6133881  52.8415031  66.8847733  30.4070435
  52.3832054  67.7222214  30.4768715  52.8874626  66.5611420  31.3067017
  53.9734116  20.3379612  34.8304443  54.2260628  20.3219757  33.9073257
  53.8764229  21.2677498  35.0361519  56.2081184   7.4076495  15.4962883
  56.0431213   7.6208420  14.5778351  55.3367386   7.2987576  15.8771696
  83.3030319  35.5072098  56.8447952  83.1915131  36.0474205  57.6270790
  82.6100235  35.7981071  56.2520523  47.6561623  52.6506653  70.0007858
  48.5028763  52.3616486  70.3410492  47.8737831  53.3299561  69.3624725
  26.7276573  67.6128693  34.1777229  25.8112030  67.7273483  34.4291916
  26.8916988  68.3124695  33.5453682  54.8280182  36.0294800  67.2378998
  54.9458351  35.1365128  66.9139328  55.2557602  36.0319901  68.0942078
  44.8304176  53.3062553  68.7307434  44.2306442  53.2612648  69.4753799
  45.6651688  52.9897957  69.0761032  71.4115753  14.6608229  31.8159695
  72.1180420  15.2993555  31.9130306  70.6291351  15.1906586  31.6633549
  80.4911270  44.3760300   3.8090272  80.3957367  43.4957695   4.1727281
  79.5967026  44.6489944   3.6047378  75.8465195  71.0378876  49.7804871
  75.7669525  71.9587860  50.0291939  75.5045776  71.0006409  48.8872223
  35.5301857   1.3714688  23.6704197  34.5863609   1.4129647  23.8243732
  35.7207985   2.1458819  23.1410961  22.8230381  22.0138760  66.6135712
  22.9409046  21.2090073  66.1090622  22.6163940  21.7136612  67.4986725
  68.1021729   4.5220280  78.7452011  68.7055130   4.5460396  78.0024719
  67.7169189   3.6463852  78.7126160  41.6101341  41.8768921  81.2401581
  42.4715691  42.2925110  81.2024689  41.7004967  41.0893402  80.7036667
  44.9878922  23.7188129  18.3679466  45.6908112  24.0471077  17.8072720
  45.2776985  22.8444538  18.6282139  71.8039246  22.9058647  15.1918602
  71.5609283  22.0661716  14.8018618  71.0173569  23.1903610  15.6572618
  43.1772079  58.7302246  38.2508392  43.4409180  57.8790245  38.6003304
  43.2060471  58.6183586  37.3006363   8.5125504   2.1702948  56.8469276
   9.4280787   1.9518101  56.6728477   8.0688734   2.0264466  56.0110512
  70.5084991  21.6752930  27.8737049  71.4534454  21.8032322  27.9570904
  70.3817062  21.4143543  26.9615269   9.8549480  42.3415489   7.4152374
  10.6087255  41.7524147   7.3840775  10.0978565  43.0716057   6.8458128
  83.0423279  61.8030548  39.0035591  83.4562759  62.3928528  39.6336555
  83.3611832  62.1007805  38.1515503  18.5167503  18.5957203   0.8712220
  17.8516674  18.4415379   0.2003102  19.3386478  18.3288822   0.4595018
   8.8664837  15.7664776  74.6658096   7.9477592  15.7883377  74.9335709
   9.1963463  14.9361057  75.0091782  76.8265686  55.5242157  23.0572529
  76.8076019  55.6646080  24.0039120  77.7505112  55.3763695  22.8555088
  62.1999207  57.0541954   4.1524477  62.0771408  57.6547394   3.4172575
  61.6513367  57.4137344   4.8495951  78.5036697  40.9451828  72.8627701
  78.7922668  41.7030449  73.3712845  77.5552063  40.9190598  72.9891434
  72.6312714  10.6509790   0.9124209  73.2272644  10.2150221   0.3033490
  73.1959991  11.2233782   1.4317216  78.8398438  33.2850456  82.2520676
  78.3790283  32.5374565  82.6328430  79.2715302  33.7046585  82.9962540
  19.1681538  49.3573341  87.4725342  18.8417358  49.6313248  86.6154404
  20.1052856  49.2162094  87.3380051  48.2981911   8.8995819  22.6713848
  48.8485680   9.4298162  22.0950432  48.8144302   8.1105633  22.8362503
  80.5369492  27.3832645  10.8843784  81.1047363  27.5006771  10.1227589
  79.6591187  27.5884666  10.5626078  38.4111252  19.8240929  73.5714569
  39.2498245  19.9631786  73.1315994  38.6355171  19.3445549  74.3689041
   7.5543118  49.0102081  28.8898010   7.2600265  48.1967850  29.2996445
   6.9318714  49.6706161  29.1942024  48.3323212  51.1962471  46.0955009
  47.8242760  52.0074348  46.1053886  48.2365532  50.8428612  46.9799080
  56.7347145  69.4043121  82.4843750  57.1672478  68.7786407  81.9032669
  55.8926811  68.9979935  82.6896210  80.9565811   4.0270882  58.1856956
  81.7917709   4.3072829  57.8112831  81.1965790   3.5723405  58.9930611
  60.2498779  38.1793556  55.4042549  60.6420631  37.9871902  54.5524940
  59.3536797  38.4467812  55.2004356  45.5516968  40.7537460  49.7506294
  45.2699585  40.2667999  50.5250587  45.0798798  40.3442192  49.0254364
  10.3172722  56.2577553  56.1308746  10.0929070  56.7552414  55.3444901
  10.6997919  56.9053383  56.7229462  52.6221848  28.3252354  33.9054184
  53.2663002  27.9508247  33.3044510  52.2301750  27.5672302  34.3389931
  65.7210464  67.2874451  62.4470406  65.4612808  66.4141006  62.7403259
  66.4709473  67.5119095  62.9979439  31.5669098  51.8951225  31.7787857
  32.1343765  52.1139717  31.0396500  31.7032890  52.6066742  32.4043465
  49.8622475  60.1754456  14.9129705  50.4839439  60.8952637  15.0206366
  50.3414536  59.5186272  14.4078150  66.2545395  43.6940842  79.2532120
  67.1455765  43.7579155  79.5970306  65.7238007  44.2009239  79.8677597
  53.2130013  22.8334045  76.2776489  52.9124298  23.2053223  77.1068420
  52.4173660  22.7432976  75.7531662  72.1245956  58.5283203  11.4930668
  72.9918976  58.9191284  11.5992928  71.9824829  58.5143394  10.5465784
  80.6554947  27.5676785  33.6889114  79.7413254  27.6044292  33.9702988
  81.1589890  27.6715698  34.4963341  42.9261780  15.0094090  65.8174362
  42.4480133  15.8083477  65.5954208  43.5661545  14.9096298  65.1126633
  50.8794594  23.1707859  68.3280716  51.8166542  23.3190155  68.2018585
  50.5762939  22.8258286  67.4882355  54.2091026  10.1167822  79.1298141
  53.3019753  10.0008097  79.4124832  54.7302513   9.9046888  79.9041901
  69.2309494  46.5721626  40.1193123  70.0913239  46.8520584  40.4317894
  69.3433685  45.6458778  39.9057846   2.6736867  48.3194504  55.5902023
   2.7487779  47.5735817  56.1854134   2.2324147  47.9660149  54.8178062
  37.3550682  71.4563904  22.5544109  36.4498558  71.7657623  22.5877686
  37.3535957  70.6546478  23.0773315  35.9272728  53.6010971  14.2077389
  36.6765938  53.1598549  13.8076696  35.2783813  52.9080772  14.3297720
   0.6748992   8.3732176   8.0418730   0.9364542   9.2036905   8.4395361
   0.2947569   7.8715644   8.7630301  46.3802109  41.1998138   6.6965842
  47.0624886  40.5958557   6.9897833  45.6576920  41.0603828   7.3087583
  67.9194946  56.5977020  20.9736938  67.7628708  55.6869736  21.2232437
  68.6137695  56.8916397  21.5634518  72.8353500  64.5794678  36.4565277
  72.5541763  64.7789078  37.3494987  73.7842712  64.4725113  36.5224724
  44.7986031  70.9736481  19.2977867  44.9618530  71.8717117  19.5859966
  45.0018616  70.4358139  20.0630684  42.4703255  60.3830528  46.5921669
  41.6286430  60.6154823  46.9843140  42.6614761  59.5101204  46.9352112
  83.6367874  38.4219589   7.9380589  83.7525864  39.3310471   7.6616955
  83.0202789  38.4704094   8.6686754  39.1901054  71.0899353  17.7451611
  39.5981522  70.3360672  17.3192329  39.0994225  70.8274231  18.6611824
  36.9462967  41.0796738  71.9784088  37.6326637  41.5840874  72.4151001
  36.5962944  41.6751366  71.3157196  17.6401997   5.4248238   8.7132387
  17.4466953   4.7659087   8.0464411  16.9519863   6.0816760   8.6076937
  31.7485428  43.2734985  76.2860107  32.1641273  44.0109482  76.7328720
  32.4793320  42.7510643  75.9554901  37.4493484  66.1942444  68.2468262
  37.2322540  65.5628128  68.9326782  37.7445602  65.6571732  67.5115433
  35.5468597  47.1143532  17.1889114  36.1034470  46.6163902  16.5901814
  34.9081116  46.4769325  17.5081768  61.2503319  45.6016502  55.4544373
  60.7116432  44.9185524  55.8537216  60.9572563  46.4119873  55.8711967
  36.3756485  34.8762436  71.5305481  36.1778641  35.7744560  71.7957458
  36.5830231  34.9418907  70.5983887  43.4432220  32.7247925  69.5859070
  43.2323189  33.6365356  69.3847198  44.3999710  32.6961823  69.5928192
   9.8032846   6.3780127  72.9938507   9.2756567   6.7875605  72.3082047
  10.6560736   6.2316103  72.5845184  70.1013489  20.4198322  46.2008171
  70.6969986  20.6290741  45.4813385  70.6238556  19.8818016  46.7955742
  35.7125320  11.4737873  11.5843935  36.0075493  11.2223024  12.4595795
  35.3409119  10.6717129  11.2172318  55.1111374  70.9795685  37.2100143
  55.9321251  70.4877243  37.1925774  55.0169945  71.2562408  38.1215096
  55.7852554  16.9626961  59.9857712  55.0264206  17.2515469  59.4788551
  56.3574753  16.5438995  59.3428040  29.7820091  11.6255617  13.0010042
  28.9877834  12.1524839  13.0892706  29.5632801  10.9720640  12.3366766
  43.0508652  32.4471283  30.2918072  42.5467758  32.6549683  31.0785255
  42.4181557  32.5158272  29.5768318  48.3432198  44.3299522  81.8097992
  48.1108780  43.5530357  81.3012238  47.9676399  44.1705437  82.6756897
  84.4379654  41.2130127  42.0547066  84.2786560  42.1508751  41.9485588
  84.3281250  40.8504181  41.1756783  36.6524734  25.2199230  84.9881287
  37.4187241  25.5073528  84.4916687  36.9773750  24.5078163  85.5391006
  79.4523544   6.2384548  58.1720467  79.4562836   6.7155333  59.0018730
  80.2721329   5.7443056  58.1759834  18.5412922   4.2590256  72.7751465
  19.1716156   4.8311505  73.2128677  17.7355175   4.3580856  73.2822418
   1.5998133  57.8050919  63.4354439   1.5339365  57.7465515  62.4823112
   2.5373647  57.8960876  63.6055908  38.5246048  17.7227764  10.1241493
  38.3804321  17.6334438   9.1820946  39.4712105  17.6297703  10.2314634
  32.7732620  65.0042801  48.7462959  32.2576180  65.6402206  49.2421951
  32.7815895  64.2212601  49.2967911  10.4200487  37.2395706  64.9073410
   9.6954212  37.7278366  64.5165176  10.9764338  37.0020103  64.1655579
  14.3444176  43.8118591  86.1735001  15.2893820  43.9165802  86.0625534
  13.9661989  44.1992607  85.3841324  57.1231155  57.5913239  69.6582565
  56.2875252  57.7663841  69.2253876  57.3682060  58.4281044  70.0531769
  70.9141922   9.1312084  44.8441887  71.6827316   9.6906815  44.9563141
  70.9536514   8.8504534  43.9299393  29.0463562  53.3743362  82.0053177
  29.7584515  53.8501816  82.4327850  29.4856815  52.6967201  81.4914551
  54.9112053  22.0280800   2.4789443  54.0453110  21.7287140   2.7561421
  55.4816589  21.8321133   3.2221882  62.9207382  16.6368103  38.9281044
  62.9619141  16.0912914  38.1426430  61.9958534  16.8694534  39.0099220
  37.7497597  65.3156815  30.7561512  38.5421600  65.2965317  31.2927780
  37.7138786  64.4491959  30.3509884  18.2611675   6.4812813  68.2343826
  17.5318642   5.8746705  68.3623352  18.1749554   6.7713242  67.3262711
  27.0207176   8.9944763  11.7072430  27.1997452   8.0986233  11.4215345
  27.7943687   9.4904165  11.4394016  82.1599121  52.7729683  49.9964981
  81.5786362  53.2688828  49.4199448  82.3957443  51.9966431  49.4886284
  25.5743351  11.3427439  72.1757202  24.8719597  11.5915165  72.7765656
  26.2589664  10.9865379  72.7419662  52.3077660  69.8870239  42.1043434
  52.1861763  70.4234619  41.3209610  53.2574310  69.8192368  42.2031822
  83.7098160  57.9993019   2.1378865  83.4341049  58.8562813   1.8126128
  84.6539383  57.9763184   1.9818902  36.5390396   1.6065481  74.9796906
  36.3777008   2.5493376  74.9429626  35.6795120   1.2230753  75.1540222
  79.0206146  53.1644936  10.3707952  79.3089142  52.2926216  10.1006966
  79.2302170  53.2077293  11.3037634  74.9208298  13.4975080  13.4056721
  74.5087204  14.2278299  13.8672180  75.4893875  13.0910702  14.0597286
  22.8045826   9.3068771  84.4936447  23.3950024   9.8798170  84.0043869
  23.2079582   8.4408169  84.4348221  64.3633423   2.6088638  43.4316063
  64.5647964   3.3093662  42.8111687  65.1199799   2.0242910  43.3867836
  75.3264008  32.5385361  19.3551292  75.4774933  31.6413002  19.6524067
  76.0109558  33.0516014  19.7845192  55.0481262  55.1312256  47.6881638
  54.8989792  55.2121925  46.7461281  55.2428398  54.2034950  47.8209648
  26.4054508  43.0972290  40.7797508  26.5042019  43.9649162  40.3878326
  25.5067825  43.0840340  41.1090736  72.4035110  62.3781433  22.8141403
  72.9933701  62.1590157  23.5354462  72.4564362  63.3311958  22.7425518
  40.6977692  41.0485420  26.1722736  41.3691025  41.6875229  26.4115372
  39.8724365  41.4621544  26.4252186  34.0554276  69.5199280  69.1481323
  34.5023346  70.2123260  68.6612167  34.4089508  68.7068787  68.7872925
  63.0046272  35.2920189   0.0802426  62.9650307  36.1045837   0.5846242
  63.9392471  35.0958862   0.0150474  41.7596588   4.1545253   5.1715379
  41.8700523   4.5425196   6.0395851  41.1238060   4.7213564   4.7349319
  34.1975822  64.2195816  14.3562212  33.9620590  64.8605423  15.0269871
  33.5209274  64.3147354  13.6859121  71.2425232  16.4039555   3.9696085
  71.6256180  16.2495003   4.8330989  71.0099106  15.5317192   3.6512842
   1.0693679  51.7450447  54.4860497   0.8766298  52.6515808  54.7253761
   0.9673053  51.2550507  55.3019676  73.5396500  42.8880424  40.4590416
  73.4161301  42.5127754  39.5871773  74.4155731  42.6038513  40.7202263
  58.2276230  64.6542740  45.5372429  57.5789909  64.2244263  46.0946808
  57.7931557  64.7431641  44.6889687  39.1282120  30.8004227  12.3727074
  38.6618652  30.0243893  12.6833935  38.6982002  31.0237694  11.5472145
  72.4119186  61.3431931  76.7402802  72.3339615  61.6686630  75.8434982
  71.9942169  60.4821854  76.7197571   2.4236047  41.5025787  68.3148956
   3.1395512  42.0472069  67.9877396   2.7966530  40.6226120  68.3671341
  62.1368828  14.0518570  78.0733185  62.0051613  14.9875641  77.9205627
  61.2696266  13.6650934  77.9528656  73.6265411  53.1251793  12.6013813
  74.3911591  52.6982574  12.2149496  73.1988907  53.5626297  11.8651867
  67.7525406  26.7931385  24.4715309  68.1781616  26.0010929  24.7997704
  66.9123154  26.8207607  24.9292316   8.6401739  32.7360802  54.2268181
   9.1550655  33.4605331  53.8714485   7.9678955  32.5729141  53.5652657
  14.7179804  17.3002815  83.3990326  14.9080029  16.9776096  84.2799454
  14.8730240  18.2434216  83.4507980  85.2378769  29.2731552  55.3261566
  85.8853073  29.0302715  54.6642876  84.9296341  28.4378452  55.6775475
  34.8976746   4.5245023  74.3690948  34.3412285   4.9642887  75.0118942
  34.3322296   4.4024282  73.6064682   2.2507596  35.0690193  87.2552338
   3.1598883  35.3472481  87.3661652   1.7484947  35.6643906  87.8115540
  73.3738098  70.4988937  21.2970562  73.5139160  70.7781448  22.2018299
  72.5241547  70.0583115  21.3112221  67.3439713  49.6004257  75.2560501
  67.2511826  48.6491089  75.2048416  67.6985092  49.8527298  74.4034805
  11.8223886  28.9393902  59.1889153  11.6623487  29.1375332  60.1116066
  10.9741182  29.0702972  58.7652016  16.1544704  14.0015774  42.7316284
  16.7002277  14.6593599  42.3006935  15.3143730  14.0512800  42.2755585
   1.1837099  30.8968334  77.1380386   1.9042051  31.4153118  77.4962234
   0.9346918  31.3551598  76.3354416  42.2280693  21.9528236   0.6509163
  42.7611542  21.9053802  -0.1426848  41.6811104  22.7283688   0.5260305
  60.7953072  56.7715149   8.3945637  60.1765442  56.4099083   9.0290747
  61.1941986  56.0039177   7.9847884  17.1247768  69.0428543  27.8968449
  16.8203144  69.9486847  27.9517574  17.9200535  69.0892334  27.3661709
   5.1859541  63.7693405   5.1417379   5.4389205  64.6193390   4.7815404
   6.0129819  63.3001633   5.2518749  33.4716339  32.0553093  59.1569633
  34.3447189  31.8309021  59.4788246  33.6024704  32.8548584  58.6472244
  54.3748398  54.8639145  27.4146862  53.5112457  55.1737328  27.1418247
  54.4390450  55.1145439  28.3362560  20.2601414  69.8299561  42.1905289
  20.8563576  70.4745560  41.8094101  19.4833851  70.3349609  42.4310570
  17.5737114  71.1240692  56.1243744  17.8829651  71.9861984  55.8462982
  17.4200821  71.2165298  57.0646324  25.6203575  56.6734543  65.4384766
  24.7324791  56.3859749  65.2257309  26.1832848  56.1632309  64.8562241
  26.1209183  61.5871544  79.5583572  26.5341930  61.3974724  80.4006500
  25.2542057  61.1857605  79.6210327  37.7331924  12.5302515  77.9113312
  36.9937325  13.1002407  77.7002869  38.1567993  12.9539814  78.6578140
  73.0576401  61.6562881  72.1743622  73.7019730  61.8916855  71.5067902
  72.5382538  60.9606476  71.7711868   7.9909744  68.1987381  81.1497040
   8.7743235  68.2941208  81.6914597   7.2652893  68.4010010  81.7402115
  72.8378220  19.8754940  28.7983971  72.8897400  20.8309994  28.8217316
  72.5190887  19.6743641  27.9185162  82.7073364   4.7266259  70.0492783
  82.3434601   3.8567522  69.8845139  83.3800201   4.5827222  70.7148743
  43.4165840  35.9855919  65.4736404  43.2936172  35.0830078  65.7676773
  43.2131920  35.9626884  64.5385818  30.9608803  29.1296959  88.2800980
  30.7515392  28.5969353  87.5129089  30.1359844  29.5599003  88.5052719
   2.6859977  22.3479252  50.4827957   3.0888534  23.1223030  50.8755760
   2.1357539  22.6944103  49.7803650   7.9954362  52.1141510  34.2718811
   7.6511159  51.2310295  34.4051895   8.4528551  52.0686722  33.4322777
   7.0305510  11.6599636  13.1642132   6.2627020  12.0334167  12.7315788
   7.4810925  12.4137125  13.5451422  49.6004143  24.8143597  52.6438370
  49.0986938  25.5058365  53.0755424  49.0074005  24.0631771  52.6267853
  79.3054886  62.3428497   7.0446725  79.0163879  63.0511513   6.4693813
  78.6709824  62.3422813   7.7613502  45.8991127  18.5478001   2.8073957
  45.2352600  18.3420963   3.4655893  46.7320976  18.3651314   3.2421341
  76.1279221  48.5368576  77.1561661  76.1071701  49.4790039  77.3239746
  77.0154877  48.2703819  77.3958511  81.6149292  34.7555885  81.4792557
  80.9385452  35.4315643  81.4369431  81.3763275  34.2252769  82.2395706
  32.6484833  53.9604416  58.5047607  32.9511108  54.8673820  58.5506783
  33.4432449  53.4503746  58.3484917  12.6753969  66.0627823  74.4469147
  12.7620907  66.2030716  73.5040283  13.0297165  65.1855164  74.5921173
  26.4333782  61.5138245  20.0998325  26.4770908  61.7311363  19.1686516
  26.4757004  62.3599014  20.5454750   7.2597389  49.5650177   6.4673705
   7.9492469  49.4226952   7.1158724   7.4574018  48.9430161   5.7671771
  83.2482910  55.5198059  45.5350227  83.8620071  55.7659645  44.8429260
  82.5553741  56.1783676  45.4860687   8.2639122  67.7738953  12.5534554
   7.5981188  67.3331223  13.0813475   8.9595661  67.1239853  12.4538870
  70.9799728   4.5216784  49.4767418  70.5101547   4.0945845  50.1930428
  70.2902832   4.8783202  48.9169540  86.4048080  18.8723335  70.3864441
  87.3407974  18.6747284  70.3531036  86.0049362  18.2390213  69.7904205
  73.2183838  70.4119339  75.5725403  72.8779297  69.9863663  74.7856369
  72.6482544  70.1040268  76.2770767  18.1288471  36.9290695  86.0669785
  18.5976505  37.5761147  86.5940323  17.2095413  37.1876106  86.1322937
  58.2095451  59.1064911  29.0368214  58.8491058  59.7056580  29.4217777
  57.8951759  59.5614052  28.2555046  31.5775013  50.2822876  23.7227631
  31.0090504  49.9360847  24.4106865  31.7475414  49.5324402  23.1526375
  59.2315865   9.8371143  32.7659912  58.3247414   9.5638475  32.9045181
  59.7538376   9.0867634  33.0496445  68.4671173  42.7086105  17.5150471
  69.2893677  42.5547867  17.9803104  68.7340469  42.9201660  16.6204948
  17.6019669  68.7176895  30.7613468  17.6835899  68.7456131  29.8080425
  17.9170570  69.5729065  31.0538597  39.0287361  55.9768829  87.3009872
  39.3819885  56.4436531  86.5436478  39.1232262  55.0510330  87.0771484
   4.8600636  21.8299313  67.0777969   5.0941105  21.6146317  66.1749649
   5.5487480  21.4267921  67.6063995  44.3459396  59.5597725  33.0670700
  44.4163589  60.4643784  33.3719711  45.1986122  59.1729393  33.2659073
  42.9254303  27.7001591  78.4009476  42.0077934  27.8631058  78.1827240
  43.2818451  28.5660858  78.5993729  52.8779182  52.8741302   5.7363324
  53.5267715  52.4829597   5.1513457  52.1385384  53.0859261   5.1665144
  61.9928207  42.7764168  66.5245285  61.3052483  42.1910858  66.2069321
  62.6944885  42.1901817  66.8077698  68.2085495   9.8965502  68.3751373
  68.8491211  10.5966530  68.2495880  68.4847870   9.4609394  69.1814728
  14.1609459  48.1446953  79.3788452  14.3303118  47.2196083  79.2006378
  14.2724838  48.2305527  80.3256378  74.4510422  43.2481499  17.5204334
  73.7180328  43.5934563  17.0108337  74.8836517  42.6312790  16.9300518
  42.0312920  44.2434959  76.6910782  42.1078644  43.4467850  76.1660843
  41.0962982  44.4482231  76.6807022  59.2759819  19.3777542  38.4977913
  59.9873772  19.9155388  38.8455467  58.4813118  19.7658138  38.8640518
  73.0878677  64.8481369  73.8918152  73.4784851  64.1863403  73.3211365
  73.7110748  64.9410477  74.6123810  42.6170883  55.8526459  62.3703232
  42.4591217  54.9741249  62.0246582  42.0923920  56.4272804  61.8128967
   6.0928550  40.3829231  62.8608665   5.7864623  39.7586288  62.2031326
   6.2640138  41.1854286  62.3679962  81.0292740  29.0363503  58.3533096
  81.9332504  28.9225273  58.6467514  80.6162567  28.1881866  58.5153809
  65.4982529  54.2464104  29.8582821  65.3800125  53.4982262  30.4434929
  64.6485977  54.3524513  29.4304161  28.2396278  63.0751076  23.0078430
  28.1445293  62.1814003  22.6784878  28.5811920  62.9681244  23.8956051
  45.6529884  53.2790794  71.7741699  45.4326973  53.4275284  72.6937714
  46.4996490  53.7102661  71.6580811   1.0991063   0.8240311  56.0852203
   1.6328024   1.3918668  56.6410637   0.2039792   1.1392365  56.2102203
   6.7614388   9.5537987  85.9696503   6.1140184   9.6809139  86.6631393
   6.6863875  10.3375778  85.4253311  24.2862244  46.3097343   9.8111801
  24.7659206  47.0769768   9.4989920  24.2277107  46.4330101  10.7586031
   6.9609990  18.2633781  84.0559006   6.2147093  17.7543030  83.7394714
   7.6738582  17.6279526  84.1214447  25.1163597  40.8121681  11.2338495
  24.3984451  41.1931419  10.7281923  25.9050465  41.0488167  10.7457914
  69.2955093  51.1103935  66.5761032  70.0211639  51.6700821  66.8525391
  68.8924561  51.5830421  65.8478317  50.2083969   0.8309370  14.4418182
  49.8513489   1.2505599  15.2245464  50.9563980   0.3259989  14.7608261
   0.4351625  35.0185547   7.8423142   0.0420775  35.4412308   8.6058979
   0.9532163  35.7080727   7.4270821  21.4645786  48.4769478  49.4877052
  21.6690750  47.5844231  49.2087593  21.5150051  48.4467773  50.4431000
  50.0471649  10.5662689  47.6521378  50.5790100  10.4454803  46.8655128
  50.2632904  11.4484539  47.9542465  37.4667549  31.8997288  62.4046478
  36.8313332  32.4552765  62.8561287  38.2008324  31.8306179  63.0150452
  63.3120689  65.3060455  86.8641891  63.8961868  64.7437057  87.3729401
  63.5120926  65.0961990  85.9519501  55.8215942  61.3128853   5.9218230
  55.8631668  60.3576088   5.8776283  55.8019066  61.5943413   5.0071492
  48.3436699  55.7387543  60.4263687  48.1316261  56.6600761  60.5761566
  49.2508812  55.7483215  60.1212311  62.5113754  33.1664772   5.7807317
  62.9762878  32.5929756   5.1714826  61.9660339  32.5741730   6.2984314
  29.8097343  29.9703846  63.3114548  29.1481991  30.0144863  64.0018616
  29.5138454  29.2608166  62.7411957  16.9391575  10.4555130  72.0392685
  16.5606842  10.7699337  71.2182159  16.2548599   9.9080229  72.4242706
  35.0488663  39.1123581  74.6808472  34.4929276  38.5122833  75.1779175
  35.4195518  38.5726204  73.9826279  43.0802231  18.5229530  59.6345558
  42.4150314  17.9224548  59.9709396  42.6591682  18.9547958  58.8912849
  84.0524445  44.6194572  80.8841400  84.4167862  45.4990959  80.9827499
  84.4557114  44.2814293  80.0845490  67.4094391  43.6426964  83.9076920
  66.9954300  42.7917557  83.7637177  68.2686539  43.5642166  83.4931717
  51.0431366  38.7331009   1.6469214  50.1138000  38.5147934   1.7169890
  51.2372208  39.2150726   2.4508281  60.8951836   9.3036470  55.7426987
  60.4917679   8.9189672  54.9645538  60.3751030   8.9680510  56.4728508
  45.5851822  71.1954956  23.2167740  44.6336288  71.2661896  23.2928391
  45.8574371  70.7524109  24.0203800  54.3192024  51.6807404  78.6818848
  54.8917274  51.1426506  79.2286072  54.4718628  51.3644981  77.7914276
  28.5938530  52.3296318  33.1220207  29.3927765  52.3980446  32.5992661
  28.0312901  51.7371674  32.6232834  28.5291862  57.8327751  48.1435509
  27.9161682  57.2746429  47.6650848  28.6269245  57.4063377  48.9949226
  26.5302353  29.5096474  15.6173401  26.2617264  28.5940952  15.6941481
  25.7704792  30.0081139  15.9182262  63.6527901  54.1276245  37.2417984
  64.1144333  53.3684464  37.5978394  63.0755577  53.7637787  36.5704956
  41.5921669  63.1535988  63.7527657  42.0243835  63.4127579  62.9389763
  41.4150429  63.9793167  64.2033691  26.9018784  41.6470604  77.9220963
  27.2880573  40.7845879  78.0745392  27.3464603  41.9736824  77.1398544
  83.9518661   0.4539302  87.6503448  84.5557556   0.4720359  88.3927841
  83.5370865  -0.4073075  87.6999283  63.5571175  42.6059151   9.2131357
  63.9633484  43.0357361   9.9657726  62.6379356  42.5068970   9.4611931
  83.3765945  47.9258347  22.9817619  82.8735733  47.8125877  22.1753025
  84.2436371  47.5774612  22.7741528  83.6424179  25.2032433   8.5382986
  83.7826004  25.1785812   9.4848566  84.5213318  25.2848167   8.1680527
  18.0737057  18.1117249  11.2852077  18.5646515  17.7206211  10.5625448
  17.9835529  17.4045296  11.9239397  58.9023323   4.5331674  83.8759995
  59.8458176   4.3805876  83.9287491  58.5360794   4.0200148  84.5962524
   6.9844699  39.9377975  53.2907295   6.1763291  39.6762733  52.8494301
   7.1804667  39.2110252  53.8820190  55.9449539  61.6149902  21.7989635
  55.9923058  60.6699142  21.6546803  56.6249924  61.7924385  22.4488029
  71.6895065  12.2482195  26.7841511  71.9462967  12.6466761  27.6157303
  71.2200165  12.9419851  26.3210125  23.8091927  12.5092936  74.0936813
  24.2962532  13.3081236  74.2958527  23.2091522  12.7654181  73.3932648
  10.7642231   7.0167823  65.6159897  10.8780661   7.2682624  64.6994553
  10.1226425   6.3068433  65.5916443  66.7654724  56.6200905  31.2871342
  65.8768311  56.2673798  31.2409191  67.3196182  55.8542290  31.4375095
  65.3878098  56.8898125  77.4574203  65.5867004  57.6558037  76.9189682
  66.2269287  56.4390602  77.5519180  32.1442719  35.6754608  56.3604240
  31.7039433  35.9011803  55.5410347  31.7153664  36.2198448  57.0206680
  41.3783836  37.3689461  67.0578918  42.0654793  37.0851250  66.4549179
  40.8266068  37.9509811  66.5353851  53.9782562  10.1831856  86.0318451
  53.4603615   9.4291220  86.3136368  54.4459496  10.4604006  86.8196564
  58.6065826   6.4355273  16.7140923  57.8888359   6.9040098  16.2879467
  59.3371620   6.5066242  16.0997429  63.0786552   9.7160120  72.9973907
  63.7459831   9.6945667  73.6832809  62.3907700   9.1305742  73.3141022
  52.0633087   2.8224089  88.4583511  51.4720459   2.9749129  89.1954956
  52.6367073   2.1151032  88.7535934  30.9715366  18.9380779  69.6234283
  30.5796204  19.6038265  70.1885986  31.0552349  18.1669006  70.1842422
   3.7506468  45.5488205  34.2879295   2.8361201  45.3675728  34.5047760
   3.7374749  46.4282188  33.9101562  23.8779488  54.4473381  61.8106842
  24.1382904  53.5307922  61.7190552  24.7001686  54.9170341  61.9505882
  57.2615547  26.8719883  62.1547546  58.1555977  26.5445137  62.0563774
  56.7341194  26.2994480  61.5977631  76.4481125  69.4339447  70.3344498
  77.3236618  69.3862152  69.9505539  76.2448883  68.5314713  70.5803680
  71.1733856  11.0568810   8.2132273  70.7373962  10.2633209   7.9027290
  71.1311493  10.9955931   9.1675291  47.2387314  23.3280182  85.8753510
  47.3181992  22.3791771  85.9734268  47.3549271  23.4824715  84.9378662
  42.6897354  29.8813515  81.7838058  42.2488708  29.0382442  81.6787491
  42.5945435  30.0871735  82.7137604  49.3363991  57.3223267  85.3534393
  49.8371849  56.5337296  85.1447296  50.0006218  57.9943771  85.5063705
  37.2329865  -0.2283868  11.8497190  36.9786720   0.6869482  11.7325983
  36.9377327  -0.4478153  12.7334089  40.7393684  39.0153198  64.4499664
  41.3208504  39.7337112  64.2009277  39.8786659  39.2804680  64.1257553
  29.1518364  59.0409889  75.5764618  29.2074871  58.2509079  76.1139603
  29.0682907  59.7551384  76.2083206   5.8764377  65.0959091  38.3845253
   6.0200338  64.8632507  37.4672012   5.9463301  64.2657700  38.8559303
  12.7451200  55.3105316  74.5015640  12.8764477  54.3739815  74.6494064
  12.8872156  55.7106705  75.3594284  49.9311142  67.7931290  46.4969101
  50.7481003  67.4862366  46.1037407  49.6190414  68.4735870  45.9004097
  16.7048302  48.7359962  73.9822845  17.1552372  48.3383179  74.7274170
  15.9114904  49.1177711  74.3579102  74.1456604  29.8461514  44.5652466
  73.5782166  30.0082321  43.8116112  73.5888290  30.0155830  45.3251534
   0.3890917  57.0412903   5.4843907   1.2272836  57.1942101   5.0481772
  -0.1338047  57.8156700   5.2766709   3.4993153  62.6231651  14.2587166
   3.9471703  63.4589653  14.1279535   2.6635675  62.8596344  14.6610107
  53.3312035   2.5116451  76.8917618  52.5586090   3.0670748  76.7876968
  53.7085075   2.4591789  76.0136261  62.3027496  32.0528526  39.0366669
  63.0494499  31.7524624  39.5547714  62.3805084  31.5800915  38.2080002
  77.4904633   3.4455545  53.8956680  77.3335190   3.9414010  53.0920906
  78.1667404   3.9427922  54.3557053  72.9001312  47.9189186  20.8388958
  73.5581589  47.2911110  21.1373749  72.5131073  47.5103340  20.0646191
  21.1056290  58.8789711   0.5824884  20.7377186  58.0433502   0.2950671
  20.4929428  59.1946106   1.2467307  64.4524689  16.7009125  64.5558929
  65.0279999  17.2855949  64.0627975  64.7841873  15.8230915  64.3671417
  53.0488625  67.7121582  64.2243347  52.7116165  67.3258133  63.4160995
  53.7216339  67.0989914  64.5203629  17.3677444  16.4427795  72.5421066
  17.5620308  15.5084400  72.4679794  17.5435352  16.6519279  73.4594879
   5.8935533  64.5563507  80.8450623   5.7354307  64.8705368  81.7352982
   6.7229161  64.9616318  80.5918121  36.6472664  42.9094009   2.7612221
  36.1772995  43.7284546   2.6046593  37.4432564  42.9856529   2.2350903
  68.8872070  69.5436859  82.3918762  69.0820770  69.6036377  81.4566422
  69.7255859  69.3228226  82.7975464  43.4851837  67.9180679  48.5179214
  43.6281738  67.4242096  49.3253212  43.7446175  68.8133469  48.7356300
  20.6125965  44.0061531  51.1513596  19.9605942  43.9913559  50.4507103
  20.1119232  44.2146606  51.9400787  81.2112045   4.4447112  13.8786354
  80.7511902   4.7691078  14.6528320  82.0033646   4.0341201  14.2252398
  49.5769997  36.7214127  62.4865799  50.0108147  36.6301346  61.6382294
  50.2941284  36.8187714  63.1130638  30.6728401  51.3461990  20.8602676
  30.8061447  51.5902786  21.7761745  30.3585510  50.4427910  20.8964500
  74.4264603  50.9328766  16.1138992  74.7224121  50.1714745  15.6149893
  73.4738388  50.8442039  16.1436615   7.7899761  41.9989471  76.5589218
   7.7034893  41.6271210  75.6811447   7.6452174  41.2585106  77.1480103
   7.2692423  29.0202980  76.1430664   6.7331605  28.8015137  76.9052887
   7.7325315  29.8184223  76.3972168  42.5240669  24.3819275   6.8924274
  42.6962013  24.9182281   7.6663685  41.8885536  24.8883820   6.3866029
  75.0869751  12.9123182  39.2096252  75.2140427  12.3974342  40.0064812
  74.4373779  12.4202175  38.7075348  57.8758011  60.1521530  10.0862255
  58.6837730  60.5404587   9.7506199  58.1259308  59.7672234  10.9261637
  80.9787216  28.3184452  76.1930847  81.5658569  27.8318634  76.7716522
  80.3046494  27.6846352  75.9478455  45.7278137  68.4757309  45.3806763
  46.4575920  68.5793762  44.7700081  46.0468788  67.8502731  46.0312347
  61.3583145   1.1211661  36.2994728  61.3775330   2.0709794  36.1823502
  62.1871109   0.9164021  36.7323685  32.8832664  11.6241598  62.0646667
  32.9396667  10.9251757  61.4131546  33.7309990  12.0659781  62.0159340
   5.4466243  14.6527729  80.9931335   5.2891297  15.5537920  80.7110138
   5.3354650  14.6764860  81.9435654  33.1977272  60.8979073  22.1757030
  34.1330986  60.7016487  22.1228638  33.1496773  61.8522377  22.1193256
  42.4336319  53.5239105  33.7723236  42.4581375  52.6583214  34.1802216
  41.5682144  53.5729218  33.3662682  25.7862549  19.1562958  63.6631241
  26.6385441  19.4737091  63.3646545  25.9896755  18.5820904  64.4014587
  69.0949326  43.4339676  30.6280346  69.6158981  42.6312637  30.6503639
  68.2738571  43.1750526  30.2096786  82.6885986  28.4492455  22.4965057
  83.3628159  29.1279621  22.5281868  82.8671417  27.8985233  23.2587814
  37.7319946  64.5005951  70.8768158  37.8622475  64.6880112  71.8064041
  36.9410095  63.9622307  70.8495636  68.3937073  19.1717091  36.5316772
  67.4480896  19.1669674  36.3833160  68.5553665  18.3978653  37.0713654
   5.7440639  33.7457619  47.5497017   6.0600710  33.0025711  47.0358543
   6.2359133  33.6966324  48.3694000   5.5959425  39.2996674  74.4424133
   5.9061618  38.8185654  75.2095718   5.4481692  38.6246643  73.7800217
  17.6111031  61.4266090  53.1232643  18.1600418  60.7010765  53.4207573
  16.8570366  61.4137650  53.7127151  64.5220642  61.7178497  32.5566368
  65.0780945  61.7360840  33.3355675  63.6315842  61.8084564  32.8958511
  65.0308914  40.3258781   8.7036314  64.4262238  40.8922195   9.1830769
  64.9546051  39.4746628   9.1347256  61.1479645   6.1496654   6.6525612
  60.5240517   5.4237924   6.6438451  61.2404137   6.3970919   5.7325258
  53.3398132  71.0242004  67.0412827  53.5684204  71.8681107  67.4308777
  52.5613823  70.7417603  67.5213852   6.4927797  20.4039001  85.8889694
   6.8945951  21.1137390  85.3880692   6.6267266  19.6245270  85.3496552
  82.5581741  55.0820122   0.5377033  82.0383682  55.8627319   0.7287858
  83.2156754  55.3799782  -0.0909012  82.0187683   3.3649290  23.4129314
  81.9778366   3.1697154  24.3491192  82.7086868   4.0239196  23.3356228
  52.5282288  29.5615387  42.7149467  53.0409546  29.5459003  41.9067993
  51.6543045  29.2749386  42.4497185   7.0988717  56.0070572  53.6423874
   6.9915552  56.9565048  53.5853157   6.4064898  55.6537514  53.0838051
  70.1860275   2.2395008  17.1729698  71.0597000   1.9254236  17.4059410
  69.6292877   1.4629428  17.2298355  36.4070663  61.0678177  41.3057365
  37.2644157  61.4916306  41.2661552  36.5894165  60.1426315  41.1413956
   0.1001963  45.1080818  80.8489761   0.7829351  44.8545952  80.2278137
  -0.3585774  45.8299370  80.4192276  76.3592148  44.3064117  52.7399864
  75.9214706  45.1341972  52.9384422  77.0275650  44.5375366  52.0949135
  45.5061646  30.8386097   0.5517063  44.8830681  31.5401134   0.7411143
  46.0155296  31.1645660  -0.1902711  55.4347267   6.5158935  69.2382584
  54.5340233   6.1980238  69.1756668  55.3475647   7.4328175  69.4988022
  55.4014587  50.8204918  57.8331795  55.1106071  51.2484894  57.0279160
  55.7338371  49.9700851  57.5458374  56.9195251  29.5672894  63.0997162
  57.4008789  30.1480446  62.5104332  57.2285461  28.6893997  62.8760033
  60.4735069  26.6013508  29.9361649  60.4458694  27.3422184  30.5416279
  60.0372505  25.8910751  30.4067173  42.8018761  59.8343849  51.2303581
  42.4078484  59.1916122  50.6405945  43.4920959  60.2454567  50.7099228
  65.9927368  23.6814098  13.8038950  66.8015442  23.4285622  13.3587856
  65.8067245  22.9520874  14.3952656  56.4278412  18.7159748   4.9838338
  55.6766548  18.5936356   4.4033308  56.2954903  19.5829544   5.3673172
  42.2283745  60.5317307  63.6576996  42.2125359  61.4885635  63.6789017
  41.4726181  60.2914963  63.1216469  86.2051849  24.2474384  65.2437057
  87.0431824  23.7853394  65.2650223  85.5529556  23.5556660  65.1328964
  16.8307858  58.1581116  53.2566757  17.0464706  57.4193535  53.8258362
  17.6792088  58.5275917  53.0119324  10.6360388  37.9055939  24.5038509
   9.7328062  37.6564941  24.6996861  10.5590534  38.7366753  24.0352249
  36.8296471  69.4774094  77.2326584  37.3328209  68.9444580  76.6170197
  37.0066452  70.3801651  76.9682083  60.3100357  48.1096001  14.1434288
  60.3127556  48.7502022  14.8546638  61.1749458  47.7016640  14.1852007
  67.3886185  46.9974442  43.2820320  66.5206528  47.3784637  43.1490135
  67.9930725  47.6479378  42.9246559  84.7084961  65.5909576  46.5615082
  85.5353317  65.9092178  46.9238510  84.6947556  65.9267120  45.6652336
  81.4443588  70.2963028  25.2220230  81.0558090  70.0858231  26.0711174
  82.3624802  70.4826965  25.4183540  19.9861946  30.5405560  10.5469122
  20.2114372  31.4408607  10.7813263  20.3665028  30.4172077   9.6772099
  43.8392067  34.9809113  29.4842072  43.4861526  34.2283554  29.9588070
  43.7050514  35.7214813  30.0756397  16.0842323  47.7738991  63.4245033
  16.6168213  47.0253296  63.6932449  15.2860794  47.7001305  63.9477081
  57.2434006   0.6906628  41.9958687  57.8369484   0.8870284  42.7206955
  57.7753067   0.8161311  41.2100143  18.7231865  44.4224167  53.0209961
  18.0643425  44.9858856  52.6152153  19.0168781  44.9121628  53.7891922
  86.4426498  10.7505665  62.2183533  86.0501175  11.0534229  61.3995552
  85.7460251  10.8464642  62.8677788  45.4986649  18.2098045  53.4328918
  45.3288498  17.3564777  53.8319244  46.4519768  18.2542133  53.3590202
  63.1152000  44.8472176  37.1550713  62.4457703  44.8768234  36.4715385
  62.8926201  45.5716095  37.7398338  43.3871880  36.5418129   4.7810798
  43.9342346  35.9494133   4.2652936  42.4977837  36.3826447   4.4650702
  49.6496391  64.4467239  45.7240524  50.4427109  64.9076309  45.9976120
  49.7133560  63.5896034  46.1453781  28.2923603  47.3090286  38.3137665
  28.9266148  47.9904175  38.0909157  28.1918926  46.8024979  37.5078087
  44.9461479  44.9028740  28.6033649  45.8454552  44.5805817  28.5433826
  44.4593925  44.3735924  27.9715710  33.9396286  39.7896538   4.3654685
  33.3212128  39.9096756   5.0861535  34.2594986  38.8936806   4.4710469
  40.4689140  42.4833412  17.2933102  41.2390671  42.2290154  17.8016548
  40.5067940  41.9342232  16.5101986  65.1945801  69.9297714  38.6191978
  66.1342010  70.0585709  38.4897614  65.1252594  69.5238571  39.4832954
  26.8343163  65.8178406  64.4182663  27.4251690  66.5686264  64.4768982
  26.4136181  65.7764893  65.2770615  80.0363083  35.0676231  73.0376587
  80.0309753  34.1294899  72.8476334  79.4529648  35.4483032  72.3811417
  11.1145592  53.7068405  56.1732216  10.8640413  54.5492630  56.5524330
  10.3702993  53.4606094  55.6239700   6.3255992  18.0504532  20.7941284
   6.7240863  18.9076042  20.6433640   6.7340865  17.7348614  21.6002140
  33.2448082  67.9481049   5.6080399  33.5101700  68.8603516   5.4913449
  33.1399231  67.8483353   6.5542312  61.5310478  12.0727844  21.0276337
  62.1516075  12.1739483  21.7493687  60.6769676  12.2572412  21.4184761
  39.5775299  47.1057358  20.6651192  38.9056129  47.0777740  21.3462772
  39.0876770  47.0660973  19.8437138  69.2311020  69.8963699  85.0392609
  68.8951187  69.6047516  85.8867950  68.4552536  70.1919327  84.5628815
  41.1449547  63.1809044  39.5107079  41.5116577  62.7645340  38.7307129
  41.8931580  63.6068764  39.9290009  29.9958439  67.4279327  47.5863190
  30.3600273  66.8591003  46.9080658  30.4084911  68.2779160  47.4330482
  59.3860626  13.4159288  27.6080761  59.5772171  13.7968979  28.4651375
  58.8343124  12.6578197  27.8006229  59.3025055  34.5585060  78.1240158
  59.9311409  33.8376083  78.1608887  58.8215446  34.4154243  77.3088837
  11.4007473  37.4136086  61.6682358  11.4284964  38.3704071  61.6675491
  11.6441965  37.1662941  60.7761612  17.8927116  48.5026436  84.8831940
  16.9987354  48.1610603  84.8642426  18.2634335  48.2504997  84.0374832
  69.4178619  19.5829506  66.7532654  68.9900131  19.4713764  65.9043045
  70.2698898  19.1592312  66.6496048  50.9214363  32.1719284  23.7883453
  50.9679909  32.7335167  24.5620918  50.6223183  32.7525635  23.0886154
  67.0181046  18.5481834   1.9542422  67.2583084  19.0543003   1.1781101
  67.7332458  18.7023830   2.5715117  43.6384811  65.2455444  17.8124638
  43.6473961  65.3597336  16.8621407  44.4421616  64.7618332  18.0031223
  12.6075907  55.1937714  68.3705750  11.9187536  54.5762749  68.6164169
  12.8167124  55.6551132  69.1827698  29.8420563  36.2268219  73.3016052
  29.6033592  36.0272217  72.3963928  29.7824898  37.1803589  73.3603210
  22.3996658  48.5978775  12.3769178  23.2792988  48.2300224  12.4615383
  22.3141136  48.8023262  11.4457283  68.0583572  70.3816986  76.9171371
  68.6393585  70.0805588  76.2185745  67.3353271  70.8103638  76.4591980
  39.0255699  60.1877747  49.6217575  38.3014374  59.7289391  49.1959267
  39.6974449  59.5164909  49.7409210  24.5752354  62.1966438  71.0101624
  24.8232365  62.3199921  70.0939178  24.6165638  63.0743980  71.3897324
  52.0756111  29.8061790  24.3146877  51.3705940  29.1994591  24.0886860
  51.6583252  30.6676273  24.3181953  28.7591915  41.1838188  21.8001099
  29.5139580  41.1108360  21.2159595  28.4841309  40.2793541  21.9501781
  42.2009697  51.2796555   3.1851246  42.1764259  50.3706970   3.4841700
  41.8458481  51.7825966   3.9180441  78.0141907  39.7911110  50.8061371
  77.2795105  40.3717155  51.0045891  78.1407547  39.2826042  51.6071548
  72.5201492  27.7285290  25.5923042  73.4411316  27.9744129  25.5053329
  72.2735519  28.0291710  26.4669666  24.2721901  51.6524277  27.5523491
  24.3107662  52.3250694  28.2322750  24.7379436  50.9052582  27.9279022
  58.5089035   9.1357393  57.0144882  57.7694855   8.6264400  56.6826553
  58.1102028   9.7935591  57.5841751  49.0366898  54.5451736  81.8727646
  49.4837189  53.8130875  81.4479828  49.7111168  54.9565201  82.4132996
  86.4595871  22.6793060   6.0032096  86.5246429  21.7324886   5.8785677
  86.4077377  22.7929516   6.9522238  56.5055389  23.4092274  72.9080582
  56.9041519  23.4635334  72.0395050  56.5636559  22.4825611  73.1407471
  34.9849243  58.4341354  20.1980324  35.0501633  58.6517792  19.2681904
  34.2211723  57.8601341  20.2566528  68.2403870  25.4955978  21.0705814
  69.1882019  25.5587578  21.1883793  67.9658966  24.8228016  21.6936665
  12.5290079  40.9043808   2.6173871  13.0993824  41.1849632   1.9017218
  13.0592480  41.0203972   3.4058137   3.5979388  40.9582100  26.7585144
   3.5052297  41.4441376  25.9390564   4.3811069  41.3260918  27.1678333
  52.0759964  33.0526390  76.8110199  52.3946037  32.5288925  77.5461502
  51.7276497  32.4104347  76.1925888   4.2170954  54.4854622  88.0461121
   3.9090490  54.8401413  88.8801041   4.0245647  53.5492744  88.0982437
  86.6268005  17.1999645  19.6778183  86.7799454  16.8114243  20.5391045
  85.6914215  17.0717926  19.5201321  28.7031803  32.7385063   6.9539704
  29.2778969  31.9731407   6.9417892  29.2130566  33.4276924   6.5282040
  27.2858467  33.8215942  62.3408813  26.7293663  33.1225853  62.6843109
  28.0324421  33.3648148  61.9533501  68.1244431  25.5076580  41.9159927
  68.7804947  25.7500801  42.5694847  68.5944748  25.5363617  41.0826416
  32.8213425  61.3527184  18.1517048  32.5398254  60.5359497  17.7395554
  32.3050995  62.0310555  17.7162971  22.2566395  53.0672417   6.7184663
  22.6959324  52.2261887   6.5924397  22.9111691  53.7192307   6.4679999
  38.0382156  36.5082054  37.2484245  38.0773468  37.2167130  37.8908577
  38.9301834  36.1621552  37.2188721  58.5570374  25.4220352  32.9011612
  58.0187531  24.6575489  32.6961212  58.0164413  26.1703911  32.6482735
  57.3842545  34.4308624  83.4716721  57.4854469  34.5870171  82.5327301
  57.7975388  33.5801277  83.6188965  22.9166069  55.8461723  67.4023285
  23.7649975  55.5453835  67.7278976  22.7773857  56.6870995  67.8378601
  48.7538261  30.0316505   3.3156424  48.7548904  29.2952766   2.7040982
  47.8275261  30.1918488   3.4960179   2.3713324  10.8409843  85.0171204
   2.1774292  10.1190176  85.6149521   2.4223914  10.4301682  84.1540756
   1.3560064  43.7279205  57.0652809   0.9289004  43.8211594  56.2137413
   1.7281229  44.5918465  57.2424622  32.0318298  69.4692383  28.7202473
  32.2262154  68.8309021  29.4065189  32.8605194  69.9262466  28.5765419
  73.7564850   9.1834202  50.9535561  72.8961868   9.4378405  51.2873039
  73.6170120   8.3195152  50.5656815  10.7814865  63.6752052  27.0984859
  11.6273222  63.5988922  26.6569309  10.3464184  62.8396721  26.9286976
   6.3427639  35.1949883  78.9747772   7.0392966  35.0018196  78.3472748
   6.7121167  34.9539490  79.8243103   4.4542994  50.4503250  55.9934578
   5.0914187  50.2337418  56.6741943   3.8704727  49.6924438  55.9619637
  17.1113930  59.8026657   7.0114908  17.7097607  59.9595261   7.7419572
  16.3480206  59.3868675   7.4122491   7.9927187  25.7549057  69.5345764
   8.3592148  24.9140320  69.8081436   7.2259555  25.5229073  69.0106659
  61.3134117  47.1180916  35.7720070  61.1601639  47.7850685  36.4412537
  60.5192375  47.1279449  35.2377625  60.5088654  57.2919350  41.0439835
  61.2868958  57.0238838  40.5550537  60.8464317  57.8519592  41.7430229
  41.0443535  44.2455063   1.8853165  40.6224480  45.0576286   1.6048039
  41.7416801  44.1043015   1.2449828  58.1362381  32.9233437  47.0416565
  58.0838509  33.8047981  47.4111443  58.9593010  32.9169884  46.5530319
  30.9945354   8.7131491  65.8162384  30.0757561   8.4447441  65.8224258
  31.1798878   8.9116583  64.8983765  80.0835266  32.4061966  15.8542652
  79.2341614  32.0212173  15.6384001  80.4020996  31.8854561  16.5915432
  37.1565056  42.9579086  17.9075394  37.9209595  42.8213997  17.3478909
  36.4138603  42.9543419  17.3036404  36.2398338   8.0381374  66.2329788
  36.7546425   7.5735464  65.5731583  35.7226830   8.6692848  65.7325439
  47.8381310  30.5618954  71.7174911  48.0993767  29.8261623  71.1637039
  46.9782944  30.3129845  72.0565414  49.2676964  32.8245544  13.3417416
  49.0181847  33.4436531  14.0278130  49.6727715  32.0960426  13.8122921
  57.2934570  37.6615410  75.2304001  57.7377129  37.7603264  76.0724869
  56.5161285  37.1396561  75.4294662   2.6269147  41.9310760  71.2250443
   2.0663035  42.1876526  70.4928513   2.4309630  41.0044289  71.3634720
  39.9903946   2.0908530  12.1656666  40.1679878   1.1742338  12.3766203
  39.0614357   2.2068954  12.3651609  81.0596619   9.5124111  62.3926086
  80.7171478   9.9828081  61.6325798  81.3435593   8.6675940  62.0434380
  21.7543335  28.0688801  82.9519196  21.5704288  27.7972336  83.8511505
  20.9818039  28.5698738  82.6903152  37.9184685  63.0430794  82.9745178
  38.2790070  63.1441612  82.0935898  38.6798859  63.0945320  83.5522995
  75.2784271  53.0819511  80.1437073  75.0686264  53.1689949  81.0735703
  76.2347641  53.0523262  80.1156998  24.1878376  48.5592651  61.0970192
  24.4313011  48.1458626  60.2687340  24.6100941  49.4178505  61.0694008
  65.7027740  53.1486778  39.5802650  65.0726318  52.5181351  39.9289284
  66.1319427  52.6855698  38.8608398  28.3925762  39.0824394  76.5160522
  27.6839027  38.4428482  76.5863266  28.8548069  39.0205803  77.3519592
  53.1021500   3.6105609  31.2384739  52.9959946   3.7469125  32.1799469
  54.0458717   3.5070369  31.1163654  14.6329937   5.7701378  79.7128296
  14.4060841   6.3192863  80.4632797  14.8876028   6.3908558  79.0300980
  70.7209702  24.0293655  81.0275345  71.4333267  24.5720100  80.6894302
  70.1898575  23.8246059  80.2579727  46.4712791  23.0086975  81.4609222
  46.6653671  23.4218121  80.6195602  46.7966690  22.1132298  81.3687973
  54.7929115   5.8028026  56.2820015  53.8880692   6.0505853  56.0920219
  54.7841034   4.8456435  56.2823448  83.1439133  60.8190002  43.2342339
  83.0324249  60.4340897  44.1035118  83.4140396  61.7213364  43.4046936
  25.8274422  43.4208832   6.0318189  25.3960667  44.0721397   6.5850039
  25.1135273  42.8729591   5.7057257  32.6981697  25.3520832  82.2217331
  33.0555687  26.2046070  82.4701309  32.7729225  24.8208466  83.0144653
  60.8282776  39.5660439  10.8259153  60.8204918  40.1237068  10.0479794
  59.9225578  39.5741615  11.1354990   7.6212215  43.4592781  71.9590607
   8.0813723  42.9715309  71.2759857   6.6982875  43.4062157  71.7108536
  71.6943207  13.2291956  -0.0074832  71.2102356  12.5820780   0.5054796
  72.5176773  13.3437252   0.4670712  77.3034668  55.9133606  64.5605316
  77.7240372  56.6931496  64.9228592  76.4945984  56.2390633  64.1657181
  46.4040222  34.5324821  86.1493225  46.7944221  34.7087555  85.2933197
  45.9251823  33.7123146  86.0298691  79.9801178   5.9157805  18.8350868
  79.6171494   5.6185155  18.0007515  80.1184387   6.8552847  18.7149582
  12.3870106  39.7420883  29.2570953  12.2347298  39.6565704  30.1982288
  12.0379562  40.6053772  29.0354595  34.7284775   0.4502533  79.0124741
  34.3205032   1.1428555  79.5321808  34.5951767   0.7220926  78.1044159
  64.0933075   2.7263794   6.6667991  64.8632507   2.2822990   6.3115382
  63.3501358   2.2660267   6.2769246  71.4136734  30.3898029  57.9928093
  72.3324051  30.2240181  58.2041855  71.3927536  31.3065014  57.7181091
   8.2213249  49.7185631   3.2487588   8.9840422  49.6091576   3.8166718
   8.1245346  50.6664886   3.1576753  38.5910416  66.1962585  18.4146004
  38.9746552  66.7042313  17.6997318  38.0324783  65.5528717  17.9783840
  14.9436407  16.8481255  65.0811310  15.6223822  16.5810814  64.4612656
  15.1338882  17.7684669  65.2628098  52.1868172  24.3630486  54.0232353
  51.9132996  23.6269188  54.5705338  51.4016075  24.5989819  53.5292587
   6.8751464   9.8914156  24.8219585   6.7547560   9.5296564  23.9439678
   7.5018430   9.3011398  25.2403564  86.0341263   5.8839750  69.7340775
  86.2464905   5.1252408  70.2776337  85.5938492   6.4899001  70.3300934
  41.4002495  42.9744835  28.1474304  40.7577782  42.4390030  28.6129704
  41.3825111  43.8176003  28.6002731  49.2291641  67.2685318   8.2197485
  50.1698914  67.0979843   8.2663994  48.8227043  66.4242020   8.4150152
  43.5243874  63.2498512  31.0620003  42.6293221  63.1174393  30.7496643
  44.0365486  63.3954926  30.2665672   6.7365217  46.8553696  29.8406506
   6.4131703  46.5354424  30.6828632   6.0177770  46.6912651  29.2301540
  13.3449287  23.9595432  65.5794830  13.9811287  24.2028027  64.9069443
  13.4925213  23.0245590  65.7218018  83.4475708  42.0347061  74.5691757
  82.9503860  42.4571648  73.8687744  83.9079132  41.3158302  74.1361313
  18.0582638  23.2659740  68.5915985  18.9664001  23.4679852  68.8167953
  17.7341633  22.7585449  69.3357086  50.5458183  29.0436649  20.4945526
  49.8490372  29.1964645  21.1328163  51.1051331  29.8176327  20.5606689
  81.2850113  56.5956039  80.6622543  80.4475555  56.8345375  81.0595093
  81.9291534  57.1388588  81.1163254  76.4311066  51.9367828   4.8744373
  77.0497437  51.4442825   5.4138417  76.0607071  52.5886993   5.4694510
  79.6395340  27.8873596  36.9972115  80.4803085  27.7675056  36.5556602
  79.7099380  28.7442875  37.4178696  29.6878910  67.3815308  61.6791153
  29.1086159  66.7257538  61.2909966  30.5404072  66.9490433  61.7281532
  32.6723213  33.7874794  16.0069389  32.4180298  34.5169983  16.5720673
  31.9827633  33.7461395  15.3443432  51.2963486   8.6942959  50.2548752
  50.3877525   8.5998058  50.5408020  51.7025528   9.2435436  50.9253693
  47.7772865  47.7213898  57.5339928  48.5485229  47.4646149  58.0394554
  47.9054108  48.6535988  57.3584976  39.1938362  53.8774567  35.1929436
  39.3824196  54.1092415  34.2835808  38.7334976  54.6397896  35.5438995
  50.5903015   9.8052044  81.8595352  51.3988953   9.6041622  82.3306961
  50.6919250   9.3702469  81.0129395  54.5523109  54.7498474  64.8553009
  54.8059654  54.7260284  63.9326286  54.0460396  53.9479637  64.9852982
  37.2449684   2.4281020  12.5011330  36.7255020   3.2191670  12.3575964
  37.3887787   2.4043813  13.4471712  13.8981781  26.1259537  63.9800262
  13.4633102  26.7155247  63.3639717  13.3281822  26.1201725  64.7489929
  31.5703468  62.1686287  33.7095375  31.9312801  62.6685867  32.9774170
  30.7948608  62.6618118  33.9771652  76.9446030   5.1065216   4.7229996
  76.9923935   5.9400344   4.2548065  77.5248413   4.5233350   4.2336564
  29.7598171  69.8498993  11.8113279  30.1443253  70.3882828  11.1195726
  29.5102615  69.0371780  11.3715019  42.3285408  62.6790123  71.5174713
  42.9396133  61.9452705  71.4507675  42.6916885  63.2309341  72.2101059
  66.2912369  53.0831795  51.4374542  65.5123596  53.1151009  50.8819771
  66.3779907  52.1601181  51.6754990  47.7852783  17.1555653   4.3238177
  47.4733505  16.8119545   5.1609955  48.5661621  16.6376457   4.1283445
   6.8213005   1.2148727  17.3881435   6.1073995   1.2980657  18.0203266
   6.8825545   0.2748424  17.2183704  16.3022366  47.5706596  66.9239044
  15.4359646  47.4914474  66.5244904  16.2548294  47.0250168  67.7089310
  19.5180149  14.2521515  67.7001190  20.0677719  13.4687595  67.6829071
  20.1223660  14.9728222  67.5222855  75.3226471   7.1331067   6.5593748
  74.6277924   7.6284623   6.9929976  75.0191727   6.2255478   6.5811310
  62.1993523  22.7485485  74.8697815  62.8833275  22.1015739  74.6970520
  61.4119377  22.2280254  75.0287399  56.6354637  16.6451874   6.8498783
  56.8041954  17.2338867   7.5855370  56.3778877  17.2251148   6.1332393
  23.0688782  12.1973133  20.4021473  23.2502689  12.7214584  21.1822758
  22.8280544  12.8384953  19.7334747   6.0752463  41.0086250  71.3020630
   5.9355426  40.7601852  70.3882828   5.6495910  41.8618507  71.3860550
  42.6902847  36.6072693  21.7207260  43.5605392  36.9835167  21.5890846
  42.4378166  36.2798347  20.8574314  30.9498043  59.0888405  31.3701725
  30.0231495  59.3023109  31.2607594  31.0662441  59.0054054  32.3165932
  81.3241501  47.0881920  38.6246986  80.9230347  46.6671867  37.8643761
  82.2616043  47.0889511  38.4312477  19.3797264  15.8420153  61.5765915
  18.8607063  16.2817516  60.9031792  20.2049408  16.3265934  61.5974503
  69.3157043  43.6541634  58.0058212  68.5919724  43.0685310  58.2282600
  70.1007614  43.1786537  58.2775002  67.6346207  69.9865494  61.1924896
  68.4238052  69.4448776  61.1971626  67.4279175  70.1166229  62.1180077
  38.0516624  38.9007988  17.8129005  38.0042992  39.3734016  18.6439438
  37.5174522  38.1186981  17.9513531  67.1187439  68.3442459  12.7354488
  68.0257034  68.4409714  13.0257797  67.0534973  68.9053268  11.9626846
  75.1244659  18.9320049  19.6957798  75.5309906  19.4534607  20.3879166
  75.5961838  18.0993271  19.7148247  40.4801178  32.6603050  65.0956039
  40.0571899  33.5189819  65.0899887  40.6796532  32.4976120  66.0175323
  62.3418083  39.7890968  86.6197586  61.8652954  39.1582031  87.1593323
  63.2553787  39.5085144  86.6735916  85.0040970  69.8525848   8.8611250
  85.2494202  68.9353027   8.9821272  84.3550034  69.8361435   8.1578178
  85.7878952  24.1082973  46.9365959  86.5336685  24.5311642  46.5108757
  85.0208282  24.4837189  46.5042763  64.0454178  49.8868141  72.1917419
  64.7615433  49.2682457  72.3358383  63.2845192  49.3346329  72.0118484
  15.6341572  63.3420982  83.3830414  15.9222078  62.4880676  83.7053680
  14.9499636  63.6111183  83.9960175  29.1418018  34.9942055  31.1299992
  29.2148476  35.4659348  31.9596767  28.5774574  35.5467377  30.5892067
  56.7212448   7.4789934   8.8672028  56.8367882   8.0230150   8.0881510
  57.4980049   6.9199624   8.8863077  14.4841747   4.3248868  85.3936844
  14.4175634   5.2541795  85.6132507  13.9449711   4.2248964  84.6091461
  72.1305237  18.1685944  77.8487930  72.9686584  18.0524845  77.4012680
  72.3556595  18.6084919  78.6685715  74.5957108  63.4844170  66.2713699
  74.0828552  63.1439247  67.0043564  73.9550323  63.9306030  65.7175827
  54.7655716  13.8847589  77.8800659  53.8811493  14.0796843  78.1899643
  55.0519409  14.6908159  77.4505386  47.3838654  56.9131317  13.4878426
  46.8595276  57.6212959  13.8617516  47.5967674  57.2135429  12.6042948
  57.6780434  61.7485466  27.9082813  58.4087372  61.8614159  27.3003502
  57.8833694  62.3302574  28.6401863  85.7812653  52.9358559  35.4314651
  85.4743652  52.9761887  34.5256958  85.0330276  52.5971222  35.9230194
  70.1299438  14.0321941  64.2740936  70.6059265  13.9201927  63.4512138
  69.5962601  14.8149767  64.1374588  32.7704430  66.1722717  73.8487549
  32.4716301  66.8759308  74.4247742  33.6745720  66.4041138  73.6365433
  81.0820312  32.6340675  60.3253670  81.9297867  32.5706139  60.7652702
  81.2912979  32.5787811  59.3929558  12.6673412  56.4963799   1.0325115
  11.8808041  56.5396042   0.4887074  12.5349617  57.1704025   1.6991429
  38.4458923  38.6812248  38.7011032  38.7464981  38.4438019  39.5783119
  38.1913528  39.6009254  38.7759018  25.3850479  21.8537560  40.0408554
  25.7964306  21.1733952  39.5078392  25.2208233  21.4310322  40.8838081
  12.3623552  23.8896942  77.2261200  12.9832449  24.0381660  76.5129013
  11.5027485  24.0252552  76.8274612  16.8308506  56.9024086  23.5962944
  17.2889557  57.5613518  24.1179886  15.9883814  56.7913399  24.0369091
  24.4934254  32.2158852  79.8173599  23.6610203  32.4360657  80.2355118
  24.2793999  31.4986439  79.2207031  76.3853073  62.2616577  12.2457142
  77.1176376  62.0074539  12.8072386  75.6453629  61.7483330  12.5700665
  37.0169792  64.6577530   4.9113493  36.5440407  63.8664436   4.6536922
  37.4170532  64.9723358   4.1006622  14.6427965  30.1721230  74.6105042
  13.8219204  30.4111347  74.1800842  15.2620926  30.0454311  73.8917236
  80.3046494  19.3033791  71.8090057  80.4993515  18.5156708  72.3167801
  80.6897583  20.0172462  72.3172531  23.8192959  37.4365463   9.1571236
  24.2205753  37.5270157   8.2928190  24.5446167  37.5511780   9.7711287
   7.5827966  41.9908714  11.1897192   8.3684816  42.5372467  11.1695786
   7.6152840  41.4944077  10.3719788  81.5259323  42.5779686  40.8908730
  80.7474518  43.0219040  41.2271996  81.2207794  41.7001762  40.6615295
  56.8742104   0.1756172  29.8597374  55.9260979   0.2741022  29.7724876
  57.1159515  -0.4388950  29.1667976  85.9452820  46.6716194  22.6635017
  86.3718185  45.8830833  22.3280735  86.4692764  46.9221458  23.4243584
  53.4030457  68.7244492  60.2296295  54.0281143  68.6691360  60.9524422
  53.4913254  69.6204681  59.9046822  10.7965746  48.4538879  48.7552261
  10.2113352  48.3151207  48.0106010  11.6018858  47.9953003  48.5156403
  85.1228180  12.0186787  48.7820892  85.5568390  11.6771431  48.0002899
  84.5799866  11.2932720  49.0908813  28.2483425  13.0497637   1.6382071
  29.0908337  13.2046366   2.0653532  28.4758663  12.6604481   0.7938742
  61.6509285  20.1118202  36.2616043  62.3746986  20.7374077  36.2295418
  61.0634079  20.4594650  36.9325714  62.6508026  56.7203064  72.1912689
  61.8494492  57.1727753  71.9279480  63.3352242  57.3859825  72.1228867
  68.3068771  44.2072678  55.3466301  68.5945969  44.3390579  56.2500038
  67.5350037  44.7662163  55.2571373  63.4098129  31.9278145  16.1359386
  63.0078468  31.0638771  16.0450077  62.7046890  32.4869194  16.4621868
  30.2070217  39.9804840  88.5816879  31.1334381  39.8700600  88.7956696
  29.9241505  39.1144676  88.2880402  42.5933418   2.7688661   2.3481743
  42.7983856   1.8427269   2.4764535  42.5168495   3.1222353   3.2344649
   0.7756034  23.5044918  55.0783920   1.6184628  23.9111061  55.2795982
   0.7678989  23.4287930  54.1242218  57.5291672  12.1902971  52.9395561
  57.6277084  12.7338629  52.1578522  57.8280411  11.3226929  52.6672134
  26.9729633  57.0249901  85.5370560  26.5780602  56.7145081  86.3518448
  26.2316723  57.1529083  84.9451447  86.0486298  37.4222488  14.6418381
  86.2071152  36.5913620  15.0898790  85.1295853  37.6200485  14.8220453
  44.8405991  36.5828285  74.0401611  44.1516228  35.9221306  74.1110077
  44.9220772  36.9396896  74.9246140  37.2102432  41.2708931  39.0394325
  36.9381752  41.5677757  38.1710587  37.2242966  42.0667191  39.5711212
  44.2861328  26.1177158   1.6300825  44.4707756  25.2626114   1.2415787
  45.0376930  26.6584549   1.3872108  84.7150726  54.7926483  66.8556061
  84.4146194  54.5259209  65.9868088  85.6344757  54.5277176  66.8828735
   1.9359440  32.5731468  69.6364822   1.1156331  32.1439133  69.8795471
   1.6647687  33.3382988  69.1292953   0.6558863  17.3244343   8.4737101
  -0.2080972  16.9155197   8.5242386   0.6168456  18.0452518   9.1023026
  76.1127090  21.2260952  79.1808548  75.1674347  21.1719170  79.3214111
  76.4508209  21.6308937  79.9796371  61.6497154  23.2349281  66.6876831
  60.7265472  23.0172253  66.5588455  62.0087318  23.2897282  65.8020554
  39.4296494  57.7559776  25.3421459  40.3364754  57.4653435  25.4392719
  39.1631660  57.4265060  24.4838524  36.6594238  51.4069290  63.9154854
  37.5654068  51.1029282  63.8606377  36.6214371  51.9000015  64.7350388
  48.3771706  57.5975151  82.3866425  48.3180122  57.2478256  83.2757111
  47.6464348  57.1914291  81.9204330  35.1228981  64.6288757   9.7365761
  35.5355453  64.8481522   8.9011869  35.2889175  65.3899841  10.2927961
   0.8424548  11.0691853  79.1790619   1.6598175  10.6189203  78.9659576
   0.8525303  11.1450729  80.1331940  67.6577988   9.5584507  37.9246635
  68.2951355   9.6582375  38.6318245  68.1868820   9.3637753  37.1510963
  81.2061462  20.7214890  25.0060883  81.1214905  20.2264767  24.1912098
  80.3160324  20.7610130  25.3558960  36.4348068  63.3772545  49.0081520
  36.2756233  64.2358551  49.4001961  37.2943954  63.4582939  48.5949059
  35.5177116  61.7678032  16.0932541  34.7219925  61.8917732  15.5758610
  36.2240372  62.0707207  15.5226622  22.5957298  41.7169533  59.7939262
  23.3644524  41.3105659  60.1941109  22.2196159  42.2553558  60.4902649
  71.1334763  10.5712414  51.8765793  70.3780060  11.1578016  51.9145889
  70.7898712   9.7624254  51.4971237  30.5328579  15.1976433  78.6171646
  30.0652905  14.5231466  78.1245499  29.8709412  15.5716467  79.1987305
   7.3659873  63.8148232  21.9286137   7.4286065  64.3002701  21.1060219
   7.5459900  62.9067764  21.6851463  73.5593567  38.4082680  67.5540771
  72.9654007  38.7862015  68.2026291  74.2320633  37.9677658  68.0733566
   7.0611510  61.9963226  70.0768814   7.4622278  62.8440018  69.8850250
   6.7186904  61.6972580  69.2345581  56.6298714  39.9234734  41.6753044
  56.4672127  40.7168427  41.1650734  55.7769775  39.4918556  41.7254028
   1.0249445  26.9109612  41.9216652   1.4573483  26.0607300  41.8418999
   0.3245147  26.8855476  41.2697563   8.4695358  62.1796875  49.0062408
   8.0017128  62.0434418  48.1823425   8.9010687  63.0273743  48.8992958
  13.0939837  55.1241951  54.5759163  13.3391180  56.0045967  54.8605843
  12.7931557  54.6895294  55.3739128  66.3709183   9.7339172  35.3188667
  66.7066422   9.6533308  36.2116318  65.6004562  10.2957249  35.4025116
  33.3339043  33.6628876  80.1038818  33.0059357  32.7978745  80.3496857
  34.2512856  33.6577263  80.3770523  44.3581505  21.8173332  69.9979553
  44.2904587  21.8778057  69.0450668  43.6262245  21.2565613  70.2549591
  13.6922045  30.1077900  11.6540632  13.2684689  30.0196457  10.8003006
  12.9706478  30.2552586  12.2654877  13.9616776  32.3939857  66.5718307
  13.0955162  31.9889793  66.5274811  13.8337212  33.2728119  66.2147369
  77.1056442  17.1970787  73.6224747  76.8980484  16.3077393  73.3357544
  77.9919128  17.1332378  73.9784012  16.8144379  53.7405968  61.2396469
  16.2293739  53.8558350  61.9884109  16.6437168  54.5004425  60.6831207
  76.7814407  11.4357758  81.2290726  76.3219681  12.1229057  80.7464066
  76.4068451  10.6193485  80.8983765   5.5108142  54.1286430  23.3804417
   5.0925703  53.5070686  23.9762154   6.3963723  54.2347031  23.7279606
  78.3022232  21.9374619  30.3862438  79.0024643  22.4884529  30.7359600
  77.6451340  22.5573616  30.0697079  62.4039192  17.0471954  22.9275417
  63.0226631  17.2851315  22.2370510  61.7846298  16.4552002  22.5006294
   4.0706577  25.2940044  87.8341446   3.7687089  24.9795284  88.6862946
   3.9813077  26.2456856  87.8846512  62.5179405  63.1515045   5.7936654
  62.7679329  63.3725090   6.6908231  63.3439713  63.1427574   5.3101063
  76.3423004  13.3648090  61.8133430  75.4515381  13.0921373  62.0333977
  76.2313004  14.1966419  61.3529472  79.9709320  50.6344795   9.7506847
  80.3970261  50.4901428   8.9057941  80.3018723  49.9310074  10.3091106
   5.8257375  65.6219482  62.4290428   6.3539104  65.8158646  61.6546669
   5.9017372  64.6741943  62.5396080  53.9372406  58.5038300  29.7300072
  54.6083794  58.8887177  29.1663857  53.1559334  58.4629936  29.1785336
  76.0356827  18.5027885  82.2740784  75.3979874  18.5608234  82.9855576
  75.8250198  19.2413540  81.7027817   2.7573998  31.3910656  67.1771088
   2.8011940  31.7187119  68.0754166   3.1604846  32.0813026  66.6504898
  82.7935715  59.5739021  25.5019894  83.6087341  59.8424301  25.9258137
  83.0062180  59.5470009  24.5690975  58.2012825  63.8125191  29.7323036
  58.1209679  64.3860168  30.4944572  58.0156364  64.3805084  28.9845371
  60.8436623  45.2667465  76.9129791  61.6354866  44.7510719  77.0657043
  60.2207451  44.6439056  76.5384445  12.1854105  55.9373245  63.8167572
  11.5390997  56.3655777  64.3781052  12.7243128  55.4250832  64.4196014
   5.2351999  13.4103050  11.9061069   5.7629423  13.9992676  11.3668079
   4.4329276  13.2775564  11.4011621  85.1683655  59.0721741   4.5011311
  85.3426285  59.7001228   3.8000302  84.3879318  58.5998840   4.2111340
  58.2192993   5.4416981  29.9338379  57.5696602   5.3502765  30.6308632
  57.7096863   5.4009047  29.1246033  46.4845772  39.0577736  67.7095795
  47.3602562  38.9379158  67.3420868  46.2061157  38.1761513  67.9574356
  46.5269661  44.0998573  77.7158127  46.2469254  44.2533340  76.8134537
  47.4372826  43.8141632  77.6387711  62.6214867  35.2301826  30.0338650
  61.7430153  35.3629837  29.6776600  62.5700798  34.3909836  30.4913960
   6.1365891  18.7972851  11.8635960   5.2206187  18.7885075  11.5858316
   6.6347609  18.7480488  11.0477333  31.0289249  41.0799789  20.2722797
  31.3990631  41.8353577  19.8155098  31.7906914  40.5966568  20.5921955
   1.6074437  32.9540367  51.5179291   2.3111539  33.4011688  51.0477180
   1.8038579  32.0229759  51.4140854  19.8532848  11.0518656  44.9063416
  19.0771637  11.1325169  45.4607430  20.2124386  10.1909199  45.1208458
  16.2258797  43.4033470  69.0564423  16.4372654  43.5416107  68.1331635
  16.2341652  44.2811279  69.4381027  49.6493073  61.7607384  73.2791367
  50.2194366  61.2600174  72.6956482  48.7622948  61.5167694  73.0147095
  43.3123779  56.6135864  57.4531670  43.1183395  57.4141541  56.9656487
  42.5846176  56.0263672  57.2487984   3.1157804  39.9889946  23.3866386
   2.5167344  39.7114372  24.0797024   2.5580730  40.0938797  22.6157990
  16.7505150   5.2353806  54.1280098  16.4095955   4.3438444  54.1999092
  17.4232635   5.1805429  53.4493103   9.6108284   9.1630468  84.5370636
   9.1110716   8.3795671  84.7664871  10.3670282   9.1450720  85.1236420
  53.4238052  19.0446663  38.5787010  53.2765121  18.6385231  39.4328613
  54.0472412  18.4643669  38.1418762  22.7460728  21.2241936  74.1339798
  22.8402271  20.5262966  73.4856720  23.5856838  21.6834621  74.1151505
  38.5635643  23.0005684  82.5317764  38.4435730  23.5303841  81.7436600
  38.6563034  23.6397400  83.2382355  70.6023865  42.8953896  19.2223587
  71.0490265  42.2402000  19.7585201  69.7101974  42.9201431  19.5682354
  78.7538681  67.9962692  39.1292305  78.5998230  67.7468948  40.0404472
  78.8505249  68.9482422  39.1544991  81.4626923  29.2985992  70.2771912
  82.3142242  28.9394855  70.0278625  80.8991089  28.5313644  70.3769608
  36.7969360  51.6399269  85.9227524  36.8741951  52.1052017  86.7556915
  37.3386154  50.8585815  86.0337296  33.4837608   1.7747798  29.7480202
  33.7380600   1.5406471  30.6406250  32.7216454   1.2255648  29.5642395
  81.9372025   9.3601770  84.1169281  82.6768799   8.7626419  84.0070877
  81.2763062   9.0384531  83.5037918  65.2343903  59.4689751  48.0583496
  65.5909119  58.8797340  48.7231216  65.4596481  60.3456345  48.3697281
  69.4578476  54.6908989   0.7408853  69.5866776  54.9617805   1.6498729
  68.6277924  55.0938759   0.4862259  45.0032387   2.6453693  23.0012035
  45.0806541   1.6981766  23.1155052  44.3771553   2.9172225  23.6722832
  62.4062729  69.6232147   3.5841894  62.8534622  69.4511795   4.4128366
  61.9860268  68.7924423   3.3618345  14.4021845  67.8547058  69.6410675
  14.5238733  68.1985397  68.7560806  14.3250332  68.6335678  70.1921158
  77.1678009  41.0163918  59.2459564  76.7082443  41.4927063  59.9374542
  77.7979507  40.4667358  59.7118073  19.4092560  32.1709290  23.9242916
  19.0336761  31.5575600  24.5559158  20.3261719  32.2532120  24.1864491
  17.5069580  70.8389282  22.5766506  17.2043114  71.2364655  23.3931084
  18.2522717  70.2971573  22.8359184  65.1039276  16.5240631  55.0589790
  64.8187637  16.7844162  55.9348373  65.1105728  17.3391190  54.5571098
  14.7888184  43.7774887   3.8589554  15.1572695  44.1397820   3.0532143
  15.1979008  44.2859688   4.5591903  82.8887405  19.9076252  87.6887283
  83.5513382  19.4489460  88.2052612  83.3797379  20.3099174  86.9722672
  66.9169693  51.1936226  17.3725128  67.6244431  51.6064949  17.8677444
  67.0566940  50.2543755  17.4930210  49.1158028  31.5564213  79.3829193
  48.5628090  32.0528297  79.9862518  49.1068726  32.0679169  78.5738907
  42.1183662   1.9419042  23.9203854  42.2006378   2.8897467  24.0255413
  41.1976051   1.8046539  23.6977005  63.3140526  24.3072128  57.9245338
  63.8519859  25.0249748  57.5903587  62.5509186  24.2908344  57.3469620
  62.2419662  54.5350037   3.3180430  61.5798874  54.0348396   3.7952459
  62.1255646  55.4357643   3.6202190  61.4017906   4.3741422  87.0806808
  61.9980621   4.0789099  86.3925476  61.1417809   3.5715563  87.5328751
  16.4858913  67.0902023  10.6380615  16.0350323  67.3479614   9.8339968
  16.4924316  66.1333618  10.6127863  35.8418961  15.1938601  11.5330687
  35.9530029  16.1412029  11.4528856  36.7323914  14.8444939  11.4985161
  34.0040894  53.8825378  19.8893757  34.5509605  54.6538773  19.7403812
  33.3221931  53.9394798  19.2200432  59.2205353  63.3806763  59.5495224
  59.2789764  64.0453949  60.2357941  59.1534767  63.8811913  58.7363701
  79.1864166   1.2732676  36.9550400  79.7173462   1.6550381  37.6540375
  78.8304901   2.0275891  36.4854164  69.0022964  54.3790016  82.4129410
  69.2009964  54.4128799  81.4772034  69.8589478  54.3827972  82.8399887
  20.4755611  35.3855247  60.7310295  21.3200035  35.3015404  61.1738548
  20.3614254  34.5527992  60.2730217  50.0742378  22.5721149  80.4527435
  49.2224770  22.5481319  80.0166702  50.5877228  21.8946190  80.0127869
  58.7867508  66.5168152  83.9006653  59.6838417  66.3219070  83.6296158
  58.8666077  66.7894516  84.8147354   2.0329297  63.7299347  41.2679138
   2.2138419  64.3784714  41.9482841   2.8148022  63.7375526  40.7157822
  31.9186821  33.1945801  61.5283165  31.6638222  34.0669250  61.2278290
  31.8507404  32.6433792  60.7487068  44.8988037   9.9454365  40.4469872
  45.3395729   9.4655371  39.7458115  44.8263664  10.8405771  40.1157646
  83.5142365  13.8444290   9.9362402  82.7118301  14.2078953   9.5617199
  83.4728775  14.0779314  10.8636007  33.6794014  67.3148117  11.2402678
  33.2752914  67.9415054  11.8404188  33.0407486  66.6053925  11.1690197
  13.5217896  57.9461327  49.8346825  14.0230122  57.4588242  50.4885445
  12.7706022  58.2913361  50.3171577  63.0998154  62.1312218  78.1047745
  63.3042488  62.8425865  78.7117386  62.1496162  62.0317802  78.1636505
  68.2856598  29.5678501  84.2377472  67.6440506  29.0649567  84.7394104
  69.1286926  29.1766109  84.4667587  13.3299780  66.4462509  54.9375992
  13.9654627  65.9780884  54.3961067  12.5192490  65.9465179  54.8415871
  49.9348564  50.2054977  50.2063942  49.2011414  50.7613983  50.4688263
  50.1233597  50.4673271  49.3052025  18.3838844  34.2895203  87.1157227
  17.4837112  34.1241913  86.8353882  18.5961914  35.1466599  86.7462997
  54.0332565  27.9680977  51.3385086  54.5474854  28.7505798  51.1397018
  53.5084991  27.8200760  50.5517769  36.8441048  44.7267914  27.2346745
  36.6745682  45.4374084  26.6161976  36.1021271  44.7529755  27.8388367
  49.2102928  32.8685646  10.2174902  48.5657997  32.5586357  10.8537340
  49.4317322  33.7520561  10.5118341  27.9269428  41.0804367  85.4617538
  28.6032372  41.6429710  85.0843811  27.1019306  41.4767532  85.1815414
  66.7401428  40.4379578  13.3689537  67.2069931  40.5221519  12.5375729
  65.8326492  40.6567764  13.1572847  45.5314674  47.7045059  38.6592293
  45.6252670  47.9308281  39.5845490  44.5898361  47.5842934  38.5363197
  83.8115845  56.9175644  42.7919197  83.4732819  57.2158279  41.9476318
  84.4058914  56.2001953  42.5718994  29.1698551  46.1746216  31.3676815
  28.7703762  46.2414818  32.2349625  28.4813938  46.4549103  30.7646160
  23.4396191  45.8502121  34.8542633  23.4870338  46.5215187  34.1735802
  23.7839050  45.0607948  34.4365082   8.5600309  70.0450134  76.4707642
   9.5121937  69.9839249  76.3940430   8.3581905  69.6108856  77.2996368
  49.5340004  49.4719658   1.5174742  49.7705841  49.5309944   2.4430954
  48.7202568  49.9709091   1.4459620  66.5312424  25.3610992  82.1198120
  66.3896255  25.3286648  81.1736984  67.0360031  24.5712452  82.3136597
  17.1386719  15.8922558   5.1823592  17.3591518  16.2987709   4.3442860
  17.1175308  16.6202621   5.8034801  86.1914749  13.7270927  23.1211929
  85.2725525  13.9294910  22.9455795  86.1894836  13.3479271  24.0000916
  19.7453747  40.7059135  45.7224312  18.9327888  40.3269463  46.0575752
  20.0552769  41.2717361  46.4295616  68.5600815  48.7242126  13.8858023
  68.9446487  48.1098595  14.5110340  67.6434784  48.4564438  13.8197870
  79.5684128  69.2309723  76.7367249  79.3958664  70.0964661  77.1073608
  79.5055618  68.6341934  77.4824753   4.7195382  33.0209770   2.6795092
   3.9514387  33.2582703   2.1599450   4.5947604  33.4752998   3.5127270
  58.3042030  32.5560455  17.8367443  57.9586906  32.4965630  18.7274265
  58.0413857  31.7341175  17.4225044  34.0847893  21.8501778   1.5276872
  33.3974762  21.9179306   0.8649322  34.2990875  20.9177055   1.5560447
  72.3971176  37.8726196  14.9228630  73.2122421  38.0628967  15.3871975
  71.7136459  38.2583542  15.4708624  32.1905289  31.5535717  64.7885895
  31.5554543  32.2464333  64.6073380  31.7154007  30.9312153  65.3391876
  37.2098160  38.1359215  55.1008301  36.5310669  37.5816460  55.4859352
  36.8849525  39.0286713  55.2178574  12.1382656  56.8005943  77.0735855
  12.8452263  56.6904335  77.7094345  11.4090557  57.1517601  77.5846329
  48.9399948  44.0363388  47.1568680  48.4699402  44.7990875  46.8199806
  49.8572884  44.3092194  47.1753426  56.7426491   1.7311832  46.0858192
  56.3531837   2.3272004  45.4460449  57.6739845   1.7182720  45.8651810
  65.2669754  54.0133972  64.0694351  65.0587845  53.1031952  64.2801895
  65.6817322  54.3539391  64.8620529  22.6433487  62.8171043   8.9385996
  22.4346352  61.9248466   8.6619215  22.2519665  62.8958321   9.8085728
  82.0564575  34.6969070  25.4587345  81.8256989  33.8458824  25.0862598
  81.5545502  34.7463226  26.2722931  47.3915138  34.9555893  74.9089432
  46.9154015  35.6286392  74.4225845  46.9915581  34.1314430  74.6313629
  10.1576834  33.7359657  25.3435097   9.7106037  33.1064148  25.9092121
  11.0470781  33.3924065  25.2588062  86.2318573  38.9706421  70.9865036
  86.8830643  38.4251022  71.4275894  86.0005112  38.4780579  70.1990585
  85.2741318  50.1613007  27.5006161  85.4128036  51.0149765  27.9107819
  84.3899002  50.2108879  27.1374264  69.5128708  12.5292597  55.3646507
  70.3157349  12.2190599  55.7834778  69.7638855  13.3525791  54.9458771
  44.3346291  10.5620108  57.7063179  43.7052727  10.0240650  57.2259483
  43.9700127  10.6265574  58.5889931  57.9816360  35.9542503  66.5587921
  58.4346199  35.1575394  66.2825851  57.5414505  36.2658882  65.7679977
  62.3924332  27.7820091  45.9372520  61.5339050  27.7902813  45.5140610
  63.0117989  27.9440212  45.2256508  65.3778381  35.9880638  15.0466108
  64.5683594  36.1317444  14.5563860  65.5984116  35.0713959  14.8813906
  78.1911163   8.5978270  46.9464226  78.8916321   8.4280539  46.3165970
  78.5758972   9.2103863  47.5732765  76.8519135  12.4201012  31.5305595
  76.2726593  12.2063751  32.2620049  77.1164322  13.3258820  31.6912689
  11.7749434  50.8400955  33.1098595  12.1382923  51.5834694  33.5911102
  12.4159470  50.6642990  32.4210625  66.4484787   9.7747841  20.6718960
  66.8726578   9.0154228  21.0714874  66.0937653  10.2678461  21.4116936
  82.9564362  62.2747574  61.7993202  83.2493362  61.8309135  61.0034256
  83.4392700  63.1012459  61.8041573  40.0615845  34.0637512  72.0216522
  39.8676453  34.8640099  71.5335922  39.5184097  34.1248665  72.8074417
   5.5676141  67.0123596  31.6610088   6.5203710  66.9695740  31.5794296
   5.3917055  66.7377014  32.5609245  15.0354795  43.3849907  75.7564011
  14.4471636  42.7799225  76.2080688  15.7604399  43.5153236  76.3676910
  86.7984161  33.7566872  41.1019859  86.7785568  33.2097282  40.3167038
  85.8774261  33.9316444  41.2953606  63.9700890  50.5617561   5.0541086
  63.9332848  49.6056633   5.0266023  64.4489670  50.7599602   5.8588586
   1.2074496  21.2757835  34.3213615   2.0558989  21.1326218  33.9019928
   0.8172526  21.9996700  33.8314972  81.3534241  10.6014509  40.2008667
  81.8696060  10.0825224  40.8177071  80.4536896  10.5261240  40.5187416
  33.9662170  47.0819206  23.9099827  33.1250267  47.0850449  23.4532356
  34.3060150  46.1965446  23.7800636  63.5465088  38.9891167  78.5734711
  62.9695663  39.3407898  77.8954620  64.0416870  39.7473412  78.8835220
   1.1632725  49.6804237   7.3314652   0.9981259  50.0047073   8.2167892
   0.3780666  49.9188766   6.8386946   6.1590858  56.9629211  65.7139130
   5.9094768  57.5289421  66.4443588   5.9224386  56.0814018  66.0022736
  10.1160059  68.4201126  40.2788696  10.7641220  69.0166550  39.9042854
  10.3935652  68.3049011  41.1876678   4.5744424   0.8537398  19.1120110
   3.6559589   0.8867552  19.3794613   4.8106427  -0.0713529  19.1801643
  57.9344864  60.2303429  61.6666031  58.7166634  60.2690392  62.2169952
  57.7740364  59.2947044  61.5438614   5.2234263  60.1431656  22.5909996
   5.3757606  60.2113152  21.6484604   5.2355866  61.0484695  22.9016590
  42.8630028  59.1218224  66.1427689  42.6466408  59.5883522  65.3354416
  42.7514687  59.7746353  66.8338776  48.9537354  70.9183807  31.9542103
  49.1375999  71.7216949  32.4411507  48.7522659  71.2167206  31.0672855
  80.5736694  10.1106939  65.1250153  80.8349152   9.9838982  64.2129211
  81.0039215   9.3987570  65.5985718  61.1954727  49.1191750  54.2383575
  61.2310295  48.8758087  55.1634216  60.6388206  48.4522095  53.8364525
  41.0464096  12.6076860  70.1262589  41.9435043  12.2787867  70.1834641
  40.8244133  12.5377426  69.1977844  26.7957077  49.9040146  51.7836685
  26.6047974  50.7501488  51.3789024  27.4282017  50.1056480  52.4732552
  80.7146530  51.8989639  36.2687263  79.9491348  51.8916664  36.8433189
  80.7835922  50.9989700  35.9501495   5.5521121  44.7276421  88.1015854
   5.4921336  44.7050171  87.1465378   6.4216046  45.0866776  88.2785263
  82.0619583   0.5166375  84.2069626  81.7396774   0.0850811  83.4156876
  82.8916168   0.9138466  83.9421539  47.7078133  21.5010777   8.3893909
  48.0479584  20.6133156   8.2779837  47.4597244  21.7750721   7.5064349
   6.1827726  17.5015488  17.7041798   6.9132218  17.9336643  17.2615147
   5.4547229  18.1175232  17.6220169  65.1943741  59.4352074  53.6823502
  64.8688812  58.8115501  54.3314552  64.4053497  59.8421440  53.3244781
  71.5330582   8.5938282  38.0782356  71.3422012   8.1304455  37.2627106
  72.3922501   8.2663956  38.3443260  41.7123909  44.8629417  62.3337364
  41.9235916  44.4122391  63.1513519  42.5490417  45.2172203  62.0325127
  70.9909134  12.5150728  48.7716484  70.8857193  12.4729891  47.8211746
  70.1038666  12.6500673  49.1050491  43.4595985  22.0844059   3.5371647
  43.9860992  21.2946053   3.6606221  43.5071373  22.2594604   2.5973096
  86.3748932  20.7217083  80.7994995  86.7343903  21.0653801  81.6173553
  86.6009521  21.3805561  80.1429596  60.5468407  18.2767181  14.6276903
  60.5916595  19.2274971  14.5264788  60.1837654  18.1459522  15.5036526
  20.2517509  23.7810059  27.3099251  20.1720333  23.0011292  26.7606792
  19.5232010  24.3398762  27.0395317  38.8206367  56.5938873   1.0618829
  38.7765961  56.6032295   0.1057421  39.2013054  57.4413414   1.2924081
  33.0620384  38.0109520  16.5466022  32.2017784  37.6714783  16.7934704
  32.8953743  38.5426369  15.7682915  43.7891159  36.3656464  14.0508671
  43.7536430  36.3254509  15.0065651  43.5263214  37.2613258  13.8388968
  53.9675751  19.0199242   3.9537692  53.7590179  18.8378067   3.0374899
  53.3925934  19.7477493   4.1901927  30.9134064  14.0549154   9.1805906
  31.5504570  13.3512917   9.0568438  31.3511467  14.6743860   9.7644320
  65.9071121  44.8340187  36.6999969  66.3669662  45.5859032  37.0734100
  64.9828568  45.0816727  36.7255745  58.3713036  46.3276024  27.2268105
  57.5332069  46.4148941  26.7727089  58.7333145  47.2136765  27.2338791
  43.2994003  22.0048313  85.8746338  43.8032379  22.7936249  86.0750885
  43.9010811  21.4583282  85.3691177  10.8622141  21.8375683  68.9012451
  11.7438631  21.5195026  68.7069244  10.3492956  21.0437984  69.0531464
  55.9455490  46.4427872  84.7220840  56.5908737  45.7743988  84.9524078
  56.3174858  47.2595749  85.0548859  22.4255753  62.1386299   1.5381010
  23.2601185  62.5266991   1.2750961  21.8743935  62.8873940   1.7656562
  37.5289841  33.6373138  12.4063120  37.0065613  34.0467834  13.0959806
  37.1176186  32.7840080  12.2689066  31.1304569  66.7548752  49.9501915
  30.5324020  66.9634857  49.2325249  31.4854851  67.6018677  50.2199898
  51.7805138  30.2984562  86.0939026  52.6518211  30.2890911  86.4900970
  51.6537552  31.2054462  85.8154602   1.8460956  31.5839558   4.1608014
   1.9187349  31.8973312   5.0623283   1.1097572  32.0743561   3.7953622
   8.1550179  55.6318626  42.7185936   8.9471025  55.7441292  43.2441711
   7.4382610  55.8382416  43.3185120  24.4358521  45.4444199   6.9840059
  23.7607346  45.5388107   6.3120408  23.9913387  45.6644211   7.8026881
  47.9328575   5.9189506   1.1986110  47.9092255   5.7688398   2.1436718
  48.1916733   6.8360476   1.1081640  70.9617157  47.4252853  81.5537033
  71.5415726  46.7871933  81.9694366  71.1587372  48.2513466  81.9953308
  79.4752274  57.4386711  58.2953529  80.2407608  57.3759346  58.8665428
  79.8147049  57.2568436  57.4190369  62.1142502  54.9236298  55.0536003
  62.1348190  55.2557793  55.9510918  61.2070923  55.0458946  54.7736969
  60.4079857  16.8970985  39.3877525  59.8682022  16.5235138  40.0843887
  60.1270561  17.8103676  39.3307419   0.9309266  41.2357559   0.8207272
   0.1259759  41.2816582   0.3048014   0.8657084  40.4057388   1.2930057
  26.4905319  59.3016472  77.0260391  26.2089043  59.0454292  77.9042587
  27.2896843  58.7971687  76.8740768  66.6001129  60.8308334  61.4044113
  65.6731796  60.6077995  61.3190384  66.7380905  61.5299301  60.7653008
  23.8268661  66.0403214  83.7491226  23.8014622  66.3354187  82.8388977
  22.9077759  65.9184189  83.9871292  75.3168716  51.6743736  70.5825958
  75.6840210  50.7903938  70.5866547  76.0805359  52.2507744  70.5542603
  60.8350639  45.2244415  32.8805504  61.5007401  44.5612755  32.6980324
  60.6548538  45.1317787  33.8160553   0.7972608  21.4948730  62.8869247
   0.4455760  22.2782459  62.4639854   0.3902796  21.4872360  63.7532616
  76.5202942  41.5798531  67.3860397  76.7397308  40.7288589  67.0067215
  77.3539886  42.0489006  67.4204407  72.5793915  57.2767296  84.4387436
  71.9290848  57.1602859  85.1314011  72.2619705  58.0267715  83.9358368
  74.0638657  44.8184319  87.5837555  74.4995499  45.3028030  88.2850418
  73.2314453  45.2742691  87.4591599   1.0679443   8.3334646  62.5297966
   0.5864175   9.1049166  62.2310905   0.7447896   8.1782274  63.4173241
  50.6401253  15.3856583  54.5791016  51.1863670  15.8851824  55.1860008
  51.2624397  14.9777460  53.9769707  42.3878403  17.8117428  65.6463776
  42.7556419  18.2854042  66.3924408  41.4452248  17.7983418  65.8122940
  59.0948448  41.8873825  78.8122711  58.8990822  42.8203735  78.8985291
  59.4744644  41.6432686  79.6563797   9.7906113  69.1711121   1.8480760
   9.4742928  69.0468979   0.9532315  10.7442732  69.1782990   1.7661707
  66.4260864  57.3086128  17.6812401  65.5084076  57.3747711  17.4171791
  66.7062073  56.4511299  17.3611145  53.7242088  38.6242371  41.7010803
  53.4328537  38.8674240  42.5798302  53.0889320  37.9697762  41.4106712
   8.2606840  41.6058350  34.3373299   8.1476402  42.5162811  34.6103592
   7.7590632  41.5353050  33.5251503  80.4097519  57.0821381   1.7241162
  80.4205780  57.8274460   2.3246400  80.3147659  56.3178902   2.2925670
  46.3249779  18.7646332  15.7213345  46.3775291  19.7028294  15.9037066
  46.5275421  18.6901989  14.7887793  81.8557434  51.1682816  65.7406921
  82.3977814  51.1896553  64.9520416  82.1536026  50.3920860  66.2150726
  70.8981323  16.7367592  35.3664436  70.1035004  16.6713524  34.8368073
  71.2947464  15.8673201  35.3116226  25.5344925  25.8673687   0.2259223
  26.0366096  25.4345493   0.9164128  25.7661686  26.7926979   0.3054476
  56.2209435  62.1778488  30.9759769  57.0934868  62.3385086  30.6166859
  56.3358231  62.2465515  31.9237709  57.6254845  58.0088844  88.0699539
  58.5285950  57.8876572  87.7768173  57.1452942  58.2431793  87.2757492
  36.0955505  35.6455002  74.6115494  35.8298264  36.4404602  75.0737839
  35.8692207  35.8133545  73.6967621  47.6116791  44.7356682  12.0843973
  47.6219177  44.8795280  13.0306692  46.6825638  44.6849098  11.8598900
  77.9994965  69.6570435  86.2316589  78.5908356  70.4029694  86.1309509
  77.5768585  69.7990952  87.0786743  30.3570042  40.5223999  30.2220421
  29.5137615  40.6747971  29.7954865  30.2079067  39.7605820  30.7820759
  14.4087334  30.4181767  15.2288113  15.1984453  30.9523544  15.3138981
  14.1744061  30.4828835  14.3029957  24.5580635  52.8827133  58.6122093
  25.4516506  53.0377426  58.3061066  24.6585217  52.6446800  59.5338821
  21.5879021  64.2966843  22.7113304  22.4303455  64.2865753  23.1656628
  21.1679688  65.1057510  23.0033760  14.3239346  64.2793884  45.1464119
  14.1846151  63.3334923  45.1922798  13.5468540  64.6562347  45.5591660
  55.6919022  55.1777267  18.4957275  55.4771271  55.6671028  17.7016144
  56.0042534  55.8424454  19.1095848  51.9986725  44.5088654  58.9677086
  51.3390732  44.1354370  58.3831520  52.7284279  44.7359390  58.3914032
  62.1078415  57.4045639  61.7172203  61.4777832  57.1475754  61.0440025
  62.7162094  56.6674385  61.7697792  73.0404587  32.4529419  17.7524166
  73.6366119  32.4414444  18.5012169  73.3776550  33.1490021  17.1884727
  52.5936775  49.0121384  50.5280952  51.6754875  49.2825584  50.5227089
  52.5651703  48.0648651  50.3935852  15.2532454  52.8818130  71.9636459
  15.7448387  52.0921440  71.7378311  15.8273783  53.6031647  71.7062454
  61.6227074   4.8289709  44.7223778  60.8541222   4.9159369  45.2862434
  62.0914154   4.0709472  45.0715790  63.0664940   7.6209812  38.8876343
  63.6703415   7.1931157  38.2805634  63.2745209   8.5525255  38.8156509
  56.6260986  22.9524078  25.8344955  56.1007538  22.8363686  26.6261921
  56.0854073  22.5894966  25.1329384  39.1291924  36.2643166   7.9941878
  39.7676735  35.5721169   8.1657476  38.2873726  35.8101349   7.9582920
  15.6086292  14.0819035  70.3012009  15.8328905  14.8475132  69.7722549
  16.3753853  13.9416885  70.8567657  45.0222282  34.5340233  12.3719606
  44.4553452  35.1719971  12.8053942  45.9019852  34.7431335  12.6858635
  41.4003448  48.0392685  36.1107674  40.7040825  47.9607239  35.4586334
  41.0236168  47.6692123  36.9091187  15.5878744  38.9066811  26.9369164
  15.1508780  38.1611404  27.3485394  15.6814489  39.5481682  27.6411686
  48.8893852  35.4190559  19.4990826  49.0584297  34.6815338  20.0853539
  48.1964798  35.9164314  19.9335155   3.8437040  65.9881592   3.2671657
   3.6969671  65.2867889   2.6325202   4.7116160  65.8070221   3.6279256
  42.0041542  13.6807117  76.0138168  42.9343338  13.4962835  75.8834991
  41.7827759  13.2310400  76.8292999  59.4028053  31.2969971  50.9370766
  59.6963387  30.9838371  51.7926445  60.0528107  30.9575443  50.3218575
  14.9830208   1.1886489  79.5950165  14.3692856   0.9849899  78.8892670
  15.3427973   2.0440066  79.3601608  83.7196655  52.4278297  10.4175653
  83.3041458  51.9841309   9.6781693  83.8245316  53.3332825  10.1253519
   5.1777983  28.8494911  62.7722168   5.0830307  29.0536594  63.7025757
   4.3173285  29.0367661  62.3970490  65.5298538  23.9223251  67.0623322
  65.1934128  23.0401897  66.9046021  65.0620346  24.4729061  66.4344406
  82.2190781  59.6385994  86.5720215  81.6988449  58.9558983  86.9957047
  82.8796768  59.1601486  86.0710983  21.6355782  23.7080593  74.4457245
  20.9379635  23.3454533  74.9916916  22.2715664  22.9971180  74.3662720
  82.4534149  53.0544014  58.5352859  82.6067429  52.3487663  57.9069519
  81.5341263  53.2903328  58.4108696  77.3248520  26.3437004   0.5485344
  76.5310364  26.2391644   1.0730902  77.9802551  25.8091373   0.9967770
  65.6401749  63.3705482   8.7723522  64.9629517  62.8985291   9.2569084
  66.4414749  62.8725281   8.9339981  76.7914734  35.6314964  14.4887934
  75.9741821  36.0492821  14.2172775  77.3614197  35.6998825  13.7228146
  33.6188965  65.5596085  26.8198338  33.2245903  66.3416748  26.4336739
  33.3367081  65.5757446  27.7343502  71.1370316  48.0292473  75.5048676
  71.6737900  48.6529732  75.0158997  70.9029922  48.4932518  76.3087082
  52.1390724  35.4843712  75.5638504  51.3109283  35.8704414  75.8490753
  52.1547165  34.6202049  75.9751892   0.1002719  14.5091553  76.9304352
  -0.0520022  15.4541616  76.9331741   0.8504741  14.3857479  77.5119781
  75.2919922  32.7370224  75.7492371  75.7276154  33.3941689  76.2920227
  76.0022507  32.3204575  75.2611465  10.6827307  12.7236118  72.7315674
  11.1909037  12.9152946  71.9433746  10.5162220  11.7821026  72.6861191
  16.3968582  49.5382957   6.1820521  16.3346062  49.6629372   5.2350450
  15.5811291  49.0974770   6.4197450  77.9575577   2.2087460  49.0865479
  78.8188934   2.4897940  49.3953362  78.0448303   1.2638841  48.9606438
  48.2840958  39.5195999   7.8924398  47.9053535  39.1960526   8.7098141
  49.2082253  39.6626434   8.0967865   8.8848810  38.4896812  43.8453941
   8.4742298  38.1813965  43.0375824   9.2571650  37.7014427  44.2407608
  50.5578499   2.1640666  85.7888260  51.0312004   2.4906301  86.5540237
  49.6437225   2.1273949  86.0703506  40.8214951  39.4419174  82.7099152
  40.5661316  40.2167358  82.2092438  41.7764359  39.4898491  82.7549362
  84.8409958   8.3008537  71.1342392  85.5253296   8.9410181  70.9390411
  85.1341858   7.8749132  71.9397507  28.3011017  38.5109100  22.5245953
  28.4318523  37.6469650  22.9154091  27.3735905  38.7001228  22.6665592
  82.2667389  26.6813736  20.5881271  82.4133377  27.4072475  21.1946297
  82.3910828  25.8956299  21.1204586   4.0706310  68.7433243   7.6357226
   3.9195008  68.0069962   7.0430846   4.3851857  69.4469604   7.0681167
  67.2486877  70.9570618  21.2592449  67.6129303  70.3964386  20.5742188
  66.4412460  70.5168915  21.5248184  15.9812040   1.4809918  72.1650848
  16.3002281   1.6154497  71.2726898  15.0425129   1.3240765  72.0627747
  55.4064026  21.4414272  23.8655682  56.3217583  21.1740589  23.7827034
  55.2893066  22.1078472  23.1885109  27.6889057  46.7692375  35.7097092
  28.0872917  46.1424637  35.1058273  27.2345200  47.3924217  35.1427803
  26.2543736  22.5497055  71.1919785  26.4161873  21.7163849  71.6342697
  26.6872616  22.4583588  70.3431549  45.3688049  44.9528084  87.4470215
  46.2891350  44.7751923  87.2529068  45.3524132  45.1309853  88.3873444
   3.5413804  44.5689888   0.8854492   2.7276421  44.3269920   0.4432980
   4.1105657  44.8847313   0.1836170  43.5446281  10.8992491   2.4340122
  42.6370926  11.2034864   2.4268358  43.8321533  11.0246983   3.3383489
  46.3321114  69.2039261  25.0645256  46.5645561  69.1187820  25.9891624
  45.6570053  68.5398254  24.9251366  14.4777861  62.1261559   2.1685233
  15.3739700  62.4030724   2.3593214  14.3990746  62.2078590   1.2180703
  73.7286530  31.0433846  77.3444443  74.4154892  31.3269196  76.7410355
  73.4966812  30.1636524  77.0469666   4.8342094  38.7526855  42.5569839
   5.7496352  38.8366432  42.8237762   4.4342084  39.5852394  42.8081512
  84.3419724  33.0451508  65.1892776  84.2532501  32.2331848  64.6902008
  84.1570663  33.7376518  64.5548630  40.9089241  61.8460999  48.1578712
  40.2099609  61.2761116  48.4784851  40.4537468  62.6205559  47.8273201
  25.4841423  39.4625778   0.0010993  25.9219933  40.0220146   0.6426224
  26.1900616  39.1477165  -0.5635000  27.8118725  11.9770937  65.9383011
  26.8941193  11.7865534  66.1323547  28.2591858  11.8821898  66.7792130
   2.5980170  24.1918564   4.3972850   1.7224633  24.2593956   4.0163965
   2.4667120  24.3587799   5.3306270   1.1364065  57.4642906  25.8920441
   1.2785964  58.0840912  26.6074867   0.7052255  57.9799461  25.2105675
  59.1205711  57.6527100  67.9584274  59.4249420  56.8088875  67.6244354
  58.3528519  57.4378014  68.4881897  28.3584003  39.0179520  66.0975876
  28.1798458  39.1522179  67.0283508  28.1826363  38.0884132  65.9516449
  55.8172836  41.2503128   5.1316462  55.2337570  41.3091202   4.3751616
  55.6142654  42.0278130   5.6517496  55.8014984  13.7500982  54.2590942
  56.5532570  13.3500538  53.8219910  55.9890518  14.6886683  54.2471619
  52.3037682  66.5294952  61.8512726  51.7991638  65.8989182  61.3374863
  52.5657539  67.1986389  61.2189331  69.2117081  27.7344341  48.4200974
  68.5210266  28.3081417  48.7518311  69.5289612  27.2691860  49.1941299
  79.7046204  39.9551468  60.1565781  79.5693893  39.8498764  61.0983124
  79.9587021  40.8720779  60.0521164  17.2764721  42.8934059  27.7061939
  16.6022358  42.3948059  28.1677513  16.8701935  43.1310425  26.8727074
  61.0719414  18.3675747  10.0411844  60.4536896  17.7599049  10.4470558
  60.6818123  18.5745659   9.1919575   9.0714607  48.2858658  70.0396652
   9.9943514  48.0375443  69.9863586   9.0033255  48.7805786  70.8562775
   2.8515613  17.7633877  85.5423889   1.9201200  17.9725342  85.6124344
   3.2970870  18.5321274  85.8984451  32.1658134  39.8773842  42.7030144
  32.6729317  39.1650772  42.3135490  31.5831699  40.1680565  42.0013962
  44.5258789  36.9500389   8.0871429  45.2844963  36.4297218   7.8225689
  43.7725563  36.4595413   7.7582827  48.6828880  54.7598495  68.5939484
  49.4781113  54.8967056  69.1088409  48.9910316  54.3673782  67.7770996
   5.5766578  35.6097450  51.8314400   5.5935478  35.3263435  52.7455673
   4.8792334  35.0896454  51.4322815   6.8257322   3.7337921  58.9274521
   6.6436100   4.3464465  58.2149086   6.8902526   2.8803267  58.4988899
  65.2587204  51.2684669  37.1266556  64.3529968  51.0655479  37.3605766
  65.7042007  50.4213066  37.1365585  65.1496506  27.7773933  61.6847496
  64.2565842  28.0086346  61.9400787  65.0399857  27.1066303  61.0107460
  52.0000725  14.8264637  78.7087479  51.9349785  15.1887856  79.5923309
  52.1706657  15.5852280  78.1507111   1.6351279  38.0296516  62.4249306
   1.8256657  37.3244705  63.0435143   1.6083844  38.8202744  62.9638443
  60.2476463  21.9323101  24.5759373  60.8639870  22.3203144  23.9548054
  60.4991646  21.0097198  24.6183014  57.9434814  53.0753403  79.2192993
  58.1829643  52.1753922  78.9979935  58.3985329  53.2485275  80.0434189
  43.0380287  42.3052521  59.3975906  43.5898743  42.6149139  60.1157875
  43.0847206  43.0014420  58.7423248  68.1401291   1.4758914  34.7644997
  68.3705521   0.6533604  34.3325539  67.7141876   1.9939431  34.0815430
  29.1217899  57.1752663  88.4048157  28.1901188  57.0380478  88.2333679
  29.1710205  58.0602531  88.7661972  83.6305695  37.9612579  15.5414705
  83.2878418  37.6936989  16.3942223  83.0500031  38.6688423  15.2612972
  61.5131721  63.8091660  35.8599281  61.8203850  64.0783157  36.7256126
  60.5590477  63.8590851  35.9181747  24.8858566  17.3392372  65.4231491
  24.9382763  17.3169308  66.3786469  25.5608425  16.7262230  65.1318665
  82.8686218  50.7579269   6.8208251  82.9976501  51.6993828   6.7057352
  83.1648636  50.3729820   5.9960265   2.7163494  36.0221939  34.7551117
   2.4020061  36.2417641  33.8780670   2.2917013  35.1892128  34.9601746
  67.2526245  37.3492661  43.7896194  67.0922012  37.8963509  43.0207253
  67.5296631  37.9650116  44.4681015  71.4169388  24.5317440  64.7248459
  71.2822723  23.8253269  65.3565674  71.5368195  24.0843372  63.8871765
   6.7677550  27.0418644  58.9934158   7.6199646  26.6310902  58.8476982
   6.1932240  26.3187847  59.2450142  42.5782814  39.8823280   0.7070543
  43.1764374  39.9734421  -0.0346595  42.7571373  39.0079269   1.0529776
  52.3090973  32.1036301   1.3171345  52.9754677  32.5922279   1.8003023
  51.9037399  31.5376225   1.9740636  81.9616623   6.2974291  38.9040337
  81.4772263   7.0616884  38.5918427  81.6328354   5.5720992  38.3729935
  23.9419003  41.1420517  75.2414322  24.6476002  41.3707924  74.6365356
  23.9295406  40.1849327  75.2440872  52.4248695  55.8069458  38.6052513
  52.4479637  55.2149353  37.8534355  52.1695557  55.2501488  39.3407936
  13.4449902  25.1448174  59.5328064  12.8243828  25.2295418  58.8089981
  14.2337904  24.7810993  59.1306419   2.1925797  13.6373587  22.2568493
   1.2660081  13.5064125  22.4582176   2.6361055  12.9032145  22.6817589
  74.0558395  54.8406792  67.4053268  74.2854767  54.1321945  66.8040390
  73.1175690  54.9741898  67.2709656  34.7849960  64.6306076  83.0333786
  33.8520737  64.7860947  82.8860397  35.2127762  65.4286346  82.7229004
  32.7814331  25.6164513   7.5803409  32.8694839  24.9688644   8.2797031
  32.6229782  25.0974026   6.7918539  25.6421547  50.8843422  83.5632935
  26.4377308  50.6975899  84.0617065  25.6580238  50.2550621  82.8421936
  13.6783457  34.4720383   8.4032412  13.4156780  33.9748878   9.1778889
  14.0720387  35.2710953   8.7535944   7.1985135  12.3573675  75.0065994
   6.9288287  12.0296450  74.1486359   6.3974361  12.7158680  75.3886795
  82.0156174  69.8582382  33.5466232  82.8561249  70.0440292  33.1279831
  81.3997879  70.4563904  33.1233025  68.7893982  61.9515457  32.7137756
  69.4984512  61.7464333  33.3232040  68.4216690  62.7722244  33.0416412
  71.6323242  10.2935457  72.8593140  70.7716141  10.6331787  72.6142273
  72.2509232  10.9378481  72.5151672  64.2786331  68.1364365  22.5319996
  64.3793106  67.4297562  23.1697273  64.4230957  68.9368591  23.0366650
  52.8518562  33.6270142  62.4051132  52.2226410  33.2566071  61.7861481
  53.0140228  34.5127983  62.0805817  86.3667450   4.6711650  80.1400070
  86.2921448   4.2991304  79.2612228  86.6552734   3.9398215  80.6860123
  45.4557381  34.8295860  37.5224876  45.0754852  34.3878670  38.2817802
  46.3950462  34.8538742  37.7050819  43.5219154  34.9088287  84.3975983
  42.6579323  34.5102959  84.2930069  43.9799156  34.3309898  85.0079803
  18.8960438  28.5932751  82.7655945  18.0495720  28.3226299  83.1212234
  18.7650433  28.6042519  81.8174667  32.2091599  40.2110100  50.1172676
  32.3494339  39.2684975  50.2079659  32.3663750  40.5620003  50.9938049
  15.2446661   8.1867828  72.5995102  15.7106333   8.0208759  71.7800140
  14.5784960   7.5005918  72.6394043  18.9211388  30.8706112   4.2898836
  18.7988853  31.5065765   4.9947486  19.1626625  31.3993893   3.5294290
  63.5560074  59.1258812  74.0425644  62.8846893  59.7562332  74.3037567
  64.0071106  58.9049606  74.8573837  22.5246849  56.8257599  48.5346375
  23.3932133  56.7264595  48.1447258  22.2241211  55.9289207  48.6815186
  83.3001251  22.1211834   7.3888993  82.5179825  22.6637421   7.4894481
  83.3404312  21.6072617   8.1954298  62.1358299  55.7642212  23.3194866
  62.1878471  55.9661064  24.2537079  61.9314079  56.6021576  22.9043903
  68.8119583  38.0446587  10.3141527  67.8708038  37.8939209  10.4021101
  69.1336288  38.0827789  11.2148800  20.2534275  27.4158249  15.9629030
  19.7170830  27.8672314  15.3111382  19.9107208  26.5222015  15.9777594
  44.8407555   8.2815208  15.5863161  44.6568985   7.3646541  15.3819056
  45.5493889   8.2462225  16.2288303  76.7004776   5.5560532  36.8799515
  76.9651642   4.6726236  36.6235847  77.4340363   6.1117530  36.6166725
  33.0688782  59.1834717  25.3034878  32.6607361  58.6295967  25.9689732
  33.8653641  59.5117569  25.7207031  68.3575211  54.5712280  61.3165817
  67.7294388  54.2288322  60.6805649  69.2090378  54.2734566  60.9964523
  80.7037354  21.6251793  17.3491020  80.4919510  22.2706337  16.6747379
  80.9911728  22.1470394  18.0982838  49.0270844  21.4343834  72.3466873
  48.6702957  22.2889633  72.1045609  48.4072456  20.8035698  71.9804840
  39.7134285  62.8797989  18.9310284  39.7237320  63.8362274  18.9680538
  38.7881317  62.6470871  19.0078678  30.7055511  61.7346954  74.9048386
  31.2748928  60.9711418  74.8096008  29.9974670  61.4358063  75.4753799
  70.4531708  22.9784012  39.0368958  71.2695084  23.2733364  38.6333733
  70.2588577  22.1469669  38.6042442  23.9010792  47.5414391  50.2173805
  23.5733261  47.0936356  49.4374580  24.5917053  48.1178093  49.8901749
  66.2472687  53.2068329  82.6761703  67.1378021  53.5291710  82.5373077
  66.1821976  53.0833244  83.6231384  14.3720255  13.0966949  82.0015640
  14.0466356  13.9064913  82.3947296  14.5354433  13.3237000  81.0861435
  56.2855034  49.0075073  45.7974129  56.6394081  48.5102119  46.5347595
  55.6278496  48.4287071  45.4117775  20.2171059  26.4824677  73.4253235
  21.0786915  26.6172562  73.0306931  19.5977669  26.7194939  72.7350540
  22.6774864  69.6953888   5.3587570  21.8277874  69.9801025   5.0223403
  22.9683914  70.4170532   5.9162555  75.1252060  67.1493454  45.1588821
  75.6834564  67.6301422  45.7699661  74.4181519  66.8022079  45.7027588
  50.4417229  56.8915443  30.4576912  50.9794312  56.8222313  31.2465477
  49.7505074  57.5106239  30.6926174  33.1399803  48.3939362  84.6418533
  33.5361557  49.2584381  84.7509689  33.8627472  47.7806931  84.7751617
  83.7222595  20.5518723  80.7113113  84.6741791  20.4969273  80.7953491
  83.4161987  20.7688847  81.5919189  65.8142090  21.0022259  80.9226456
  65.0766449  20.6029701  81.3839874  66.4983292  20.3329735  80.9402466
  66.2626572  59.8321266   6.5442915  65.3237534  59.9071312   6.7147551
  66.5925369  60.7272835   6.6224422  40.8571930  11.8934746  59.2302895
  40.7055931  11.9775572  58.2889175  41.1940613  11.0042725  59.3401566
  41.6453056  47.5765533  57.3139534  41.4584236  47.6704140  56.3798790
  42.4866905  48.0165443  57.4352684  72.1272888  24.3363342  87.9134598
  71.1811371  24.3479271  87.7688980  72.4773102  24.9383144  87.2566986
  73.7447205   2.5027030  88.4605026  74.2318497   2.3398509  89.2682190
  72.9139328   2.8773117  88.7532349  58.1743813  17.7469749  89.1333313
  58.6870842  17.0613995  89.5615311  58.7389107  18.0629196  88.4278412
  77.9861984  59.4044189  23.8370457  78.2699051  58.4990463  23.7103939
  78.7287064  59.8303986  24.2653675  34.8063927   8.5292015  10.5432177
  34.9847679   9.1030064   9.7981253  35.5946541   7.9925756  10.6263571
  63.0457077  57.4803238  51.6225777  63.7723656  56.9482765  51.9468079
  62.2680626  56.9446716  51.7793465  62.6374741  56.1747513  57.4219055
  62.4250641  55.4245224  57.9771271  62.6127815  56.9259720  58.0146065
  75.2195663  60.8373871  57.7804756  75.2998734  61.0629845  58.7072372
  74.3346786  60.4822845  57.6962166  30.9546528  17.5664177  72.9422073
  31.1188374  17.1928825  73.8080826  31.5230217  18.3355255  72.9014511
  20.4940491  22.8105774  88.2491531  20.0279751  23.6453114  88.2963562
  19.9056091  22.1835880  88.6696930  31.5279579  59.6770706  65.9187851
  31.2430859  60.1421967  66.7053833  32.4076080  60.0131989  65.7471390
  10.3354044  62.0827293  83.2300491  10.7534256  61.8661270  84.0634613
  10.6369495  62.9698448  83.0342789  42.4205513   5.2542009  51.7729836
  42.1157341   4.6195593  51.1244850  42.5562935   4.7381983  52.5676804
  15.0542173  12.3594627  56.7378616  14.9938564  12.8887939  57.5330963
  14.8711176  12.9736233  56.0268707  66.4512939  61.2861748  78.3569107
  66.2868195  62.0390053  77.7890854  65.8351593  61.3935776  79.0815277
  61.4828415  20.3051643  12.0433607  62.2336349  20.1962605  12.6270380
  61.3517303  19.4390011  11.6576118  52.0712204  18.3271370  73.8537216
  52.3628731  18.8655224  73.1179886  52.4042587  17.4516392  73.6566925
  80.4584579  52.4239693  73.5604019  79.8222275  53.1353302  73.4868622
  81.1987915  52.8120461  74.0268021  80.9114914  62.0877151  81.8938141
  80.3786697  62.5209236  82.5606461  80.8100433  61.1534805  82.0758743
  44.5105209  48.3096504  58.0748062  44.1134987  47.6440315  58.6365509
  45.4525032  48.1595039  58.1545372  82.0243073   5.5684056  67.5917587
  81.1312332   5.2272201  67.5443878  82.3496552   5.2707953  68.4413528
  45.0424232  69.1315613  76.7488022  44.4014893  68.5034332  77.0818024
  45.5582771  69.3773041  77.5167465  22.9771709  44.9562035  51.8641853
  23.3019581  45.7242966  51.3943138  22.0506954  44.9056091  51.6289940
  67.9343414  65.9440308  71.1347122  67.3548813  66.1518250  70.4017258
  67.4825745  66.2923279  71.9033661  27.0226173  27.1972675  63.1473007
  26.0739822  27.2276421  63.0232048  27.2082977  26.2805977  63.3509483
  43.1224213  57.9620819  47.3836861  43.1936684  57.2479324  46.7503242
  43.8176498  57.7894135  48.0185661  46.9776459  60.1569366  59.0513573
  46.8597984  59.6144753  58.2715607  47.4293671  60.9386215  58.7333145
  17.1011086  12.7737827  87.8599930  16.8020496  11.8645010  87.8590088
  17.7675114  12.8074827  87.1736984   8.1320238  70.4847565  55.5145264
   7.9089508  69.8676453  56.2114029   7.5441437  70.2558441  54.7946472
   1.8840101  31.2181873  30.0742741   1.8414184  31.6056595  29.2000408
   1.3031671  30.4587574  30.0282230  58.3807907   1.4493233  31.9577923
  58.1385803   1.0040989  31.1457939  57.8515434   1.0229087  32.6318092
  44.2489624  19.9207096  64.6325455  43.5514221  19.2776966  64.5052643
  45.0491791  19.4585915  64.3828812  52.0438385  36.7565842  48.2145958
  51.1656685  37.1284485  48.1323433  52.5654526  37.4581108  48.6044769
  58.0244179  29.9822617  29.7273998  57.5354996  30.8008556  29.6431465
  58.6970634  30.0340519  29.0483570  41.9669113  14.1392641  62.8591957
  41.5021553  14.3901615  63.6574974  42.8929672  14.1830969  63.0973663
  85.0867386   6.6445580  56.4271774  85.7994690   6.8374767  57.0363045
  84.7443695   5.7996569  56.7189903  77.6154861   0.8957270  80.4371643
  76.9829865   1.0519665  81.1384201  77.2987366   0.1048810  80.0007401
  19.6378689   8.5739431  81.1646652  20.5165024   8.3634176  81.4807587
  19.3054657   7.7479711  80.8132248  24.1937046   6.0521750  77.3244934
  24.8424263   5.8711905  76.6443176  23.9145584   6.9521041  77.1558609
  60.8251114  22.8545113  27.0087547  61.5060387  23.5194359  26.9065514
  60.6934738  22.5088272  26.1259136  71.9607162  58.1094551   8.7960968
  72.0210114  58.9501762   8.3424597  72.7414093  57.6306000   8.5177984
  -0.0111637  53.4514694   3.3060675   0.9278783  53.3678932   3.1403952
  -0.4224858  53.2283287   2.4710495  80.2907562  19.1509628  79.6013031
  80.6024551  19.1151295  80.5056152  81.0837479  19.0705814  79.0712662
  10.2316208  44.2912369  77.6075897   9.7951670  43.8808250  76.8610611
   9.5230694  44.4898758  78.2197418  22.2970810  66.2139664  65.9415665
  22.1266689  66.3084030  66.8787231  21.4310513  66.0957947  65.5513611
  76.1418839  67.0687561  20.2310791  75.2753143  66.6737976  20.1346493
  76.7243805  66.3290558  20.4036236  81.9085388  26.8882275  13.0862989
  81.2498856  26.7906551  13.7739668  81.4009857  26.9865284  12.2807198
  30.3008308  39.5519562  55.8481064  30.8853359  39.1936760  55.1801071
  30.5739307  40.4646797  55.9407387  71.1910553   9.8931665  42.0594902
  70.6388931  10.4537668  42.6045418  71.9343109  10.4474678  41.8217010
   5.0847960  49.7506790  15.8398104   5.6729774  50.2221909  16.4296856
   4.5221419  50.4304161  15.4688511  69.4718552  53.1767921  29.6976318
  68.9578323  53.6893234  30.3215904  68.9582138  53.1973495  28.8901768
  57.7300034  60.1134377  14.5058374  58.5593376  60.5876503  14.5654926
  57.5571098  59.8198204  15.4003372  82.6847610  53.9518394  82.0962524
  83.3148651  53.6054382  81.4644241  82.1998520  54.6186256  81.6099548
  76.3706207  40.1808167  56.8437958  76.7876053  40.8204651  56.2665558
  76.5007629  40.5323677  57.7245369  22.2519531  17.3088436   2.8343747
  22.2699490  16.7794456   2.0371003  22.1723518  18.2100372   2.5217326
  48.9830627  17.0876579  47.0203781  48.1803474  16.5662632  47.0149803
  48.7582092  17.8786068  46.5304031  71.5759277  39.3143501  55.5213051
  72.1974487  39.4776649  56.2307243  71.7453156  38.4098053  55.2579765
  66.1379471  29.6167965  21.5456390  66.7621536  29.0109100  21.9450130
  65.4058533  29.6469479  22.1615639  86.0711136  69.3444443  46.2486076
  86.5056229  69.0532227  47.0502472  85.1668701  69.5125198  46.5137978
  82.4467010  16.9849434  83.4251022  81.9405136  16.3676281  83.9532394
  82.1828232  16.8013515  82.5234985  52.3948593  62.0590057  27.7772598
  52.9022217  62.2096252  28.5748367  53.0228882  62.1864853  27.0662327
  40.9345322  43.3009567  42.2043343  40.4863815  44.1430626  42.2834167
  40.2391891  42.6787033  41.9909554  50.2439842  56.1931725  56.5848541
  50.1604500  56.0590935  57.5289307  50.8215179  56.9518776  56.5008698
  71.1903305  44.8261261  55.1827354  70.3457794  44.3757935  55.1699677
  71.8140793  44.1574249  55.4655952  58.2509003  24.2909069  27.7087555
  57.6474342  23.7919292  27.1582222  59.0708504  23.7983398  27.6728458
  33.5380363  11.8290176   3.9040282  32.8390884  11.3786459   4.3782334
  34.3293533  11.3344297   4.1171832  60.4275742  26.4758759  40.8663673
  59.7348862  26.8457260  41.4137459  61.2285271  26.6038685  41.3746300
  60.2414169  20.6722431  75.5932236  60.1040688  20.5193729  74.6583481
  60.8598328  19.9916458  75.8588867  15.0252514  53.0190926  74.7017670
  14.9741297  52.8826752  73.7557144  15.0728140  52.1363449  75.0688171
  44.1989899  39.0460205  47.5255623  44.0324211  39.6764297  46.8247986
  43.3598480  38.6039124  47.6544609  31.7274513  11.4434958  78.5530319
  32.2230759  12.0137234  79.1407623  32.3634071  10.7909889  78.2597275
  77.2473145  64.9509735  51.7907257  76.5326996  65.2558136  51.2315979
  76.9282837  64.1272583  52.1594276  76.2086945  22.9407043  88.6776123
  76.1940460  23.4112129  87.8441620  75.3422241  23.0939350  89.0544205
  45.4999771  47.6736336  43.8627472  45.3695488  46.7384758  43.7055969
  46.4484596  47.7726402  43.9452553  35.5226479  46.3975296   9.5295753
  35.3447800  46.2098732   8.6079569  35.9459610  45.6043777   9.8581333
  21.0943890  51.7411995   8.7983198  21.4951801  52.3193398   8.1492043
  20.2242584  51.5529976   8.4466295  35.5328827  70.5744629   7.4875903
  35.7512169  69.6551132   7.3347545  36.1347504  71.0604858   6.9238782
  64.8512573   5.2369990   2.5611250  65.1400681   5.5106030   1.6905171
  64.7978973   4.2828274   2.5068932  60.0309906  29.2909088  31.4771023
  60.5901756  30.0077286  31.1775856  59.2595673  29.3368530  30.9122791
  46.6593819  62.7542915  27.7674160  47.0411758  62.4767914  28.6001587
  46.9769516  63.6488876  27.6446209  73.9339447  39.7643700   4.6640477
  73.2182465  39.9449120   4.0546107  73.8699417  38.8251266   4.8371429
  75.3888016  28.7021446   9.4299183  74.9590225  27.9587841   9.0069132
  74.6853027  29.3348598   9.5747852   1.9361042  68.3103104  53.9612007
   1.3374306  67.5851212  54.1398659   1.8543937  68.8819809  54.7245789
  33.5693817   3.1214669  88.7143326  33.5229836   2.2116506  88.4205475
  32.7991180   3.5376723  88.3274307   4.2752943  39.6302261  54.9087639
   4.1214471  39.0629845  54.1532516   4.8111439  39.1015511  55.5000305
  48.5735664  31.0613766  47.3058891  49.4180298  30.6309166  47.4393501
  48.1642265  30.5701141  46.5936127  37.5512619  58.9244194  54.7867546
  37.1433716  58.9524269  53.9212646  37.4204712  59.8036880  55.1417351
  56.8715057  38.9941864  84.6786041  57.0490150  39.9336433  84.6323013
  57.6541824  38.5841217  84.3105087  20.6716652   3.8435817  89.1031723
  21.0863609   3.2832108  88.4472427  20.2103901   4.5089893  88.5925980
   2.4380600  16.6222744  32.1260948   2.3026907  17.2316933  32.8517075
   1.8642316  16.9456005  31.4315338  31.5120792  52.9780655  24.6000690
  31.2283230  52.0989990  24.3491554  31.3872662  53.5045319  23.8104591
  20.1155758  51.7271233  84.9166260  20.5353279  51.8047104  84.0598755
  19.2452488  51.3771629  84.7261200  63.3335838  55.5841331  18.5205612
  62.6132164  56.1174278  18.8565598  63.5893822  56.0139542  17.7044392
  47.6731529  69.4134827  70.8058929  46.9074860  69.8458786  70.4277191
  48.2532082  70.1316605  71.0588531  80.0909195  20.6312103   3.1442144
  80.9452820  20.7546158   2.7306209  79.5371246  21.3090496   2.7568061
  74.0829391  38.2947617  48.7366371  74.9422379  38.5316811  49.0855026
  73.8541718  37.4849930  49.1928902  27.9935722  66.4815674  17.2682056
  28.9381428  66.3359070  17.2153015  27.6210232  65.8705139  16.6325550
  31.2164173   3.1857142   4.6599989  30.8672771   3.1885853   3.7687500
  31.7260971   2.3773596   4.7149663  29.3961849  61.7252159  36.8207359
  29.5247307  62.5960655  36.4447899  28.4599800  61.6843948  37.0158882
  15.5860205  61.7811623  54.9722862  15.7603998  62.6749191  55.2672768
  16.0730572  61.2280273  55.5830803  50.1372070  66.1215591  41.3851967
  49.4113159  66.6570511  41.0649452  49.7404633  65.5474167  42.0403214
  33.6410904   1.0063010  19.0836754  33.3073692   0.6312035  19.8986359
  33.8941689   0.2481243  18.5570316   4.9685907  67.2240677  79.3961563
   5.5531096  66.4876404  79.5757370   4.3748121  67.2470779  80.1465759
  35.6691322  55.7074661  19.0776672  36.2530670  56.4169502  19.3457813
  36.1811447  55.2012863  18.4469070  69.6498337  50.6498032  51.0294991
  68.7655716  50.3232040  50.8632202  69.5210114  51.4156876  51.5890160
  79.5316696  61.9038925  10.2569904  78.9873734  61.2885246  10.7482090
  78.9809189  62.6796799  10.1518621  68.6664200  32.4780235   8.4224863
  68.8210754  31.5386581   8.5220156  69.3497620  32.8905602   8.9507761
  61.0914268  50.8258553  19.3926353  61.8855553  51.3583298  19.3472061
  60.3992729  51.4469185  19.6194229  60.2322083   0.7057496  14.0673809
  60.9144173   1.3638602  14.2004757  60.3642426   0.0770151  14.7769527
  75.1086960  66.2028198  86.8118057  74.8689499  66.4319229  87.7097244
  74.8002396  65.3031616  86.7036667  25.5754433  51.1685219  40.4329262
  26.2155972  51.8735085  40.3358269  25.6195660  50.6892967  39.6055069
  23.3739338  27.5883331  21.4933949  23.0275841  28.2970734  22.0355759
  24.2447052  27.8891411  21.2335835  51.5034027  56.5641022  33.8782387
  51.4282913  57.4084473  34.3228416  50.8430405  56.0127945  34.2980194
  48.7957840  62.5009842  29.6701870  48.9545326  63.3277435  30.1257038
  49.5166588  61.9341316  29.9445000  51.1640129  57.6375198   8.5396976
  51.7315636  58.3277054   8.1965370  50.8698883  57.1611786   7.7632823
  78.6557617  68.9970398  62.4397583  78.5594330  68.5663757  61.5903587
  79.3478699  68.5044937  62.8809128   3.3691623  63.7088356  68.6582108
   3.1212757  64.6322861  68.7032242   2.6681967  63.2498436  69.1210327
  78.2474289  43.8983459  19.0270920  78.8399582  43.8755341  19.7785034
  77.3853455  43.7060013  19.3959465  23.7187576  46.5960999  40.6623001
  23.7395458  47.5400658  40.8195419  24.5437393  46.4097214  40.2140846
  41.1478348   2.3117993  33.7834702  41.1353302   2.8826597  33.0152283
  40.7146797   2.8218234  34.4679298  50.2629700  24.0707569  39.9606667
  49.3979645  23.6779842  40.0778351  50.2064590  24.5287399  39.1220436
  52.4436913   1.8775361  71.6269913  51.5894966   2.1878870  71.3265533
  52.3574905   1.8229238  72.5787354  86.0857086   5.6783614  62.7200584
  85.6888046   6.4769750  63.0677872  86.7065277   5.9871583  62.0601654
  11.7287683  47.1298523  36.7158012  12.4591799  47.7165565  36.5195656
  10.9763975  47.5299072  36.2797661  27.4178772  53.2002029  74.8052292
  27.6832352  52.3124809  74.5648880  27.5352325  53.7104797  74.0039291
  24.3508797  70.9136810  32.3980675  23.4697304  71.2541428  32.5526390
  24.9332161  71.5936127  32.7368965  24.0236759  24.0659714  78.9051895
  24.9430447  24.2013607  79.1346664  24.0244007  23.9841938  77.9514847
  78.1961746  28.4394894  78.2222290  78.4553452  27.6912556  78.7600098
  79.0002823  28.9476681  78.1154480  55.7158318  63.0135269  81.4765244
  55.7032089  63.9677696  81.4023972  55.8876038  62.8475494  82.4034424
  83.7380219  16.7602654  52.0451126  83.4251785  16.2267685  51.3145332
  84.4133682  16.2244091  52.4610291  65.0272369  14.1051979  87.8846741
  64.2267685  13.8879795  88.3624878  65.7132568  13.6050339  88.3267670
  59.8860626  67.7831497  79.7356415  59.2972031  68.1017685  80.4197159
  59.4080734  67.9318695  78.9197769  67.9550018  55.8258781  78.0195999
  68.0470505  55.3678932  77.1841278  68.6306839  56.5035019  77.9969940
  67.9530182  12.9064913  48.9788284  67.5970383  12.9697237  49.8651199
  67.9270172  11.9712954  48.7764320  80.1757126  41.0732040  11.8627605
  79.5169830  41.5014381  11.3160257  80.8027115  41.7662888  12.0695133
  83.3049393  32.4340858  21.5516491  84.1859436  32.0710106  21.4608994
  83.2945175  32.8214760  22.4268913  33.6528282  67.7946167  40.7893753
  34.1541939  67.4980545  41.5489273  33.2498627  66.9985733  40.4427223
  13.1820555  28.7045479  86.4290466  13.0301571  27.9804935  85.8216705
  12.7127876  28.4524975  87.2243423  52.4215240  39.9385567  51.7814980
  52.3780022  39.2463303  52.4411659  51.9433975  40.6707535  52.1707497
   5.2317176  52.5358276  44.3026237   4.6937947  53.1087341  43.7561378
   6.0178971  53.0497704  44.4870682  73.4628983   7.2369037  55.5418625
  73.1865463   6.3387561  55.7240486  72.6590271   7.6867380  55.2817116
  23.6352615  47.7541504  19.2710743  23.9566975  46.8535004  19.2293739
  22.7513351  47.6766090  19.6300926  32.4700241  34.8323975  12.4633532
  31.8221073  34.3742104  12.9986124  31.9557972  35.4432755  11.9354963
  52.6161346   2.3284166  16.7611084  51.7888832   2.5914075  17.1645012
  52.8090477   1.4734198  17.1458111  72.4686508  49.7450485  31.5807552
  71.5907898  49.3749695  31.4878731  72.3684845  50.6642609  31.3332710
  53.5896873  60.5349045   2.4118907  53.4598923  59.6072426   2.6089470
  54.5109024  60.5996628   2.1600902  51.6165810  65.4755554  13.5810022
  51.2192459  66.2957458  13.2883425  51.6139145  64.9172974  12.8034611
  36.0423775  53.0956955  66.3426437  35.4517517  53.3972130  65.6523743
  36.8503304  53.5883560  66.1986542  47.8170280  68.8833847  43.7116203
  48.7718353  68.8921661  43.6445656  47.5332870  69.6331787  43.1886177
  52.7482338  52.8966179  65.7170639  52.1317673  53.3749008  66.2715454
  52.6814270  51.9886208  66.0125427   4.4447322  57.2428360  74.4760590
   5.2647758  57.5003395  74.8973083   3.7615249  57.5918655  75.0484543
  66.8640823  29.4612350  65.8952103  66.8284378  30.3737526  65.6083755
  67.2074203  28.9856434  65.1387939  75.3849640  36.1597214  29.2114162
  74.7500763  35.5782852  28.7929897  74.8685532  36.6675148  29.8372707
  50.1682892  35.9238701  85.4334259  50.5450211  35.8523521  84.5563889
  49.2332878  35.7630882  85.3063049  76.4736557  32.0880165   7.1304302
  76.9667206  32.6437454   7.7339926  75.7633972  31.7284279   7.6618991
  56.9766960  24.5438557  53.2363892  56.1229668  24.8540115  53.5383530
  57.4171486  25.3303986  52.9145470  28.2863121  36.2592430  66.3104477
  28.1379452  35.5576210  66.9444427  27.4587479  36.3312569  65.8348618
  25.5069542  18.2828388   1.9037286  26.4610863  18.2192459   1.8610814
  25.3422966  19.0835457   2.4017148  13.2287550  35.9758568   1.7877825
  14.0426779  36.2574425   1.3700837  13.0471535  35.1178169   1.4043487
  68.1434250  28.7513065  44.5758514  68.9012299  28.7300453  45.1602478
  67.8539429  27.8403034  44.5257797  81.9561462  28.1750736  62.4930916
  82.2655029  27.9392605  61.6184959  82.4478912  27.6039047  63.0831642
  35.5712547  26.6600609   1.7265713  35.8387718  26.5972862   0.8096598
  34.6813507  26.3077946   1.7410878  69.9874496  56.9592514  72.7624512
  69.1758575  57.3048248  73.1341171  69.9852066  56.0325966  73.0023193
  49.1938553  35.0519066  24.7643948  48.8554306  34.4037666  25.3821430
  48.4599419  35.2276192  24.1755619  26.6697979  43.1405373  80.4865875
  27.4148293  42.9248619  81.0475159  26.6630154  42.4516678  79.8220215
  47.6816635  21.6233826  30.8005695  48.0181007  21.7582550  29.9146519
  47.7737846  22.4767513  31.2242546  64.8026657  22.4793396  18.3006763
  65.5600052  22.9585094  18.6369190  64.9919510  21.5623112  18.4993248
  83.8395386  69.6474991  83.0450211  83.4118271  68.8577576  83.3760986
  83.1509094  70.1108780  82.5682602  66.6356277  69.3460922  73.6792221
  67.0240097  69.8221054  72.9451904  66.7207870  68.4236069  73.4383850
  75.6621704  36.8537064  35.4420700  75.7306290  36.7539368  36.3915939
  74.8924179  37.4081497  35.3143768  58.7975311  22.3824844  88.2461014
  58.2431755  21.7263966  88.6685638  59.4635887  22.5909557  88.9011841
  51.2069855  41.9096565  84.2571335  52.0480461  41.5855026  83.9349976
  50.7450638  41.1249924  84.5523682  37.3683662   6.1695027  83.9399414
  37.1516685   5.3240981  83.5467911  37.2301826   6.8033962  83.2361526
  47.9678574  42.2038841  10.5915260  48.1973839  43.0956192  10.8529797
  48.7049332  41.9147949  10.0535860  42.1551971  66.6276932  19.3852501
  42.7918777  66.9424210  20.0269814  42.6864014  66.2233276  18.6992893
  47.6013412  23.4713802  71.1086197  46.8815689  23.6921673  70.5175095
  47.2098274  23.4943695  71.9817886  26.0329399  69.7476959  20.3278637
  26.3647003  69.1785126  21.0222645  25.6841621  70.5102921  20.7894230
  82.4100189  43.4157372  12.8285885  82.5061417  43.1825523  11.9052162
  83.1574860  43.0010986  13.2593985  22.0972271  10.5441837  12.8295822
  22.8008652   9.9214888  13.0122738  21.5149059  10.0782900  12.2295170
  26.6670361  61.7617874   7.0462470  26.0576801  61.9243813   7.7663040
  27.5268879  61.9788055   7.4065084  36.1156158  57.3295822  86.8644104
  35.6897697  56.6762123  87.4193802  35.4920349  57.4842148  86.1548538
  43.9606819  41.2313461  25.0083218  43.6345291  40.3589287  25.2291012
  43.2176437  41.6659889  24.5897388  13.1354818  63.4571457  41.7837944
  14.0294075  63.1742554  41.9764061  12.6217442  62.6495323  41.7916603
  19.6611958  67.2289047  28.4884357  19.2386761  66.5411911  27.9738922
  19.6607151  67.9934616  27.9125195  12.8734932  65.9095688  80.8382339
  13.6543198  66.0180664  80.2953110  12.8408413  64.9715500  81.0260925
  19.2376556   1.0988451  60.0778122  18.8264122   1.9151871  60.3618851
  20.0908699   1.0968411  60.5116959  27.8705711   2.4918513  58.7304688
  27.7394562   1.5520691  58.8563652  28.0242825   2.5884550  57.7906456
   6.9149189  22.9343548  79.4113846   7.1580796  22.5679340  78.5611877
   6.6552515  23.8352451  79.2185059  46.6862755  65.9802704  37.1853447
  47.0351028  66.7110901  36.6749954  46.9844894  65.1989899  36.7196159
  47.7096901  19.6819267  34.6506462  47.2006187  20.4001713  34.2748795
  48.6196060  19.9049339  34.4543037  75.4267426  39.3138275  18.0821991
  76.2876968  39.6244392  17.8020020  75.0314484  38.9547958  17.2877998
  46.8374672  52.0498962  65.1263885  45.9299011  52.3247070  64.9959030
  46.8078346  51.0944214  65.0771790   9.1582127  34.7356148  71.6773300
   8.2848225  34.5116386  71.3559952   9.5491199  33.8946686  71.9144592
  33.3024254   8.1299877  17.2505455  32.8287354   7.4017410  16.8486633
  32.7574387   8.8967981  17.0738411  64.9122391  26.0620041  84.1315613
  64.9384918  25.1353397  83.8931656  65.4811707  26.4901142  83.4918213
  19.0272179  68.2470627   6.4219322  19.4644566  68.7741699   5.7531958
  18.1646175  68.6505127   6.5187764  32.1995964  63.9127655  82.3246536
  31.8763275  63.0572281  82.0421829  31.6264133  64.5419312  81.8866501
  11.9019680  20.8073273  52.1074562  10.9587851  20.9446964  52.0193253
  12.2663774  21.6891823  52.1834183  54.0955505  35.4853554  15.9413471
  54.8423958  36.0221863  16.2064285  54.3682861  35.0869904  15.1148167
  34.0434189  10.8017712  71.7253036  33.6766815  10.5968466  70.8652267
  34.7010994  10.1222315  71.8733444  13.9771585  37.6940956  40.7297859
  13.3561249  37.1646843  41.2300568  13.8255405  37.4437943  39.8184166
  28.5684109  62.2224731  31.5084496  28.9835625  63.0830154  31.4505863
  28.8504982  61.7666473  30.7154293  48.8125153  19.5618916  76.4904556
  48.7757339  20.5113888  76.3749847  49.3458366  19.2520790  75.7584610
  44.8721962  33.5116196  52.5211754  44.4277916  32.7306633  52.1912575
  44.5271187  34.2271461  51.9871597  74.2460709  52.0913849  43.1041260
  73.9351654  52.9781494  42.9218597  74.7666016  51.8573990  42.3356667
  59.8757095  51.4827271  53.0081367  60.2645798  50.7618523  53.5034637
  58.9873543  51.5605545  53.3559837   3.8628612   0.4854338  37.8629379
   3.9282379   1.4228703  38.0450630   4.7691603   0.2002719  37.7465897
  25.4003773   5.8538013  65.6160507  25.5719070   5.0663295  66.1324844
  24.7074986   5.5954275  65.0082779  26.6373177  40.2258148  14.8215294
  25.8564720  40.7593269  14.9694300  26.9856224  40.5374451  13.9861841
  59.6658821   6.4062133  79.7879028  59.7791176   7.2656522  79.3819809
  59.2598915   6.5927711  80.6344223  50.2978058  34.4085121  47.9286423
  51.2519379  34.3999290  47.8525543  50.0184250  35.1241341  47.3576241
  16.7425537  11.3193312  13.2443619  17.0066528  11.0542097  12.3633432
  17.2433548  10.7480211  13.8266287  58.2546997  33.4061966  75.8205032
  59.0830116  32.9782066  75.6038132  57.7277336  33.3244476  75.0256119
  37.3713608  49.7636070  53.5965729  36.5770836  49.4843750  53.1411743
  38.0688972  49.2369270  53.2063408  23.4227371  37.6903801  61.7569656
  23.0092983  38.5511169  61.8235359  23.3989639  37.4848862  60.8223839
  63.8446350  11.1976337  53.4668427  64.0466919  11.8636189  52.8096733
  64.6509171  11.1105108  53.9753227  15.5855207  59.8700867  77.4471054
  15.3267965  60.7765923  77.6130447  14.9276810  59.5416107  76.8342590
  44.8124313  52.1891441  83.6547318  45.6032333  52.6573677  83.9223633
  44.6531563  51.5642052  84.3620605   0.9240892  32.6632385  61.1071014
   0.3424197  33.1787834  60.5484390   0.6050108  31.7649288  61.0207138
  64.8498001   6.5464387  75.6119308  64.1064148   6.9625120  76.0483856
  64.4976501   6.2445765  74.7746124  42.2676659  57.2443008  20.8460598
  41.9606743  57.9293480  21.4399471  42.6367531  56.5752411  21.4225712
  13.6798363  60.5072212  69.8850021  14.0219917  60.1815453  69.0524750
  13.0572033  61.1906815  69.6371231   0.8446929  17.5026150  46.8216286
   0.2072653  17.6704426  47.5157089   1.1843965  18.3680820  46.5940285
  44.8864861  18.4714890  70.9986496  44.0264244  18.8787670  70.8954620
  44.6953049  17.5531387  71.1892166  72.7045288  21.5373192  63.9181290
  71.7529373  21.6319294  63.8762283  73.0426941  22.3737144  63.5982552
   7.9376502  47.1761627  14.1175795   8.5978699  46.8506775  13.5056963
   8.3349409  47.0631180  14.9810686  45.0247612  18.4004192   6.2025294
  44.1609039  18.2201614   6.5733285  45.4176483  17.5362854   6.0794687
  18.6090794  48.4611740  29.9772434  18.4106617  47.7848129  30.6248512
  18.7205849  49.2603836  30.4920883  73.8389740  17.9874935  84.2857056
  73.0100784  18.2737217  83.9019928  73.7920151  18.2735214  85.1979675
  12.9119444   4.5817342  22.6956997  13.5459814   4.0439515  22.2213383
  12.9288092   5.4258132  22.2446136  57.0735245   0.5422245  83.1291428
  58.0227623   0.4368311  83.1929626  56.7360611  -0.3521238  83.0792389
  50.1644516  55.3928947  45.8280182  50.7751389  54.6915512  46.0547562
  49.6652870  55.5445900  46.6305504  13.8724995  33.6913567   3.9098282
  13.7425337  33.5815735   4.8517880  13.1059866  34.1849632   3.6182110
  25.8880310  64.2393951  72.1517792  26.0264416  63.3252525  72.3995972
  26.6195965  64.7094345  72.5519104  83.7563324  31.0642643  42.0411263
  84.0019455  30.7535973  41.1696968  84.5545731  31.4637260  42.3867874
  70.2767105  49.6318245  21.6763744  71.1755295  49.3173027  21.7734718
  69.7568054  48.8374023  21.5546169  26.1763401  70.2783051  11.7121019
  25.4486179  70.0963516  11.1175032  26.5555534  71.0936661  11.3840570
  79.9795227  60.1392746  79.6483994  80.0776291  59.8481331  80.5549545
  80.8432312  60.0040245  79.2585983  80.8406219  30.4194183  35.8228607
  80.6652298  30.9523182  36.5984154  79.9766617  30.2542744  35.4453316
  52.5872002   5.7469392  61.7460060  52.3951111   4.8160849  61.6326790
  53.5079689   5.7715139  62.0064278  79.4619446  64.7272873  10.4059010
  80.3768921  64.4677811  10.2975101  79.4805298  65.6841278  10.3870869
  75.3957825  32.5317192  88.0751648  75.1479111  31.6639271  88.3941040
  76.0584030  32.3606606  87.4059067  17.6786060  70.9710236  10.4261713
  18.1035290  70.1156235  10.3631783  17.0245495  70.8632812  11.1167021
  71.3368683  29.7942905  70.7298126  70.4671478  29.6057758  71.0823593
  71.7602997  30.3224621  71.4065475   1.1398028  13.7389317  44.4592667
   0.6036670  13.5591326  45.2315750   0.7114338  13.2558842  43.7525864
  13.0688839  45.4937630  23.3460979  12.5516462  45.5628624  24.1485443
  12.8655767  44.6230812  23.0043259   9.8952265  48.9405479   5.4730549
   9.7104874  48.6837654   6.3764739  10.2509413  49.8263779   5.5438075
  33.3625298  56.0902710  31.8245945  33.0532074  56.6540146  32.5336380
  32.9569664  56.4520836  31.0366592  77.2454529   2.4307394  57.1027641
  76.3785629   2.0333710  57.1854286  77.4013062   2.8443062  57.9518280
   6.4882317  13.9175940  24.3467216   6.4298034  13.3159933  25.0889435
   5.7723918  14.5379725  24.4843273  72.4350052  24.1425877  51.8461227
  73.3127594  23.8312950  52.0671768  71.9807816  23.3660717  51.5191002
  81.8352051  43.8137817  17.4277077  81.8496780  44.6894836  17.8139343
  82.7466812  43.6408348  17.1920738   8.5391369  69.3817749   8.0247173
   9.1691856  69.3806152   8.7453213   7.8498092  68.7812424   8.3082991
  39.9837799  23.6910496  17.6258163  39.7407455  24.6155663  17.5764828
  40.9045410  23.6990700  17.8872890  55.4474907  53.9293976  78.4350586
  54.9157257  53.1546593  78.6173630  56.3437843  53.6561127  78.6305237
  72.5910339  39.8362961  47.3897858  73.1802063  39.1455383  47.6930389
  73.1397858  40.3942947  46.8386574  37.0966682  48.3015366  55.9965973
  37.4174271  48.6875420  55.1815224  37.8442497  48.3452759  56.5927811
  49.8612976  65.1888046  77.3534012  49.8070717  65.8610153  78.0326767
  49.1187057  64.6108017  77.5286026  12.3975124  44.5719719  46.9722290
  12.1157951  44.4095573  46.0719566  11.6244879  44.3806038  47.5033073
  64.9936066  57.4455566  83.4532623  64.5520020  57.9995003  82.8095551
  65.9262390  57.5752411  83.2811966  80.7739258  15.1161890  57.4990044
  80.1817627  14.6784487  58.1105270  80.2720032  15.8630762  57.1727104
  47.4394417  59.7730179  48.4603233  47.4363213  60.7301788  48.4523048
  46.5135689  59.5306053  48.4755249  60.5028572  13.0843487  80.9467545
  61.4512444  13.1730747  80.8523407  60.3907623  12.4752340  81.6765823
  54.9583740  58.4560547  67.9893036  54.4566193  59.0347176  68.5634308
  55.3786316  59.0455475  67.3631134  77.6640244   5.4568195  81.2322922
  77.2285309   5.0941491  80.4608917  78.0414352   6.2822900  80.9283295
  48.5243797  30.3130074  11.1826448  49.3212852  30.8279991  11.3089657
  48.7700729  29.4244595  11.4402323  29.9147358  62.8742599   5.1157503
  29.4013271  63.5678596   4.7015519  30.7732410  62.9284821   4.6959143
  84.0734863  39.0593452   4.7078562  83.8181000  38.2431793   5.1378317
  84.6485519  39.4925880   5.3385968  56.3657227   9.3020916  50.2870827
  55.7595863   9.6472597  50.9425926  56.3664818   9.9598541  49.5916862
  65.4607773  46.0450935   0.0391023  65.4190063  45.2160912   0.5157979
  66.0637665  46.5850677   0.5500458  41.8205070  19.1243610   0.9981225
  41.8951340  20.0280876   0.6916219  42.0583267  19.1651917   1.9244089
   4.1267838  31.1912670  88.6607361   3.4826660  31.8049183  89.0139694
   4.6267204  30.9028606  89.4243546  52.5158615  35.5045280  43.5746117
  53.1590347  36.0049591  44.0767365  52.2420349  34.8041344  44.1668129
  55.8458214  57.7980499  85.9121933  55.5683517  56.9100838  86.1374893
  56.1033134  57.7422943  84.9919586  49.3464165  18.3714523  54.8430405
  48.7372055  18.0227509  54.1922722  48.8494530  19.0531788  55.2952690
  50.2755318  60.0933990  41.6950111  50.2796021  60.3195038  40.7649078
  49.7688751  59.2826576  41.7421989  49.9430161  44.4287529  76.1868362
  50.8873634  44.5111580  76.0539703  49.5593109  45.0564156  75.5744247
  52.4953766   6.2586718  11.7792759  52.8260269   5.3605747  11.7612638
  51.5458641   6.1628809  11.8533335  71.7185593  68.2345123   8.0748100
  70.9187775  68.7601776   8.0905399  72.3996048  68.8249130   8.3970394
  40.1522713  30.2405167  78.8111496  40.3301468  29.4720459  78.2688904
  40.8263664  30.8720264  78.5600967  45.4057236  29.5638638  47.1736259
  45.5236206  28.6305389  47.3503609  46.2573433  29.9542656  47.3699875
  26.3844967   1.5295496  63.4351082  26.3883228   1.8480074  62.5324440
  25.4591026   1.3894522  63.6357384  36.7847748  37.6684570  58.1787224
  37.6346130  37.8590355  58.5758133  36.2634926  38.4549980  58.3395119
  50.1280899  49.8220367  74.6959610  50.8410378  49.4060898  75.1806564
  50.5539589  50.5148125  74.1910553  12.2118683  30.9081345   9.5187378
  11.7697268  31.2136688   8.7266569  12.3133183  31.6945610  10.0549021
  24.8777962   9.7394247   0.5715835  25.0021858  10.0692558  -0.3183436
  23.9281502   9.7233868   0.6905189  13.3600693  22.5325279  79.4944153
  14.2984867  22.6773186  79.3734131  12.9433966  23.1337204  78.8770142
  33.4763069  44.9935188  63.7438164  33.1067772  45.6517487  63.1552505
  34.4151535  45.0058517  63.5576782  59.8474007  56.2504272  60.2985535
  59.2811966  55.5757523  60.6733246  59.3516006  57.0628624  60.4003410
  74.6676025  51.0000458  67.9418793  74.7292023  51.4557877  68.7813644
  75.1379929  50.1780128  68.0805283  80.6798553  68.9884567  44.7091866
  80.2181091  69.8235931  44.7838783  81.5317688  69.2181549  44.3380966
  48.7420654  22.1218681  56.1225014  48.1733627  21.3975582  55.8613739
  49.5526657  21.9779854  55.6341782   3.2030835  30.0324764  80.2847137
   3.2602277  29.4753914  81.0610046   3.8842413  30.6926308  80.4129868
  14.7030697  56.4328384  33.7149506  15.1371717  55.5850029  33.6202660
  14.3796911  56.4370537  34.6158638  69.1955338  53.2655220  11.6814795
  69.7087173  53.9367371  12.1313038  69.6694489  53.1089973  10.8646975
  82.8133240  19.0641060  69.8204956  82.1292343  18.6829510  70.3709183
  83.5707092  18.4932938  69.9500122  76.5788651  62.7048683   8.1576672
  76.4653244  63.3266487   8.8765078  76.1649094  61.9000969   8.4694605
  71.3135681  65.4267883  14.1746645  71.1585388  66.1041794  14.8329458
  71.7869949  65.8767090  13.4749012   1.8619519  69.9366150  23.2263012
   2.3025537  70.6322021  23.7144184   1.0048823  70.3028793  23.0083179
  77.0274124  58.3933411  83.4399261  76.3341293  58.9280853  83.0531006
  76.5630417  57.6841125  83.8844299  41.1785431  40.5130653  10.6936016
  41.0830727  39.5622292  10.7486725  40.8267365  40.7396431   9.8327141
   5.8257370  66.1972656  27.2460270   6.6028352  65.7444382  27.5735836
   5.7980285  65.9816971  26.3138294  14.2567577  46.0894394  48.8445473
  13.6756210  46.0606995  49.6046066  14.1481037  45.2347374  48.4275169
  55.2482147  30.2699432  83.8172531  55.3403091  29.3446026  84.0441818
  55.0789566  30.2698135  82.8751373  83.1923294  68.0017471  36.0853043
  83.2995224  67.2006149  36.5980759  82.2456360  68.1386871  36.0500526
  64.7318878  50.9379616  52.6718903  65.2654114  50.7936325  53.4533920
  64.0038834  51.4801521  52.9756622  24.0645237  65.1313934  45.5407066
  23.1725636  65.2862625  45.2298164  23.9604359  64.5272141  46.2758026
   6.3984523  24.3818550  10.6317282   6.9588866  24.2167053  11.3899298
   6.9888573  24.3246040   9.8804779  23.1393738  56.1540871  72.5595169
  23.2972240  57.0619431  72.3004608  23.4879055  56.0947762  73.4490280
  44.2108994  70.8249512  36.6214600  43.4495621  70.6201248  36.0786514
  44.3467331  70.0385818  37.1500397  28.5912189  41.4091873  40.2098274
  27.8158970  41.9704514  40.2001266  29.3214245  42.0118446  40.3506699
   9.3993464  57.9596138  45.4819565  10.0651035  58.5230446  45.0875664
   8.6207733  58.0945282  44.9417229  55.0585938  27.3457260  83.9182434
  55.1850433  26.7502155  84.6568985  55.4928017  26.9118748  83.1837616
  61.4439430  52.5073128  79.6532516  61.1892357  51.9185677  78.9428024
  61.8756790  51.9395905  80.2916260  34.4457932  62.6552849   4.7230968
  34.0021400  63.4313507   5.0653319  33.7375870  62.0949783   4.4057083
  57.3786850  38.7321129  55.4138908  56.6393852  39.1089783  54.9367752
  57.1596260  38.8621635  56.3365669  16.8276291  34.1541824   6.1042237
  17.6503754  34.4770203   5.7366714  16.4352417  34.9204445   6.5226808
  53.1249084  49.8791389  70.1747665  53.6028214  50.6814766  69.9648056
  52.6035652  50.1054802  70.9449615  22.8990765  48.7466393  28.5227280
  22.3922482  49.2826233  29.1327095  22.3172092  48.0191612  28.3026371
  34.9172058   3.7209370  62.7207794  34.0663033   3.7940843  63.1530342
  34.7227859   3.3138020  61.8765793  80.0172653  45.2139969  63.7437439
  79.6987305  45.6900826  64.5106277  80.8320999  44.8059196  64.0365753
  82.5176926   9.5781965  80.9550934  83.0345993   8.8208742  80.6803207
  83.1656570  10.2627850  81.1215744  14.3740892  55.9347534  40.5495949
  13.4182272  55.9532242  40.5966949  14.5647392  55.4777527  39.7304268
  29.8751659   5.1402097  79.4326859  29.5429707   6.0253429  79.5824051
  30.3624687   4.9293685  80.2291260  61.9725342  52.2639046   6.3316627
  61.2898026  51.6287041   6.5476017  62.5510521  51.7978287   5.7280693
  39.5799561  60.7483559  24.5031013  38.7480087  60.4893608  24.1068478
  40.2455254  60.3239784  23.9616642  50.2581177  55.2344856  78.7792664
  50.7461052  55.3785172  77.9684906  50.7863007  55.6589584  79.4553452
  23.9879837  52.0337715  10.8928413  24.0961933  51.7584648  11.8031864
  23.7269306  51.2369957  10.4310713  77.0862045  13.5718937   5.2289124
  76.2167511  13.9111795   5.0163951  77.6817322  14.2916908   5.0204186
  53.8425407  26.8459263  72.6612015  54.6486244  27.0729027  72.1975861
  53.9413605  27.2478561  73.5242920  75.2270203  18.7789440  71.8669052
  74.7779846  18.0128059  71.5096512  75.0999756  18.7113686  72.8132324
  48.8988075  51.5954361  35.3275795  48.0600433  52.0058022  35.1170921
  48.9013405  50.7826309  34.8220367  59.2745094  24.1702194  76.1901474
  58.7323265  23.3815250  76.1749115  59.3723679  24.3756714  77.1199036
  39.4898949  57.7059402  32.3681946  40.4336281  57.6901321  32.5274162
  39.3580818  57.0889626  31.6483345  42.9512901  24.6475487  74.4835052
  43.6224709  25.2452793  74.1541595  43.4236069  24.0569801  75.0703354
  49.2211494  61.5655937  35.3933868  49.4601402  61.3620949  36.2976570
  50.0581741  61.6349525  34.9342461  36.8897400  58.1740532  22.1696014
  36.5568314  58.4105949  21.3038921  36.7701569  58.9642982  22.6963329
  30.9519653  40.4383278  64.7905884  31.7762909  40.1628075  65.1915970
  30.2909737  40.2703705  65.4622421  84.8367538  53.6393433  84.2917557
  84.5873108  53.0775223  85.0254898  84.0914459  53.5959663  83.6927032
   4.5013881   1.6938450  67.6255341   5.3249350   2.1235535  67.8565140
   4.4711113   1.7322004  66.6695862   9.1691370  45.6052895  26.6191635
   9.2648468  44.7933388  27.1169624   9.4717894  46.2894287  27.2163105
  69.1466293  21.0072308   4.1466980  69.5040741  21.6055374   4.8028178
  68.2812424  21.3628235   3.9444687  42.5952568  19.1190186  76.3790131
  42.1860123  18.2922707  76.1235962  43.0415459  19.4199467  75.5875015
  12.0441313  66.7302628  19.3407898  12.4228325  66.8936386  20.2045765
  12.5782900  67.2525940  18.7423954  71.4179459   7.8956017   0.9569237
  70.8995361   8.0731678   1.7417506  71.7609177   8.7508707   0.6978490
   6.3819270  37.1670227  75.7948456   7.0851665  36.9245567  76.3972549
   6.3481674  36.4477501  75.1641769  71.7803650  70.2541733  16.6840115
  72.1634979  69.8040466  17.4368896  72.3133774  71.0423279  16.5794640
  75.6109695  23.5905228  10.8678322  75.1372833  24.4089088  11.0165043
  75.3888626  23.3449860   9.9697161  19.2735462  65.8466492  57.3586121
  18.5915108  66.3728714  56.9413109  18.9310703  64.9529877  57.3408127
  43.1805038  33.2985497  64.7618332  43.6855736  32.6498718  64.2715683
  42.2670784  33.0585175  64.6060486  38.5313110  59.0741348  72.5282440
  38.6661530  58.1346703  72.6525650  37.8508644  59.3042297  73.1609268
   0.4639913  45.9138451  72.6089172  -0.2567974  45.3468399  72.3346939
   1.1662742  45.3093452  72.8489380  43.6101532  29.3012600   9.2042780
  43.4595528  29.0087566  10.1031618  44.4456825  28.9033585   8.9597349
  73.8147888  47.3230896  62.1127892  74.2141724  47.2145195  61.2496910
  72.9473953  47.6850281  61.9315186  33.0881348  41.1329956  34.2045975
  33.6026802  40.5006752  33.7029572  32.2853661  41.2460632  33.6956711
  40.6717644  65.4648743  45.2022781  40.3483086  65.6941528  44.3310509
  41.3980751  64.8635712  45.0375328  35.2321091  64.8367462  31.8896046
  35.4054756  64.7239304  32.8241882  36.0872536  65.0390625  31.5100899
   4.4804339  67.2816467  52.6689186   4.6697416  66.3465729  52.7465744
   3.8788974  67.4649734  53.3905678  51.7262459  66.7189178  56.3987885
  50.9243622  66.6818848  56.9201775  51.4215965  66.8342819  55.4987297
  60.8258667  67.7293091  43.1255112  60.0465279  68.0047073  42.6427917
  61.4596519  68.4312286  42.9776764   3.6463242  69.7405319  13.3318796
   4.1263409  70.2086639  14.0150127   3.7681351  70.2729797  12.5458174
  23.7477608   1.4192698  64.0613174  23.2261467   1.2503608  63.2766991
  23.4212570   0.7913160  64.7057571  71.0581665  34.6135025  85.7187958
  70.9910126  34.2920265  84.8197021  71.9284744  34.3384323  86.0071335
   0.7942843  28.4178295  54.1212692   0.4315600  27.5565662  53.9141731
   1.7374194  28.3179359  53.9918518  33.7974930  35.7058640  88.3756638
  33.9906464  34.9137611  88.8771591  34.4490700  36.3415527  88.6716080
  42.0296555  13.6234112  87.6249542  42.5939560  12.8929825  87.8784714
  42.0929184  14.2394781  88.3548050  59.5829964  67.1767120  87.2650909
  58.8179512  66.6082687  87.3534546  59.7121391  67.5422592  88.1402664
  86.3804855  64.8183746  73.7959595  86.2464981  63.9026794  74.0404587
  86.6385269  64.7850189  72.8747940  70.8963470  34.2058716  52.2132111
  69.9920044  33.9038086  52.1286659  71.3973465  33.6252174  51.6404381
   1.6765531  17.4659576  79.4793243   2.2227550  17.7418957  80.2153625
   1.6250215  18.2384682  78.9164734  41.9093628  27.8133087  17.8771152
  42.0621414  26.9884567  18.3381023  41.5571556  27.5507317  17.0266819
  68.7324524  12.0447187  51.6251678  68.0452499  11.4850998  51.2634888
  68.3389359  12.4324141  52.4068756   6.6237574  42.9678726   4.3977571
   5.8088441  42.5211525   4.6270800   7.1116786  43.0131149   5.2200208
  85.9130020  30.7558804  49.0948486  85.9616241  31.1828327  49.9501724
  85.8563385  29.8218327  49.2962799  10.2308645  28.9577751   4.2935405
  10.7982178  29.7235031   4.3829989  10.7977924  28.2143383   4.4987907
  66.7647018  45.3647232   6.2655120  66.0277176  45.1440010   5.6959805
  66.3745422  45.4659691   7.1336999  75.7064590  36.1979790  79.9822311
  75.2962418  36.8878212  80.5038376  75.0432816  35.5096016  79.9315491
  33.9880180  63.9733620  43.6013947  33.5505409  63.5649071  44.3484001
  34.4400787  63.2515335  43.1645470  68.8556366  65.0164032  88.4292603
  69.1779709  64.3812180  89.0686874  69.6475830  65.3999939  88.0525513
  46.7846870  57.5205002  85.7566757  47.7363701  57.6043243  85.6974487
  46.6093178  57.4388504  86.6941223  86.2945175  33.0751190  31.1845474
  86.4552460  33.6526375  31.9307861  86.0457077  32.2388115  31.5781403
  28.8789444  57.5042686  61.1098633  28.0684471  57.3570862  61.5973663
  28.9145584  58.4526367  60.9851189  82.9094162  50.0914421  25.9813366
  82.7580490  49.5989799  25.1746140  83.0365448  50.9944611  25.6904240
   5.3034701  48.7149696   0.0596619   6.0319014  48.6692123  -0.5596326
   5.5333972  49.4348793   0.6471134  22.8763008  20.8315849  84.3940048
  23.4761906  20.5326900  83.7106171  22.7125435  21.7509117  84.1836472
   4.7020669  52.0742378  47.7885742   4.8155160  51.4810867  48.5312271
   4.9499044  51.5524902  47.0252991  12.0855646  65.4488602  59.5032082
  12.1925755  66.3049698  59.0886497  12.9756966  65.1795578  59.7298698
  71.3225327  14.9758320  55.1106796  72.1271744  14.7314367  54.6534538
  70.9213638  15.6405468  54.5508080  67.0310898   3.1428766  21.2282887
  67.0388412   3.6554749  22.0366287  67.7482910   3.5051303  20.7080708
  46.0844612   5.7485375  19.2842846  45.5362244   5.1045289  18.8360462
  45.7105293   5.8111210  20.1631966  51.8003654  11.2133570  22.5742283
  51.8261871  12.1010551  22.9313812  52.6186028  11.1281757  22.0848770
  55.8247566  33.4272423  70.7862778  54.9637146  33.0384293  70.9401169
  56.1083946  33.0578651  69.9500122  61.6209335  11.2205019  34.8897285
  61.1886597  11.2691841  34.0370865  60.9828949  10.7882032  35.4574051
  86.0675583  25.1806927   7.4772854  86.1946716  26.0334091   7.0614152
  86.7885284  24.6438847   7.1482506  73.1236801  54.9660378  82.9808731
  73.9915390  54.5831604  83.1091232  73.1741943  55.8219109  83.4064941
  30.5903225  55.5792427  82.9707260  30.0786743  55.5757828  83.7796936
  31.1623402  56.3423691  83.0523682   0.1325112  47.9631081  64.6482315
  -0.3113860  48.6995354  64.2276840   0.4989225  48.3316917  65.4520493
  58.5472488  39.2297401  38.1748314  59.1845512  38.7819901  38.7312469
  58.8043747  40.1510963  38.2097168  17.9828911  22.5292835  16.6158981
  18.3808670  21.6640625  16.7120190  17.0453148  22.3759956  16.7328758
  66.7241592  29.7347469   0.2997712  66.2768250  28.9418983   0.0039477
  66.0825272  30.1791916   0.8538541  75.7669601  49.0031013  81.2922516
  74.9388657  49.4303856  81.5111465  75.8234406  49.0645142  80.3386917
  75.0239258   1.5267873  31.8765965  75.8339996   1.0470037  31.7039146
  75.2784119   2.4486740  31.8366890  64.7362213   4.3249340  87.0783844
  64.3993683   3.6170983  87.6276855  65.6389999   4.0707283  86.8870697
  74.2561264  63.1212158  39.5479279  73.8352509  63.9767876  39.4637108
  73.5631485  62.5439110  39.8684387   6.1522441  45.6325188  68.0125580
   6.4543791  45.0336838  67.3296661   5.2942629  45.2926559  68.2667084
  52.1440811  40.3925056  55.8028946  52.8990479  40.7951508  55.3737793
  51.4955826  40.2958450  55.1055145  44.1944618  15.1847839  39.5130959
  43.7198792  15.9146214  39.1151772  44.7484627  15.5934925  40.1781311
  45.3467941  56.8692207  38.2784920  46.0144882  56.7389069  38.9518700
  45.0573387  55.9849091  38.0539055  79.6401672  21.2874889  66.2278214
  79.4676132  20.4588718  66.6748657  80.5470505  21.4962196  66.4519272
  53.3279305  18.2396870  46.8095665  53.3914795  17.3044090  47.0030861
  53.6034279  18.3144913  45.8959274  16.8278408   5.8997540  28.6527157
  17.2009449   5.3559737  29.3464928  17.2217865   6.7618675  28.7861233
  61.1761589  55.5720940  52.0331383  61.3466339  54.6632614  51.7857666
  60.3461609  55.5391998  52.5088005   3.0032527  21.6756668  10.6564598
   2.9488926  21.9650555   9.7456741   3.2848051  22.4532604  11.1384420
   9.5823421  41.2729416  30.4161682   8.7911234  41.4217682  30.9339085
   9.6589441  40.3202248  30.3642845  71.7247467  13.7069483  75.0688095
  71.1069794  13.8269062  74.3475647  72.2127686  14.5295801  75.1054916
  52.5652161  60.8686028  57.6979904  52.8932114  61.0527039  56.8177872
  53.0889130  61.4288597  58.2707787  55.8831596  40.3491745  62.4838181
  55.9647827  41.1693497  62.9705200  54.9992180  40.3750153  62.1174660
  65.8641663  45.1518478  50.2872505  65.2707748  45.5780144  50.9057121
  66.1895752  45.8647156  49.7375603   0.2883143  11.7212667  74.2952042
   0.8254775  11.4773979  73.5414047   0.8073480  11.4568462  75.0547562
  24.8169346   1.1390630  10.2050238  24.1531353   0.4623224  10.3377762
  24.5327320   1.6019999   9.4168930  36.9286613  51.8246880  21.8407936
  37.0617371  50.8784447  21.7846985  36.2624741  52.0124779  21.1796112
  41.0255051  15.5976629  14.6415443  40.5504532  16.1780529  14.0468121
  41.9220276  15.9330254  14.6381931  29.0648670   2.5131278  42.3965607
  28.2908401   2.2467132  42.8926849  29.8037434   2.2189360  42.9292412
   9.1607389   5.5360017   0.1666134   8.6707373   5.7882586  -0.6160080
   9.1015825   6.2984176   0.7423346  34.6086845  55.1706200  87.9502335
  35.1010704  54.3497925  87.9452133  33.7079048  54.9107628  87.7571030
  64.7500839  48.9438286  38.7019920  64.8291702  49.7007408  39.2825623
  64.3015900  48.2830505  39.2296791  84.8981323  12.8504877  70.1393814
  85.5540390  12.2282705  70.4538116  84.2964554  12.9570141  70.8761749
  76.1363754  16.5983276  12.9380636  76.6760330  17.3619995  12.7335968
  75.6564560  16.8486347  13.7275295  80.6825790   9.0030098  31.0440350
  80.2187500   9.8246737  31.2051620  81.2218246   9.1795645  30.2731419
  10.6726036  35.9369926  30.5713768  11.2783365  35.9242668  31.3124275
  11.2277164  35.7891731  29.8057194  42.3978348  45.3586884  30.4757805
  42.7768402  45.9916000  29.8658543  41.5865326  45.0757446  30.0539169
  60.7925224  19.7462406  53.2443428  61.5936127  20.2326584  53.0497131
  60.6786346  19.8408737  54.1900177  82.9811096   4.2151127  34.3762856
  83.3847275   4.2464724  33.5089073  83.7131882   4.0717688  34.9760742
  44.5539780  61.2911491  49.7549286  43.6615944  61.6291885  49.6799965
  45.0630493  61.8208122  49.1413002  56.9693832  21.4984379   4.2709789
  57.4199715  22.0694141   4.8932228  57.6595421  20.9368458   3.9180918
  48.5129700  43.5938148  14.7472868  49.0846672  43.8045921  14.0090675
  49.0190239  42.9741783  15.2728271  42.9181900  35.5827484  68.5177383
  43.7096062  35.8078537  68.0286331  42.2581978  36.2003708  68.2027969
  55.2806015  69.9705811  88.1277390  55.4833336  70.8967667  87.9961700
  55.4940529  69.5574722  87.2910767  49.6308899  52.7610741  17.9421692
  48.7592278  53.1066628  18.1345387  49.7442093  52.0392838  18.5605640
  55.9355125  45.0508690   5.0850024  55.2374496  44.6935234   5.6338587
  56.5210533  45.4928970   5.6998086  33.0645599  44.1099510  11.9445133
  33.7640228  43.7059097  12.4580660  33.4379158  44.2107925  11.0689173
   9.0842342   1.7315718  72.6246109   9.6027393   1.1994189  73.2280960
   9.7321053   2.1545753  72.0610809  71.6356201  19.8934193  88.5824814
  70.7631378  20.1192799  88.2600098  71.4737854  19.2976990  89.3140259
  85.7479935  35.8329811  55.5215378  86.0359344  34.9411354  55.7162971
  84.8690567  35.8881760  55.8965759  47.0664673  10.2704382  27.2162819
  46.7265778  10.2345085  28.1103840  48.0170441  10.3067513  27.3226852
  55.8571548  27.3568707  20.2007313  55.5041504  27.7713509  19.4134407
  55.8892097  26.4244614  19.9866810  15.4973383  23.2959347  24.8171806
  15.8638067  23.1990719  23.9382305  15.5857048  24.2289162  25.0120411
  66.2417908  57.8193283   4.8418751  65.6528931  57.2466087   5.3332195
  66.4079971  58.5546989   5.4316506  10.3557835  39.6979599  20.2952347
  10.9603739  39.7521400  19.5551224  10.6948490  38.9796753  20.8293991
  57.1637230  26.9761238  58.7931747  57.9838638  26.5554409  58.5350533
  56.5663300  26.2490120  58.9682693  28.5716915  18.0532703  68.5951233
  29.2951660  18.4516754  69.0789490  28.9181156  17.2128277  68.2953186
  60.7704239  61.2555618   6.5635047  61.4179230  61.8732185   6.2236814
  60.3781509  61.7068481   7.3109632  50.1392021  39.0045013  42.3471718
  50.3572693  38.9195518  43.2753220  50.4539185  38.1915512  41.9518166
  52.2919006  14.0169516  20.2616405  52.2961235  14.1846743  21.2040215
  52.8459549  13.2439375  20.1534576  45.1763992  16.6780186  58.3164597
  45.7590370  17.4019966  58.5458603  45.7649803  15.9738188  58.0446014
  61.3032494  39.1972122  35.6009407  61.7070694  40.0016899  35.9264793
  60.8942261  38.8053207  36.3725319  71.6522751  21.6532993  50.2098961
  72.3748474  21.6196728  49.5830078  70.8695221  21.7528286  49.6680374
  30.3059101  43.4869041  39.7484016  30.4334183  43.3059769  38.8171463
  31.0494862  43.0645447  40.1784515  77.5475845  10.8387403   6.1733541
  78.0458298  10.7814808   6.9886475  77.4626617  11.7780714   6.0100222
  86.2170639  30.2508430  60.5965576  86.1693192  30.3002853  59.6418266
  86.7510071  29.4755268  60.7698326  24.2880287  68.8179550  24.9399261
  23.8152714  69.2815475  24.2486839  24.4225254  69.4766006  25.6213398
  63.4495163  27.9105949  82.2171936  64.3880920  28.0238495  82.0672684
  63.3664970  27.0177708  82.5521698  19.2747421  16.4159069   9.1555109
  18.4392529  16.4234905   8.6884651  19.8430805  16.9872341   8.6389742
  79.4188004  40.3553581  81.4935150  78.5085297  40.1504440  81.2798691
  79.9188156  40.0363159  80.7422333  70.2187347  29.4231567  63.8932419
  70.7496185  30.0979252  63.4700546  69.3177567  29.6445732  63.6577721
  17.7163658  24.4598618  66.2816467  18.4934483  25.0163879  66.3331604
  17.6713104  24.0317020  67.1365662   9.5791712  67.7117004  61.5598106
   9.2682381  67.6559219  60.6562424   9.4279566  66.8376465  61.9195328
  31.9112701   8.0502634   6.8186979  31.8460331   7.3306050   6.1909494
  31.1009216   8.0000429   7.3256941  85.3654175  16.9911709  48.9031029
  84.6782913  16.3643131  49.1292458  84.9495010  17.8478107  49.0001450
  48.4581490  39.3710136  85.0161819  47.7130737  39.9048195  85.2921295
  49.1029053  39.4801254  85.7151947  21.6723804   2.7185547  13.1950159
  20.9484215   2.1851470  13.5230293  21.3002090   3.1985328  12.4551907
  32.2001419  61.3660583  86.1921616  31.8729630  60.8374672  86.9200211
  31.9865608  62.2668724  86.4353790  38.4388237  49.4184647   6.2465611
  39.2066307  49.9714355   6.3912091  38.3907013  48.8665047   7.0271106
  77.7784348  31.0404720  25.9990330  78.0005722  31.6687756  26.6861439
  77.6456299  31.5770988  25.2176075  36.6519089  48.9155006  22.3610096
  36.7934074  48.0223541  22.0471649  37.4599991  49.1377182  22.8234444
  12.0356541  45.6838455  31.7034817  11.8138533  46.6120491  31.6295185
  12.9157495  45.6176300  31.3329678  73.2348099  22.8712063  27.9544945
  73.8000031  23.0659084  27.2069168  73.1024017  23.7175903  28.3815002
  81.0865936   6.6317849  70.3254700  81.7332764   5.9297681  70.2532883
  80.3427887   6.3266025  69.8059998  22.5171471  40.1365700  24.7173538
  21.5914268  40.0989418  24.9578972  22.6934834  39.2884140  24.3102112
   9.3809013  13.5242062  68.3003387   8.8477345  13.5596495  67.5061646
  10.1337900  14.0833073  68.1085129  28.1713066  51.1419029  24.5509529
  27.2161999  51.0904465  24.5877666  28.3506641  52.0103951  24.1906986
  50.2161674  30.6240654   5.9622321  49.7941628  30.9750824   5.1780572
  50.3090248  31.3794518   6.5427499  11.3459082  64.6406479  39.7186584
  12.1240168  64.0954056  39.8348045  11.1404047  64.5692825  38.7865067
  14.1245127  48.2716026   2.9049029  13.4728441  47.6235771   3.1725287
  13.9761333  49.0156326   3.4885404  34.5593452  26.2239075  79.7326736
  35.0203934  26.4826565  80.5306168  33.6750031  26.5731621  79.8430710
  17.8857079  31.6447544  34.1675034  17.7435913  31.1480675  34.9733200
  17.2919407  32.3921280  34.2389412  67.0590134  29.5142517  48.6643677
  66.6710587  29.4648800  47.7907066  66.3336334  29.3250847  49.2595787
  71.2213669  70.6605606  58.6972198  71.2666779  70.3528824  59.6024895
  70.5508041  71.3435135  58.7096481  59.9998436  17.5678062  17.4879398
  60.9145050  17.6381836  17.7612000  59.8879509  16.6445904  17.2612553
   9.6091528  33.0980072  33.4542542   9.5249548  34.0513535  33.4376602
   9.5167360  32.8334351  32.5390015  45.1553917  61.8274689  46.7698936
  45.7137222  61.6327171  46.0171852  44.4547768  61.1769409  46.7230988
  44.0555954  71.5081482  64.0894623  43.8304367  70.7130966  64.5726089
  43.5193977  72.1921234  64.4905853  42.4437408  57.6209030  24.7464371
  42.8485794  58.3349266  25.2388916  42.0304794  58.0506172  23.9975758
   2.7377224  58.5733223  23.1021595   2.3872213  58.8982468  23.9314995
   3.6798906  58.7313423  23.1619968   0.7865722  54.8957329  16.0421677
   1.5774972  55.3641663  16.3090725   0.6663970  54.2257614  16.7151661
  77.0461426  66.2454681  82.7437973  77.0707397  66.4443665  83.6797791
  76.8111649  65.3184967  82.7020187  54.4716835  17.2088833  11.2606153
  54.0443344  16.6303997  11.8922472  54.3758125  18.0846558  11.6348658
  62.6195831  12.4556465  48.9479980  61.7314034  12.8125038  48.9526405
  62.9606400  12.6733332  48.0805168   3.8158145  11.4601727  55.4637947
   3.6513882  12.0306444  54.7129555   3.7929292  12.0467787  56.2198372
  51.8831749  36.7242737  41.1702805  52.3620186  36.1859322  40.5400963
  52.0554428  36.3122749  42.0169296  53.0753975  25.2501869  42.7183838
  53.9600372  25.4816513  42.4354134  52.9674110  24.3390350  42.4456711
  10.7237511  61.9905014   1.1696497  11.3900013  61.7089920   1.7966225
  11.0505991  61.6898918   0.3216898  62.5808716  33.1365280  24.7224407
  63.5098763  33.3648605  24.6900997  62.5509949  32.2167358  24.4591541
  54.5267067  30.6482372  25.4753876  54.8778954  30.0637112  26.1471214
  53.8574295  30.1277618  25.0310860  49.5957298  11.2304592  55.1439438
  50.1346931  11.0214577  54.3810120  48.9402885  10.5334482  55.1723595
  26.8110733  62.9704781  45.1895866  25.9941311  62.5756912  44.8846550
  26.8525677  62.7471199  46.1194382  78.4559860  25.4180832   9.2580338
  79.2811966  25.8681011   9.4389563  78.5447006  24.5706215   9.6941185
   7.9493809  46.5808678  59.3005714   8.0171137  47.0952492  60.1049728
   8.6159706  46.9516830  58.7223129  56.7770157  19.9761238  40.0831413
  56.0800438  20.6119175  40.2450867  56.3475380  19.1244106  40.1629066
   1.2168803  45.0711823  34.8671913   1.2540250  44.2799187  35.4045486
   0.6705521  45.6760864  35.3690376  73.8761826  61.9998627  25.1925430
  74.3567963  62.5350037  25.8240986  74.2771683  61.1332207  25.2587242
  14.2355976  17.0653706  74.3204422  15.0312967  17.0022144  74.8487396
  13.8000469  16.2216625  74.4416199  71.8820343  31.0895882  22.9763889
  71.6482925  30.4839211  22.2729931  72.8282166  30.9857349  23.0773315
  81.9695511  23.5069675  86.9450531  81.1162567  23.9110146  86.7873764
  82.1404953  23.6630306  87.8738480  16.6717873  63.7903442  39.7549973
  16.2408028  63.0145988  40.1137505  16.6139889  63.6791306  38.8060379
  39.0921173   8.4213533  68.3299026  39.6936722   8.6700535  67.6281128
  38.4384308   7.8693790  67.9006577  10.7679701  61.5118217  70.4235916
   9.9694920  61.0233994  70.6238708  10.9967499  61.9445000  71.2462006
  75.2927017  67.9568710  56.0468025  76.0944214  68.4649429  55.9229622
  74.7483139  68.5029068  56.6139946  50.6334190  49.4909706  88.0056839
  50.4787483  49.5796051  88.9461365  49.8927612  48.9740028  87.6888123
   0.8304731  47.1144485  19.5161972   0.9161245  47.3687859  20.4350052
   1.7318656  47.0097198  19.2116394  50.9415855  18.3503380  79.5206146
  50.1821747  17.9200230  79.1277313  50.7519150  18.3612843  80.4587708
  26.8382301  30.4573002  67.8378372  26.5800343  30.6253738  66.9315720
  27.5636387  29.8365917  67.7690277  82.3313522  33.8590279  34.6145477
  81.5345306  33.8832970  34.0847206  82.0402374  33.5452347  35.4707108
  65.0136490  12.8928633  29.9453316  65.0204315  13.2982159  30.8124390
  65.3166962  13.5833731  29.3557644  66.7462006  14.0686407  73.3667374
  66.0727463  13.8813515  72.7128220  66.4814453  13.5626392  74.1349182
  25.2511139  53.4430885  31.8425636  24.6046371  52.9382324  31.3491859
  25.9349976  53.6454010  31.2041225   2.1460941  47.8370399  22.1170063
   3.0435741  47.8824387  21.7873077   2.1328731  48.4409447  22.8595390
  60.9266167   6.7328033  88.3798065  60.8041840   7.4637094  87.7739868
  61.1935196   6.0018411  87.8224106  40.0497398  49.9991112  50.1402702
  40.4508858  49.5704155  49.3842735  39.1654587  49.6349220  50.1808319
  85.1037674   9.3978949   9.9262505  85.5582886   9.9764585   9.3139524
  85.1399994   8.5354357   9.5126276  23.2165909  43.0735626   5.3234496
  23.0155525  42.5363121   4.5571752  22.5212727  43.7310867   5.3440542
  64.8125000  60.7791901  24.3430691  64.7075348  60.9421730  23.4057045
  65.1955490  61.5869331  24.6852016  16.8719120  67.9274902  55.9932976
  17.5043335  68.6090240  56.2208710  16.2781296  67.8916931  56.7432137
  18.6313667  68.5600815  10.8634520  19.1183395  68.3486557  10.0669680
  17.8759766  67.9724655  10.8454304  57.2478905  45.0102425  46.4479408
  57.8379669  44.7042923  47.1367378  57.5275841  44.5360832  45.6648827
  79.0362473  42.5746880  31.7250671  78.3555145  41.9414177  31.9526882
  78.5592651  43.3137932  31.3476562  34.1400414  37.1458092  12.6655378
  34.3419151  37.0971413  11.7311344  33.7025414  36.3168411  12.8595476
  44.1903229  39.6460571  40.0498848  44.4570007  40.4225578  40.5419846
  44.0049896  38.9891624  40.7209854  66.6780167  32.6739616  22.2115784
  67.4760742  32.9668503  21.7716312  66.7578278  31.7206059  22.2427731
  62.3565674  10.0501394  25.1122494  61.6963425  10.6913013  25.3753967
  62.2552414   9.3318930  25.7368183  66.6582718  12.7799568  69.5430832
  65.7945633  12.9748812  69.9067383  66.4758835  12.2802296  68.7473221
  63.5004959  22.3591595  11.1586580  63.7149429  23.2826443  11.2906370
  62.6261215  22.3695889  10.7693052  36.5506363  31.8813000  15.6876955
  37.3768959  32.1478233  16.0907993  36.2841492  32.6376724  15.1650887
   6.8006706  41.6964340  31.4420223   6.0248713  41.4757080  30.9266129
   7.1628356  42.4701996  31.0103359  51.4728813  41.4558601  60.5274925
  52.3937225  41.7150383  60.5607491  51.2486725  41.4872169  59.5974464
  14.8207111  54.7628670  38.0257187  14.9953108  53.8269844  37.9263840
  15.6836767  55.1740685  37.9763565  67.6215286  25.3585262  64.2015610
  68.4952774  25.7025757  64.0160065  67.6111526  25.2300587  65.1500397
   8.0443201  55.7102280   1.5440037   7.6129966  56.4630547   1.1397213
   7.6071882  55.6093254   2.3895602  65.4110107  32.3474350  74.2519302
  65.8723450  32.9728813  74.8106918  65.8919601  32.3653107  73.4245300
  55.3792915  39.4549866   8.9362011  54.6064377  40.0196953   8.9303265
  55.5212936  39.2529640   9.8610010  71.6762161   6.2522254  57.7114334
  71.3021011   5.8848524  58.5122490  71.4458084   5.6223073  57.0285378
  52.8526115  59.4826279  63.7240257  52.2777443  60.2266884  63.9032784
  53.7321472  59.8077240  63.9162827   7.5141978  39.6817284  39.6010742
   7.6343884  40.3686905  40.2567177   7.4381652  40.1530952  38.7714577
  78.0815582  16.0987968  49.5360794  77.7903214  15.3892679  50.1087761
  79.0367050  16.0366764  49.5445251  10.5221310  26.4726543  68.2324677
   9.6337147  26.2944431  68.5409927  10.9342880  25.6104412  68.1781845
  77.6587296   3.5782070  39.4382057  76.7613983   3.7394023  39.1465645
  77.6469955   2.6777694  39.7627144  74.2513123  38.1251297   8.0997362
  73.6251907  37.6855583   8.6750460  75.0053329  37.5361443   8.0718231
  14.7568560  46.2969475  27.6651421  15.3607235  45.9701958  26.9982033
  15.1959829  47.0651932  28.0301075  37.2305489  48.6790657  47.7812386
  37.2173119  47.7220345  47.7691002  37.1895065  48.9074097  48.7098961
  15.7403278  60.0737724  13.3732748  16.1499977  60.1586456  14.2342043
  15.9057102  60.9139252  12.9454603  82.4105911  58.8975525  37.4531021
  82.2604752  59.6087074  36.8302383  82.8165359  58.2046471  36.9322166
  60.3744774   5.3508496  31.4693489  60.5134087   4.4156156  31.6185703
  59.5148621   5.4015946  31.0513477  59.8373680  20.3568535  69.9092712
  59.2650528  19.9988785  69.2306366  60.7113991  20.3389759  69.5194244
  16.0851383  62.4954147  20.5050755  15.8739996  63.2228622  21.0902901
  15.3850346  62.5021515  19.8523560  58.8465309  44.7246704  79.0059586
  58.0716972  45.2723999  79.1318970  59.4542274  45.2784653  78.5158081
  59.4565926   7.4135685  41.0370712  60.0626526   6.8351245  41.5000229
  59.7181664   8.2955637  41.3014488  43.3757286  42.4632835  11.4056730
  42.6505280  42.0440979  10.9424210  43.1394348  42.3965607  12.3308468
  27.4824009  16.0702267  11.2930164  27.9999809  16.7935009  11.6468782
  26.9207993  15.7997398  12.0194254  24.6932507  54.4564323  68.9933929
  24.3386192  53.8841667  69.6738205  25.5379715  54.7447205  69.3391800
   2.9218090  69.3959351  62.2113991   2.4049206  69.3591232  63.0162010
   2.6058457  70.1782990  61.7593918  69.3463516   7.9760895  17.7931213
  68.4655151   7.6939731  17.5466118  69.8002243   8.1000214  16.9595280
  73.0685654  16.1020012   9.3199720  73.4622498  16.9694595   9.2263851
  73.7157211  15.5971365   9.8124475  82.9006653  51.0178146  56.9136505
  83.4067154  50.3318672  56.4781876  82.4676743  50.5708771  57.6409721
  20.4901161  70.7024460  11.9975195  19.9070129  71.2053452  12.5661316
  20.0297298  69.8757019  11.8534021  25.7763367   5.7221828  24.1958122
  24.9848042   5.6284890  23.6657829  25.8978691   4.8625083  24.5988274
  59.7960968  48.4519997  61.1361465  59.0284538  48.8321266  61.5633049
  59.4565277  47.6893272  60.6679001  61.2193108  65.5592499   5.2745576
  61.8793793  65.8661194   4.6529675  61.5443954  64.7082748   5.5684834
  45.8641624  57.9756889  88.6144791  45.8540001  58.9280815  88.7097702
  44.9576759  57.7457085  88.4104538  66.3601685  47.3049316  56.9053879
  66.8508148  47.8146095  57.5501556  65.6800766  47.9026604  56.5948486
  76.1262741   6.6857805  64.9549255  76.3023224   5.8826737  65.4450836
  75.5983963   7.2185349  65.5496979  81.9004898  52.9174881  88.0578156
  82.1035843  53.5878563  88.7101898  80.9931946  52.6729317  88.2401505
  50.8768997  52.0469818  37.3541336  50.3906708  51.6759720  36.6178131
  50.5212975  51.6030388  38.1240005  29.4352913  51.6946831  26.8767681
  29.9177151  50.9151001  27.1519928  29.0116940  51.4375153  26.0578289
  40.8490257  56.4584923   3.5625925  40.0054817  56.8257294   3.8267958
  40.6410828  55.8900261   2.8210824  42.1671143  51.0489006  81.1314163
  42.1186028  50.3227692  81.7531967  42.8950424  50.8208618  80.5531845
  42.8122826  57.2771378  84.7677917  42.9084206  56.3502121  84.9864197
  41.9710007  57.3302498  84.3143005  72.7432861  45.4894485  59.8771095
  73.5217133  45.1943626  60.3495522  73.0667496  45.7294044  59.0087624
  19.5098610  53.3895454  31.1016941  18.7647152  53.9825478  31.0050678
  20.2275772  53.8307571  30.6473312  50.1873856  11.7822294   8.9998989
  49.7190895  11.0303211   8.6371775  49.8198204  12.5374928   8.5408707
  28.1022434  48.5076256  80.1252670  27.7819538  47.7195816  80.5641785
  27.7468319  48.4490700  79.2384338  66.5234146  37.7067909  46.9787483
  66.7915649  38.4361229  47.5376816  65.6970215  37.4064102  47.3569946
   1.9386691  19.6921654  78.1450806   1.0618600  20.0293293  77.9613495
   2.5297220  20.3424950  77.7656555  41.5674210  49.7740288  59.3840599
  41.6329346  49.1388474  58.6709785  42.2648697  49.5257378  59.9908142
  85.9930573  44.0089340  55.1477280  85.0581131  44.1529160  55.2939415
  86.2317734  44.6483078  54.4765739   0.2770860   0.3368126   4.9563007
   0.9752861  -0.3043065   4.8232036   0.3161996   0.5431280   5.8901825
  73.2977753  65.6690369  46.2937088  72.9880142  65.1915817  45.5240936
  72.7049332  65.4017029  46.9960632   1.9682459  20.6991291  75.3635635
   2.2540371  20.2567730  74.5642700   1.0202554  20.5682335  75.3838806
  21.5491562  58.8645439  20.9913559  21.0725403  59.5821533  21.4086189
  22.2354870  59.2965622  20.4828873  78.6584396  29.7739582  15.2212715
  78.7773209  29.5472393  16.1436043  79.5303574  29.6808701  14.8374424
  25.2177391  37.8768196   6.7457719  24.9320908  37.1111374   6.2474041
  25.7287655  38.3919334   6.1214800  44.9645462  51.3170090   3.2419496
  44.8651123  50.8564415   4.0751495  44.1000595  51.6902542   3.0699472
  42.8806381  26.1733017  43.3370857  42.3777351  26.2074242  42.5233536
  43.5512161  25.5093822  43.1765556  74.3212128  66.4998322  59.5042534
  74.6257553  65.6559525  59.1705627  74.2276230  67.0462875  58.7239532
  38.7580681  18.0269375  75.8509140  38.7150421  18.5458870  76.6540833
  38.7149811  17.1186886  76.1500092  19.2069855  55.6626053   4.9805026
  19.2675800  55.3834457   4.0669217  18.3053722  55.9688873   5.0780592
  32.2351036  54.0724335  17.7396660  31.7694569  53.6270332  17.0318375
  32.0737762  55.0030289  17.5841160  24.3132744  15.0921459  77.0385056
  24.7627716  14.5236721  76.4131851  24.5593910  15.9790630  76.7757645
  54.4745941   6.9694772  24.6597633  53.7347145   7.4718442  24.3185291
  54.1684799   6.0625453  24.6601601  58.4663353  59.5938110  39.8788033
  58.1774483  58.7032013  40.0777779  59.4221535  59.5441628  39.8920898
  13.3671856  20.8210907  69.0096512  13.0111828  20.1920929  69.6372299
  14.2279062  21.0489902  69.3610077  71.6074677  11.4861803  77.0605698
  71.5594864  12.2159004  76.4429626  71.7646561  11.9004536  77.9090424
  52.5524025  29.7699947   0.2665934  52.9860764  30.0318165  -0.5455689
  52.4865227  30.5787067   0.7744093   2.9840686  33.7339516  24.2042980
   2.9172750  32.7792053  24.2195911   2.1742828  34.0373039  24.6147308
  80.8035278  23.5001354  15.0536890  80.5207367  24.3457413  15.4018450
  81.7362823  23.6156006  14.8723774  62.7549171  46.7144279  13.6770134
  62.8710327  45.7724571  13.5527725  62.9005699  46.8523178  14.6129637
  50.0237427  10.7623386  20.6587925  50.1341667  11.4738684  20.0281086
  50.5089417  11.0502300  21.4320526  84.8697510  67.4970627  69.0299301
  85.3180466  67.8603745  69.7936478  84.9018478  68.1970978  68.3778915
  18.3339520  26.4968338  77.2637863  17.5630989  26.8079243  76.7891922
  18.9043903  27.2632313  77.3226852  59.2210541  42.3696365  46.4720650
  60.0149384  41.8480759  46.3539429  59.3322945  42.7848282  47.3273277
  51.8239937  30.8868599  57.8013878  51.8467751  31.4084110  56.9990807
  51.0495186  30.3326817  57.7048950  77.1596603  53.0981445  77.0533600
  77.2901230  52.1591454  76.9211044  77.5102081  53.2678413  77.9277496
  66.6734085  27.6318417  37.0167465  65.7623978  27.9246941  37.0397758
  66.7507248  27.0312023  37.7580223  54.1762390  13.2337208  42.6717796
  53.4672127  13.4958134  43.2589951  53.7382355  12.7634363  41.9624023
  48.3978767  47.8467827  19.6271591  49.1190643  47.8593407  18.9979019
  47.9735756  47.0000725  19.4883118  36.8276939  69.2581406  62.7473869
  36.3585548  70.0388870  62.4531517  37.3779488  69.5664749  63.4673767
  12.2787046  38.8343735  57.2833061  11.8060598  39.2014618  56.5362549
  12.7680149  39.5737953  57.6439514  18.7949409  32.9857712   2.3208461
  18.1310902  33.6380157   2.0969946  19.1581097  32.7145615   1.4777653
  29.8711376  56.3792000  80.5653610  30.1066322  56.1506424  81.4645462
  29.8746586  55.5442772  80.0972519  15.7343197  66.7452774  19.5296803
  16.0341396  67.5936584  19.8561630  15.4234400  66.9262619  18.6426468
  29.1412144  43.4030418  28.4303093  28.9286041  42.4704361  28.3946381
  29.1263123  43.6872253  27.5163879  50.7911530  44.6193695  83.0925369
  49.9842491  44.4344521  82.6119690  50.9448166  43.8319168  83.6145859
  17.5005608  52.6368332  40.6080933  16.7985229  52.2885017  40.0585136
  17.0915070  52.7704048  41.4631195  54.2203293  44.0401726  41.2125206
  53.4296646  44.5583458  41.0622673  54.6743431  44.4960098  41.9212608
  42.8571892  31.6595879  23.2880573  42.2228622  32.3536186  23.1086597
  42.6052628  31.3210869  24.1472340   2.8804045  52.5033073  69.7767181
   2.3775909  51.8637390  70.2810669   3.7854178  52.1973305  69.8364029
  86.5215149  39.8481483  23.1646862  86.8712387  39.3586502  23.9092102
  85.9183960  40.4802895  23.5556736  42.7997742  38.7502975  25.3550358
  42.9734344  38.4539108  26.2484722  41.8450165  38.7821579  25.2945805
  53.5010719  54.4256897  53.7051888  53.9014626  54.9646416  53.0229530
  52.6982384  54.0909538  53.3056297  73.6157303   6.4920549  60.3619499
  74.1382523   6.8896003  61.0584831  72.8890305   7.1010170  60.2303925
  48.2783585  33.5706024   5.9346113  47.5403900  32.9616241   5.9067392
  48.5269318  33.6878128   5.0177112   2.3953803  40.4729691  45.6323738
   2.5642891  39.5685806  45.3682022   1.5856088  40.7076263  45.1791229
  84.4492416  14.6162910  80.2680664  85.3208618  14.5698891  80.6609650
  84.0560989  15.4012947  80.6494370   8.1444511  64.0830765  60.5705719
   8.2162457  64.2661057  59.6337814   7.5816164  63.3104935  60.6212234
  39.4027367  -0.1013715  57.5289383  40.3174248  -0.3809391  57.5666008
  39.4056511   0.7788735  57.9049606  85.2973022  22.4468346   1.8458862
  85.5290756  23.1295967   2.4754496  85.4283752  21.6271191   2.3224573
  57.6589279  30.2420807  46.7181511  57.8113136  29.8429146  47.5746994
  57.8149452  31.1760693  46.8579941  45.0361252  13.9587746  87.4503860
  45.4783478  13.3426008  86.8664322  44.6336632  14.5985794  86.8630981
  84.6170044  26.5241909  13.6478357  84.5422287  26.8000298  14.5613747
  83.7343292  26.6294689  13.2928362   4.6519933  45.9166794   6.5317669
   5.0759835  45.5754013   7.3191633   4.0087867  46.5452995   6.8594141
  59.6255188  25.7140274  59.1917191  60.0433540  26.1062126  58.4250145
  60.0405350  26.1463966  59.9380798  20.3039017  32.7539635  59.8692093
  20.6535511  32.6755028  58.9816132  19.5380993  32.1797485  59.8765907
  80.9822311  54.1131783  29.2110500  80.5558319  54.3538475  28.3885593
  80.2666855  54.0571480  29.8443565   0.5561788  60.8970184  38.6941032
   0.4162624  61.7302322  39.1440010  -0.2977684  60.4652672  38.7185516
   2.5441530  55.1568413  58.7267990   3.1743772  55.3429184  59.4228058
   2.8377306  54.3256302  58.3537979  60.7561264  27.5459995  87.6479263
  61.5621872  27.5661259  87.1320801  60.3118439  26.7460785  87.3669052
  59.9129486  68.5169067  29.7479286  60.3483162  69.1142426  30.3561058
  60.6190033  68.1801529  29.1962852  70.6343613  24.0785141  31.7339859
  71.4051590  24.6422272  31.7998047  70.0908203  24.3277531  32.4814339
  50.5513992  20.3169479  84.8886871  50.5058365  19.9621162  84.0008545
  51.2357788  19.8029308  85.3172226  70.5241470   6.2276287  63.0307312
  71.0280685   5.6140447  62.4961205  70.9440460   6.1971278  63.8903732
   5.0939274  35.1500244  10.5407982   5.2617583  35.0435753   9.6044579
   4.3174095  34.6156502  10.7072153  41.8641434  47.1185951  43.4492645
  41.5295258  47.6681099  42.7405357  42.6796799  46.7542458  43.1052017
   5.0178075  69.9368744  18.1052628   4.2829995  69.3614044  17.8928394
   5.5800481  69.9030304  17.3313313  71.3930283  53.2670517  38.0072861
  71.3882446  54.1432037  38.3927269  70.5229721  52.9166489  38.1981888
  11.0830154  57.9520416  30.6903286  11.7999048  58.4509430  30.2986717
  11.3385706  57.8445206  31.6064968  86.6741791  45.8287277  62.8904915
  86.8769226  46.2909584  63.7038002  86.0088806  46.3707314  62.4664116
   5.9779344  47.8426552  62.5570335   6.8369327  48.1699371  62.8239403
   5.4773970  48.6300926  62.3434181  46.9621773  66.2226715   1.1670012
  46.4586563  66.9704895   1.4886646  47.3106804  65.8106842   1.9576002
   9.5418053  30.0803890  74.0201797   9.5663233  30.3608608  74.9350433
   8.6180439  29.8951378  73.8511353  26.6881828  11.7759295  77.1585083
  27.6387653  11.6810684  77.0982666  26.5361061  12.1066189  78.0438004
  44.8361855  58.0443993   5.6311564  44.4902992  57.8858643   6.5094852
  45.6820869  57.5965080   5.6224113  48.6550713   4.7728295  46.1451225
  48.4626694   5.6653194  45.8575859  48.8403320   4.2953625  45.3364601
  20.3814487  39.5299454  49.4592667  20.5790825  40.3108292  49.9763680
  19.4253941  39.5042267  49.4201469   7.5045838  54.5753937  35.6918144
   8.4350624  54.6678696  35.8964844   7.4351196  53.7161827  35.2756882
  71.7798615  50.8702965  70.0501556  72.4268188  50.5336342  70.6701050
  72.1971741  50.7763748  69.1938553  79.8385162  37.1162910  50.0776825
  79.8117981  36.8630600  51.0003929  80.7538528  36.9988632  49.8234940
   6.9167027  24.5368347  72.8675690   6.3706961  23.8502464  73.2505875
   6.5946918  24.6264553  71.9706192  79.3065948  58.0140190  17.1649532
  80.0129776  57.8484917  17.7893429  79.7089157  58.5560799  16.4863243
  38.3278694  11.5050526  70.7101212  38.4615021  10.8790827  71.4218369
  39.1781425  11.9315443  70.6034622   1.8823323  65.7870789  18.4714031
   2.3492799  65.1166840  18.9701672   0.9570074  65.6120377  18.6427689
  63.4913559  48.9253082  58.1591377  62.8954849  49.2490273  58.8346977
  64.1965942  49.5719452  58.1319618  43.3851395  40.6002350  45.3320045
  42.9820328  40.0860176  44.6324959  43.2048264  41.5099182  45.0949402
  69.4540100  54.5446091  79.8855133  68.8039856  55.0376472  79.3849030
  69.7656860  53.8737335  79.2780380  16.6280975  68.4527588  78.1752853
  17.4982414  68.0864792  78.0174255  16.7672863  69.3995056  78.1980972
  64.6545258  13.8275623  60.4958000  65.0107803  12.9538240  60.3348808
  65.0398178  14.0932732  61.3307724   4.2113662  20.9013405  77.1246948
   3.7619140  20.9261684  76.2799454   4.6933799  20.0744152  77.1153259
  54.8905067  33.0630379  54.2801781  55.4092827  32.8068314  55.0427132
  54.5012627  32.2455368  53.9696655   3.2226148  13.4750261  25.6005535
   2.5414205  14.0962353  25.3430519   3.6557958  13.2407503  24.7797604
  21.6569729  54.2551613  45.4307709  21.6368885  55.2025185  45.5662117
  20.9743309  54.0917282  44.7799873  54.5166702  27.1625385  17.6411438
  53.6812057  27.6229744  17.5622311  54.9524345  27.3114986  16.8020058
  24.3251705  13.5714369  87.8648605  23.5371361  13.4108982  88.3839493
  25.0389996  13.2233944  88.3992233  81.9541245   1.2081705  21.7215424
  81.2663803   1.4839654  21.1155930  81.8462296   1.7791039  22.4822159
  84.3547211  18.1827393  33.2352524  84.4767761  19.0199127  33.6829987
  84.6386337  18.3483143  32.3362465  21.6132946  33.2987099  79.4695816
  21.6689148  34.1989326  79.7901154  21.4885101  32.7709122  80.2583084
  77.3426666   3.8478050  88.3991318  77.4504547   2.9084482  88.2500610
  78.0355759   4.2540054  87.8784561   5.0613070   0.5762602   9.8659515
   5.8028059   0.5776686   9.2606335   4.9642525  -0.3404686  10.1236734
  65.9519196  68.1828232  77.0130310  65.7720795  68.9910126  77.4933548
  65.9001846  67.4938889  77.6755447  64.0987320  27.0544510  23.9664421
  64.5787506  26.9687634  24.7901344  63.2259521  26.7130623  24.1612225
  15.0237513  13.8038883   5.4403563  14.5789242  13.6794586   4.6019778
  15.5293808  14.6085730   5.3261070  44.6662102  10.6760178  65.9124451
  44.3837891  10.0897503  66.6144180  44.2639008  11.5176716  66.1269226
  33.6378136  54.5569725  46.8719711  33.1247177  54.7253342  46.0816460
  33.8150482  53.6166649  46.8466835  29.9035912  16.3489132   4.8878269
  30.4551105  16.4552155   4.1127410  29.1165619  16.8578472   4.6933961
  53.9719009  70.9390869  30.1567917  54.3376465  70.2857285  29.5604801
  53.7922516  71.6970825  29.6005592   8.2457762  65.3395386  68.9780350
   8.3979683  66.2806931  69.0634842   7.3131962  65.2298889  69.1637878
  12.8044386  23.7333546   6.0611148  13.7364197  23.9496365   6.0317092
  12.4070177  24.4526081   6.5519938  66.2947845  62.0741730  49.1224403
  65.9727325  62.7917747  48.5769463  65.9699936  62.2759743  49.9999466
  36.4750290  32.0384216  59.8919640  37.1317902  31.6548805  59.3107605
  36.8612175  31.9738617  60.7654190  85.6676636  38.8850861  18.5980797
  85.8878784  39.6716499  19.0971336  84.8881073  39.1286087  18.0988598
  62.5800095  12.0295162  64.3056793  62.2291565  12.1021471  63.4180603
  63.5197792  11.8965721  64.1816177  21.8656158  -0.0828903  40.7371178
  21.8813725   0.8566270  40.9195747  22.7545586  -0.3796490  40.9319191
  12.9922676  34.9757996  66.3183365  12.9134026  35.1732712  67.2516174
  12.9565706  35.8304825  65.8888245  38.3572655  23.1563663  67.8557358
  38.5304298  22.8381996  68.7417450  38.2746849  24.1049461  67.9537506
  45.7152252  38.9316864  19.6623154  45.7090836  39.6502113  20.2947083
  46.1871719  39.2817078  18.9066792  65.6914825  10.9039221  55.7328644
  66.0127411  10.0787878  56.0964279  65.0714264  11.2281513  56.3860435
   3.5454457  26.9585342  68.2490845   3.7714539  27.1320324  69.1628952
   2.8976839  26.2551155  68.2919617  70.5630798  57.6544342  13.5142984
  71.1765976  57.3542557  14.1849146  71.1177979  58.0504341  12.8422070
  14.1926098  34.6330261  72.0317230  13.9947891  33.9337540  71.4087372
  13.6800528  35.3804016  71.7235870  22.5094604  27.1638813  72.1516953
  23.0053883  26.9804554  71.3537903  22.1015854  28.0145912  71.9899445
   9.7469149   3.9895651  84.2291946  10.6230307   3.9670966  83.8442917
   9.8876181   3.7975094  85.1563110  68.4643555  18.1145687  73.4401855
  69.0470505  17.5500393  73.9481354  67.8796539  18.5027981  74.0910568
  85.6636505  37.1547279   6.2007756  85.1942062  36.3622932   6.4613552
  85.4892120  37.7789917   6.9051180  49.3504257  42.3961792  65.0173645
  49.5445061  43.2018433  64.5383377  49.4194870  42.6432838  65.9395370
  34.8667679  61.1439018  70.4348831  35.6906662  61.1949692  69.9503098
  34.9862251  60.4065132  71.0334015  43.3254547  46.2106476  14.9181175
  43.1357422  45.9733086  15.8258133  42.9826584  45.4803581  14.4029474
  58.6193504  68.0590515  77.2320023  59.0201187  68.1716385  76.3700638
  57.6831245  67.9743805  77.0516129  85.4704514  52.0569878  48.4721260
  85.0903931  52.5548286  49.1959610  84.8027191  51.4076424  48.2514076
  54.7797546   8.8529167   6.8556218  53.9966660   9.2715435   6.4981890
  54.9558716   9.3280716   7.6676822  53.7140846  41.6640015  81.1903992
  53.0624008  41.5025368  80.5081406  53.4825554  42.5226822  81.5443649
  55.2616386  38.8594780  72.2639771  55.1383362  38.6286430  73.1847076
  55.5334549  38.0421486  71.8464661  82.1018982  65.1073608  41.8988724
  81.3394470  64.8660202  41.3728943  82.8352509  64.6594315  41.4772224
  84.0123596  55.2266502  56.0954132  84.0991974  54.5266647  55.4483299
  84.7935562  55.7657127  55.9714088  47.6177063  37.3010483  21.0537834
  48.1704903  38.0090752  21.3844757  46.9496422  37.7434158  20.5301094
  48.1183586  66.1781006  64.8594131  47.9585762  65.9198151  63.9516716
  47.2488365  66.3706665  65.2102356  59.9121170   8.4380932  61.4358101
  60.6038055   7.9791870  61.9124718  59.5521049   9.0559568  62.0721054
  85.8731155  53.9640236  51.8903351  86.6988754  53.5914993  52.1994743
  86.1090317  54.4432564  51.0960350  83.1519928  35.4011574   8.0784388
  82.3871384  34.8258171   8.0932693  82.8936844  36.1566353   8.6064177
   9.7371950  33.2825432  66.7276993   9.9621143  34.1730766  66.4582672
   8.7884684  33.2297440  66.6121063  52.3906937  33.1140594  71.5480042
  52.4540825  32.5420265  70.7831573  51.7741051  32.6691017  72.1294403
  72.1227188  52.5415421  75.4841614  71.5384064  53.1547470  75.0383072
  72.3982468  53.0051956  76.2749557  18.8854885  59.7566986  87.4509811
  18.1094723  60.1682243  87.8313522  19.5688648  60.4232445  87.5213165
  78.5389328   1.0140129  55.2245026  78.1348801   1.1676391  54.3704720
  78.1501236   1.6761577  55.7960091  73.8346786  42.8972549  28.2355747
  74.2084579  43.7547340  28.0324688  73.9452057  42.8058777  29.1819706
  65.4309845  28.9695816  68.2006378  65.8966980  29.0394650  67.3672943
  64.8791275  29.7510166  68.2328644  82.3787766  25.2632999  27.7948112
  83.3021317  25.0796032  27.9677048  82.1352539  25.9103470  28.4568214
  32.4039803  69.2409286  63.6917458  32.0693741  69.8911819  63.0741386
  31.7421856  68.5493698  63.6933861  62.9199867  43.5985222  76.4749908
  63.5877991  43.9518280  77.0627289  63.3939362  43.3952217  75.6686020
  48.7963295  65.6307220  11.8718901  49.6095238  66.1319580  11.9328098
  48.6336975  65.3285751  12.7654734  73.0532837  65.6817093  77.7376328
  73.6085587  66.2341690  78.2878113  73.6692276  65.1610184  77.2221375
  35.1878891  38.1206703  25.4886436  35.3689766  37.5788879  24.7205849
  35.5111923  38.9895592  25.2504559  77.4278336  29.5566578  32.4410667
  77.8657913  30.3045712  32.0348091  76.5225754  29.6141834  32.1353912
  15.0177364  69.4860992  42.7582016  15.0204983  68.5291519  42.7365990
  15.0701284  69.7048187  43.6886063  64.7364731  63.3428230   4.0042033
  64.5583191  63.0246353   3.1191905  65.6719360  63.5456657   4.0020132
  74.8417892  11.0098476  87.4705887  75.2722244  11.0744705  86.6180725
  75.5515747  11.1076574  88.1053009  81.0098114  33.0720520  23.6154728
  81.1111832  33.6475525  22.8573475  80.0631714  33.0050850  23.7404594
  20.0062180  23.5620842  62.3645363  20.8252087  24.0575085  62.3583221
  20.1784039  22.8219872  62.9466362   7.5418868  54.1854973  31.1364994
   8.2987595  53.6287155  31.3191738   7.9187436  55.0017738  30.8080101
  71.7771454  18.2039852  46.8121872  72.2147980  17.7235222  47.5149307
  72.4278183  18.2491436  46.1116028  55.7271271  17.4270287  40.5068703
  55.9632530  17.1356201  41.3875275  55.3600006  16.6488495  40.0874786
  14.9384918  43.7340355  61.0944710  14.9380493  42.7799416  61.1715279
  14.8581123  43.8984833  60.1549339  61.5514412   6.0610027  42.2524490
  61.5954819   5.5789180  43.0782127  61.9750175   6.8983951  42.4410934
  34.6240616  40.5264359  81.2852783  33.7539825  40.6293259  81.6707764
  35.2280350  40.7055473  82.0059509  16.0748539  38.0644608  72.6413269
  16.7813606  37.4257736  72.7370224  16.5034809  38.9136047  72.7484131
   6.0710497  48.8056717  82.0602188   6.3733988  48.5633125  81.1849594
   6.1606107  48.0037575  82.5751419  27.0143929   0.4679261  76.0766373
  26.5685673  -0.2940883  75.7067642  27.7278442   0.6484631  75.4645691
  42.8651390   1.4489888  69.7263870  43.1394958   2.2956300  69.3740234
  42.7970085   1.5930907  70.6702194   8.2608662  67.0261993  42.6367493
   9.0151510  67.5828400  42.8302269   7.5178146  67.4849777  43.0286980
  49.8593254  25.8946857  70.9305496  49.3523026  25.3226871  70.3543701
  50.7559280  25.8324871  70.6012039  69.1956482   8.2519827   2.9036007
  68.4874268   8.2602262   2.2597189  69.2857056   9.1662674   3.1723068
  30.5164146  53.9241524   8.3640547  31.3205967  53.6974068   7.8970323
  30.2403450  53.1058655   8.7768736  36.2807732  60.0818977  88.3468857
  36.2522964  59.2667389  87.8459473  37.1275558  60.4695129  88.1256485
  68.9927597  62.2026062  75.4359283  68.8460464  63.0016403  75.9421387
  68.5228958  62.3494835  74.6150208  31.7032681  33.0363541  83.8194351
  31.7323780  32.9424515  84.7715759  32.2103958  33.8283806  83.6412582
  45.8316383  64.4911270   4.6558318  45.9958725  64.3051987   5.5803261
  46.6980667  64.6682358   4.2895465  51.8827553  41.0355530  28.3035030
  51.7618332  41.6738892  27.6005535  52.7452545  41.2385483  28.6656113
  26.3602600  67.1884308   9.0709105  26.9217739  67.9160156   8.8034163
  26.2049618  66.6967087   8.2644863  81.5026474  21.5083160  44.1228065
  82.3740768  21.9020138  44.1658020  80.9025269  22.2370319  44.2811165
  45.1009674   8.5245571   2.1125815  44.8717308   9.4454880   2.2373579
  44.2727776   8.0556202   2.2147207  18.8324242  52.3877411  78.6311111
  18.8447971  53.2447662  78.2049866  18.6476307  52.5799980  79.5504150
   9.5458899  23.1246300  80.0839691   8.6554060  23.2600670  79.7600403
  10.0692968  22.9855518  79.2947006  82.3612213  40.7509613  44.2769051
  82.9503021  41.0219116  43.5727768  82.5302887  41.3739510  44.9836769
  27.2418385  67.8475494  22.0062351  27.5154057  66.9637909  21.7605362
  27.0817375  67.7954407  22.9485111  66.5239105  23.6583443  31.0851078
  67.4201584  23.4478951  30.8230381  66.5362930  23.6100922  32.0410118
  76.9412689  64.6786652  62.9628372  76.9670639  64.7193832  62.0068512
  76.8336563  65.5889664  63.2385254  63.3951530  65.2054138  65.5459137
  62.8038597  65.4475174  64.8331833  63.3152885  64.2537384  65.6105652
   0.9298812  23.1265736  18.5173187   1.0422742  22.4301872  17.8702888
   1.8126915  23.4696827  18.6557121  63.9869919  18.9890652  32.8796577
  63.9655876  19.2521038  31.9595585  64.5457993  18.2120399  32.8936920
  80.6281433  39.5625000  57.5708351  81.4488754  40.0377388  57.7003975
  80.3482361  39.3226471  58.4542084  57.5993004  19.8640060  61.8504677
  57.5755882  19.9400024  60.8965836  57.0457535  19.1075382  62.0443039
  79.5432892  49.7327805  74.3805923  80.1998978  50.4245834  74.4612579
  78.7868423  50.0628128  74.8654480   6.7498922   2.2870395  38.2322273
   6.6059923   1.3510158  38.0930023   5.9176888   2.6082816  38.5793190
  41.3313408  43.1971474   6.8923416  40.9662285  43.0132561   6.0268307
  41.5713730  42.3376503   7.2385831  56.4554787  52.8902435  14.9565716
  55.8707695  53.6386223  14.8370848  56.5074005  52.7759743  15.9055071
  74.0924835  26.8279266  61.3768921  74.7068710  27.4075432  61.8272285
  73.3337555  27.3810921  61.1909561  19.6337452  -0.0374718  84.4725800
  19.4123611   0.6525074  83.8471603  18.8052578  -0.4886664  84.6346436
  77.5930481  18.9817772  49.9692345  77.8954697  18.1598110  49.5830421
  77.9187012  19.6590557  49.3763809  83.5371094   5.5507340  11.3409233
  84.4772110   5.7236271  11.3913774  83.3186264   5.1651373  12.1893406
  17.2828522  55.4394836  37.0378952  17.7953148  55.0916862  36.3080673
  16.9418697  56.2736092  36.7150955  20.3403549  53.2293892  59.4456596
  21.0456772  53.5073280  58.8612785  19.5417595  53.3518753  58.9323616
  47.3456688  31.3364697   8.1861362  46.7843704  32.0217667   8.5488243
  47.9422531  31.1125450   8.9004021  31.6809826  47.6851921  18.0580482
  31.6219120  48.6077347  17.8097382  30.7924957  47.4523087  18.3274746
  23.0406857  30.2246304  13.8198843  22.4670715  29.6823559  13.2784634
  23.0424747  29.7926693  14.6740732  54.5682526  33.6455078  26.4554253
  54.8920326  32.8138084  26.1094818  55.0277672  33.7536888  27.2881184
  14.4134417  66.8681870   0.0749135  14.9381046  67.0507126   0.8544284
  13.7344313  66.2658615   0.3788618  12.5618019  37.2334099  68.7232971
  12.4658356  38.1749039  68.8668671  13.4163418  37.0198669  69.0979843
  40.7515640  44.3661575  47.1649284  39.9518394  44.8797112  47.0512161
  40.4785004  43.4611740  47.0143547  84.7943802  13.6885853  39.1117668
  85.6537781  13.4073067  39.4256935  84.9866257  14.2696896  38.3758392
  65.8926239   4.5941272  66.2625504  65.9532623   4.8111019  65.3322449
  65.0774384   5.0042577  66.5515137  74.4700012  68.5089035  37.8968391
  73.7040787  68.2098770  37.4067535  74.3736115  69.4604797  37.9346695
  10.6211405  40.8404694  37.0881577  10.6797447  41.7882576  37.2085571
  10.5479679  40.7234268  36.1409607  55.0897942   9.1326962  70.4403763
  54.3145370   9.1347084  69.8789444  54.8743515   9.7397566  71.1483994
  79.7950668  19.8772106  27.5386028  79.3502731  19.3088284  26.9098454
  79.3370590  20.7149143  27.4699631  71.7555237  48.4818916  59.7065659
  71.5188980  48.2541046  60.6056519  71.0657272  49.0813904  59.4219208
  81.1961212  33.6638603  46.8752556  81.7327499  33.7780151  47.6596260
  80.6134262  34.4232521  46.8711014  58.3276367  42.4393120  61.0469666
  58.3050308  41.7880249  61.7480698  58.4296265  41.9254227  60.2458763
  44.0745735  43.9688644  78.7502213  44.9694252  44.1136246  78.4427795
  43.5516205  43.9185448  77.9500809  59.9833984  28.6560917  45.1635132
  59.2878799  28.0948639  44.8207169  59.5594063  29.1704521  45.8504562
  60.7330589  30.2329140  62.3694191  60.4361115  30.1687603  63.2771301
  60.0455513  30.7308521  61.9271278  47.4415665  63.7627144  78.5230103
  48.0079155  63.2052917  79.0566406  46.7868347  63.1643181  78.1631775
  69.8470612  70.1031647  39.9508057  69.3063583  69.9654465  39.1730461
  70.6402664  70.5242691  39.6195679  45.1315727  14.4352274  68.7340927
  45.2735748  14.4001436  67.7881317  44.1856422  14.5455952  68.8303604
   7.2576027  59.2535324  54.6198349   7.1263189  59.5098190  53.7069778
   6.4906883  58.7214546  54.8318939  31.7665119   7.0617609  15.1965818
  31.6108971   8.0052595  15.2392988  30.9188480   6.6694841  15.4059010
  77.4173584  26.7507477  74.8421249  76.6669159  26.1793346  74.6791687
  77.0563126  27.4840965  75.3401947  42.4229507   5.8260379  13.4896078
  43.2614365   5.4314575  13.7293644  41.8318138   5.5840735  14.2025185
  72.2779007  29.8798332  46.5975075  71.3598022  30.0421371  46.8142509
  72.4872589  29.0582504  47.0418053  85.4735565  50.3252068  59.8586426
  84.6012650  50.4702682  60.2251053  85.5754776  51.0148163  59.2026863
  41.1202126   9.5166464  72.0180893  40.9203720   8.7592497  71.4679565
  40.9930534  10.2708912  71.4426041  41.1634903  10.5280657  83.6634674
  41.5834160  10.0168056  84.3552094  41.8674431  10.7138977  83.0420609
  68.9097595  49.9700241  33.8033104  68.3879013  49.1691437  33.7534294
  68.9442520  50.2899551  32.9018211   1.1084617  29.1931610  71.0610275
   1.9908626  29.5640392  71.0539703   0.7463075  29.4527645  71.9081879
  35.7639656  19.7483540  72.6823654  35.2950554  18.9212875  72.5713959
  36.6745605  19.4901333  72.8251038   5.2502337   0.1169645  56.1053696
   5.3990254   0.2354821  57.0434799   6.1198416  -0.0566417  55.7449913
  68.2552567  22.4140301  45.8569489  68.9135284  21.7318172  45.9892502
  68.6787796  23.2173939  46.1593819  16.0213509  46.2594337  69.3819580
  15.0659742  46.2487831  69.3238754  16.2042542  46.2547188  70.3215103
  82.8439484  54.4935760  51.7457924  82.5596466  53.7369919  51.2329750
  83.6254120  54.8101044  51.2926216  25.5216141  36.2680092  73.6978073
  25.7412434  36.0185394  72.8001709  25.9091854  35.5802994  74.2391739
  63.4475899  24.3931751   4.9279442  63.5558281  25.0419083   5.6234035
  63.9088669  24.7674580   4.1773658  72.9057770  31.4808922  72.7883987
  73.7416229  31.9437618  72.7305832  72.4236374  31.9419689  73.4748306
   8.7620487  60.2675323  56.5519676   8.1547880  59.8863716  55.9177933
   9.6270723  59.9852982  56.2548027  39.1898651  60.3065605  36.3962860
  39.5643158  60.7949104  35.6631203  38.5883980  59.6842957  35.9873161
  11.0838823  55.8839455  10.0106630  11.9679432  55.5740089   9.8141785
  11.1862240  56.8248405  10.1537695  34.7600021  43.1829758  79.6762161
  34.2901649  42.3848953  79.9181976  35.2439499  43.4247704  80.4658737
  50.0563583  27.6319199   5.1249361  50.0753441  28.5626144   5.3478293
  49.6974182  27.6053257   4.2379832   0.4681817  42.1315765  85.8051529
   1.1284034  42.4134407  86.4383087   0.7157717  42.5686111  84.9903336
  48.3082199  48.1549187  41.2810440  47.4132423  48.3614311  41.0116043
  48.8081894  48.9452400  41.0769463  51.6085510  64.0041275   8.3974018
  51.1646957  64.5387802   7.7390933  52.4323235  63.7482872   7.9824581
  13.7815104  54.7748413  65.5344009  13.1859274  54.7960548  66.2834396
  14.6276598  54.5286446  65.9080963  48.8592110  47.5377274  29.1646214
  49.3139420  47.6287155  30.0019817  49.1039963  48.3215332  28.6727295
   9.2349367  39.2368622   1.9391323   9.6658459  39.9111862   2.4643321
   8.7265739  38.7291336   2.5715978  41.1888657  10.8608465  74.7749786
  41.2469635  10.3316078  73.9795151  41.7600861  11.6101828  74.6063614
  57.1240387  17.4976330  15.0584869  57.0359039  18.4297886  15.2573547
  57.4004059  17.4732609  14.1423769   3.0002272  12.6481934  61.7360954
   2.5926409  13.4083080  61.3209686   2.6513956  12.6463442  62.6274681
  20.7207489  59.8598976  35.3936958  20.7613697  60.5669403  36.0376434
  20.1683006  60.2058105  34.6927109  29.6001549  36.3919106  33.3623238
  28.9554253  36.3051529  34.0644836  30.4010620  36.6714592  33.8057594
  78.8634109  29.6580696  20.8856773  79.1803055  28.7666492  21.0312176
  79.5644379  30.2187271  21.2180290  26.0644493  64.0520172  21.6175976
  25.4539337  64.6440201  22.0569534  26.7659626  63.9156075  22.2543907
   5.4312906  15.6461582  57.9689713   5.8037667  15.3444319  58.7974968
   6.1726332  16.0257530  57.4972191  83.0279083  26.6440735  24.6993179
  83.8757324  26.9660416  25.0055237  82.6704788  26.1632423  25.4458294
  55.9724350  11.5321178  67.5982208  56.5003586  11.0838451  68.2589569
  56.6132164  11.9148817  66.9989471  77.2643051  57.3677216  60.3691177
  76.6860275  56.6477928  60.1170731  77.8854446  57.4409294  59.6445084
  22.3810196  25.9798279  77.2622986  22.1118088  26.7030315  76.6959686
  22.0610809  25.1951447  76.8171692  83.3472595  21.6879787  85.6960831
  82.6209030  22.2156296  86.0280762  84.0394058  22.3227348  85.5109940
  49.7792168   2.2226753  17.2271843  49.1429901   1.5202270  17.3613968
  49.5919304   2.8517907  17.9238682  36.5368423  70.6088333  45.9060440
  35.8082352  70.4130325  45.3169556  36.8658905  71.4563370  45.6065483
  62.5428925  70.9491653  18.3750668  63.4505653  70.9272385  18.0719604
  62.5266876  71.6445770  19.0326157  12.4739017  60.7173538  41.7281799
  12.8713646  60.5285072  40.8781242  11.5321045  60.6434746  41.5739326
  61.0535126  57.9104576  69.8896332  60.4770012  57.4749260  69.2617950
  61.9369507  57.7326851  69.5668945  62.9773674  35.7693825   7.1907196
  63.0099678  34.8743858   6.8528576  62.1624107  36.1283646   6.8397059
  58.7311668  35.9350281  37.8534012  58.7722397  34.9911194  38.0069733
  59.1686478  36.3204575  38.6125374  38.2812920  18.3116703  62.9715309
  37.5271378  17.9662037  63.4491692  38.1212654  19.2540150  62.9204559
  12.0485697  49.0602684  41.6454964  12.2119970  50.0034065  41.6415749
  11.4790173  48.9190216  42.4017334  23.4539986  28.3854866   4.6816449
  22.8803635  27.6284332   4.5631356  22.8745461  29.0774822   5.0004072
  15.4073296  51.3557739  48.0524635  15.5764380  50.6563683  47.4212227
  14.4531698  51.4259071  48.0823326  67.7346649  50.2829933  87.3811188
  67.4560547  50.7604408  88.1625595  67.1643295  50.6092415  86.6850586
  21.8897018  30.1909294  85.9038544  22.1289959  29.2818832  86.0844269
  22.0556393  30.6503239  86.7270584   4.7988734  21.6749973  81.1024933
   5.3448529  21.0552330  81.5862656   5.3303909  21.9225903  80.3459091
  51.1074982  49.6731262  56.1823502  51.2693062  49.7232780  55.2402573
  50.4115181  50.3110542  56.3401222  29.8577824  22.0949039  63.2554932
  30.2427559  21.3281689  62.8310585  30.6080589  22.5821972  63.5958786
  52.8686066  17.6741600   0.6559302  53.4206276  17.0667992   1.1484934
  51.9733810  17.4079323   0.8655006  17.6055470  51.7663116  59.5516090
  17.5179043  50.8293571  59.7267227  17.2496529  52.1902428  60.3325386
  49.2698517  18.1870480  81.7924957  49.9324951  18.1479053  82.4821320
  49.1289635  17.2735786  81.5435867  11.3801603  63.5387421  61.9144363
  10.5555325  63.1085434  62.1406021  11.2665262  63.8107185  61.0037498
  55.8975334  65.7541580  40.3245125  55.3021469  66.3930969  40.7163010
  56.5561523  65.5945587  41.0005150  68.9465714  64.9131012  31.5150890
  69.7066193  64.3736420  31.2970181  68.6893616  65.3117599  30.6837387
  63.2718620  67.9039001  53.4368668  63.4252892  67.3728409  54.2183189
  63.6483917  68.7577744  53.6498375  36.5183067  53.4689789  33.5736084
  36.2974701  54.3963470  33.4872665  36.8504295  53.2205353  32.7109375
  53.5738678  52.4775963  69.0753479  53.9143562  52.8247032  68.2508392
  53.7624893  53.1606483  69.7188492  65.5860367  14.3281879  37.5471878
  64.6498260  14.3666391  37.7428093  65.6277771  14.0785894  36.6240463
  80.8342743  57.7663422  46.1194153  80.1248550  58.0355682  46.7029266
  80.4171753  57.6717415  45.2630768   4.1839910  26.2201118  84.2513123
   3.4054985  25.8053036  84.6229477   4.5377116  25.5675106  83.6469727
  40.9365540  27.3968010  85.4108353  40.8711166  27.3507900  86.3646927
  41.8393517  27.6685734  85.2455292  54.8602371  66.7540131  17.3228836
  55.5572701  66.1228180  17.1440926  54.1094055  66.2166138  17.5752220
  49.0789604   0.8652557  88.5418091  49.5110779   0.1222565  88.9630661
  48.9554520   1.5014046  89.2462845  19.4741840  56.8028450  26.8575859
  19.4442539  57.1811447  25.9788227  19.7985802  55.9122505  26.7240353
  16.0943909  38.9220772  83.7603531  16.2847290  38.6184616  84.6479492
  16.1097755  39.8769417  83.8253860  13.4866896  51.2807922  30.5497227
  13.4037752  50.9239082  29.6654205  14.4288807  51.3940773  30.6749172
  51.8703690  65.4759293  66.5444107  51.1909828  66.0626373  66.8767395
  52.5626984  65.5130463  67.2043610  15.4214497   1.1668973  75.1485901
  15.6466827   1.0593923  74.2245026  15.5144615   2.1057720  75.3101273
  61.3080635   8.8486519  11.1871214  60.9417992   8.4310713  10.4075651
  62.2404060   8.6338539  11.1582212  50.2554169  17.8039570  25.3448467
  50.7399292  17.2555294  25.9618607  49.8234520  17.1818371  24.7595196
  76.6296768  57.0581284  75.8962097  76.2687454  57.0988274  76.7818222
  77.3876953  57.6421585  75.9194260  86.3149338  57.6774635   1.7671893
  86.7336121  58.2140846   2.4402254  87.0123978  57.1035919   1.4502417
  63.3417549  55.3390694   0.9580140  64.2075424  55.6167259   1.2572650
  62.7920418  55.3843346   1.7403177  43.0177345  32.9948807  14.6297226
  42.7450714  32.9040184  13.7166901  43.8826828  33.4020882  14.5819902
  33.4172554   1.2336389  11.2594013  33.7057419   0.8640499  10.4248886
  33.3346863   0.4774811  11.8404694  81.6536179  40.3059387   4.1451850
  81.8573227  41.1297302   3.7023425  82.4860077  39.8338547   4.1675806
  11.2531157  58.5013428  16.8286343  11.6449289  59.3738937  16.8656521
  11.0673189  58.3614159  15.9001236   7.0425982  53.5871124  48.3275070
   6.1460357  53.3005600  48.1534538   7.0517125  53.7905693  49.2627869
   3.7252703  15.5590439  88.3235855   3.7169473  15.0207157  87.5321503
   2.8095322  15.8041468  88.4561768  32.0678520  10.8063240  17.5309067
  32.6644478  11.5341444  17.3560219  31.7331867  10.9771910  18.4112663
  77.0709915   9.4729824  16.4260120  76.5562363   8.7701931  16.0293388
  76.8322144   9.4510403  17.3526936  59.6139183  68.6818008  64.2465591
  60.4799461  69.0688934  64.3745346  59.3174477  68.4608994  65.1294708
  33.3457870  14.2774839  77.8286514  33.2796860  13.6363401  78.5363159
  32.4415474  14.5425634  77.6603775  56.6320152  70.3438110   7.7386165
  56.0214348  70.7660751   8.3428640  56.2744522  69.4649658   7.6120524
   6.7049928  34.2388763  25.7771530   7.0190582  33.4541817  25.3278770
   5.9473958  34.5212021  25.2647381  30.6567707  55.0074959  30.9408855
  31.0281811  55.5229492  30.2249279  31.4156075  54.6130257  31.3707561
  16.3514423  46.6804314  45.2491722  16.3369274  45.8113861  45.6501465
  15.6690941  47.1683617  45.7102127  30.0019588  53.3110657  12.9028406
  29.8309479  53.9101830  12.1761723  29.1330776  53.0696335  13.2237587
   7.8531885  22.3150444  60.0272522   8.5160370  21.6779137  59.7609291
   8.1265507  22.5939808  60.9011497  30.0406456  44.6297302  19.2593441
  29.6374741  44.3065338  20.0650921  30.5915432  43.9063263  18.9602966
  51.0145836  48.2836151  33.8544502  50.7101746  49.1369057  33.5454712
  50.5307846  48.1366463  34.6672058  14.6128960   2.5933256  21.5023022
  15.0779028   1.9951324  20.9173546  14.4211369   2.0679209  22.2790966
  31.4351826  53.7837296  22.0686607  31.4473991  54.7289391  22.2192135
  31.9251022  53.6644440  21.2550392  35.8979950  49.1016006  12.2121859
  34.9489098  49.0551605  12.0968027  36.0278358  49.0344467  13.1581583
  29.0819798  68.7140274  88.5180359  29.7101345  68.4773254  89.2004013
  29.0648556  69.6709976  88.5297775  85.9295349  15.6986961  71.7672272
  86.6605911  16.0957146  72.2406921  86.0335083  16.0043888  70.8661270
  72.8835602  51.5351830  39.9509659  73.6895599  52.0312653  40.0941391
  72.2339020  52.1969795  39.7138824  21.3469982  63.6727142  60.7621498
  22.0284824  63.6045189  60.0934486  21.6747017  63.1478844  61.4924850
  71.9849701   8.9525795  23.7948456  71.9505310   9.2494383  24.7041969
  71.3312149   9.4866495  23.3436241  78.5383835  34.0226021  48.1920547
  78.1134567  33.5588341  47.4705391  78.5533676  34.9379768  47.9126015
  51.6976204  52.7200546   8.3942804  51.3093529  51.8493538   8.3084793
  52.1600304  52.8586121   7.5677152   7.9906182  23.5686188   5.3861232
   8.0573483  23.3183823   4.4646239   8.3635702  24.4494133   5.4227376
  49.6908531  62.2631187   2.1417332  49.1949806  61.5856972   1.6819081
  50.4979286  62.3545494   1.6352705  64.0843353  50.0103798   1.0225472
  64.7922592  49.5458107   1.4689287  63.8746414  50.7420502   1.6029944
  40.3428650  47.3552208  75.7997437  40.2005005  47.2334633  74.8610535
  40.0805893  46.5223083  76.1917877  76.8588028  47.5909004  57.8601875
  77.6592941  47.5121155  57.3413048  76.8070831  48.5208359  58.0810394
  44.5786858  24.1258202  88.7652893  44.3096466  24.4387074  87.9016113
  45.1048279  23.3468628  88.5846481  47.5596886  57.2380562   5.6306310
  48.4610786  57.3614998   5.3331537  47.3013611  56.3910942   5.2670946
  56.6590538   0.7522779  52.3696136  56.3622551  -0.1315637  52.1528931
  56.0216217   1.0687605  53.0097351  71.5454102  35.1910629  16.9325542
  70.9341583  35.9183197  16.8154888  70.9916153  34.4103279  16.9323044
  60.1150513  27.0084877  34.5159721  59.5839157  26.2621078  34.2384071
  59.5551033  27.4866848  35.1275444  48.5296211   4.2169061  19.6171055
  47.6867790   4.6317978  19.8007298  48.3852005   3.2889676  19.8023205
  18.8369102  63.5345879  20.8570557  18.2306995  62.8495255  20.5752144
  19.6648731  63.0767860  21.0023994  31.2220898  69.6622696   1.5265737
  31.4465618  68.7744293   1.2480263  30.6322689  69.5380783   2.2701585
  56.3113632  20.2324924  64.4027100  56.2227936  19.7922020  63.5574112
  57.1406136  20.7064800  64.3401566  60.0834618   6.9061546  33.5590744
  60.2565384   6.3317013  32.8132362  59.1533585   6.7807064  33.7472420
  46.5586243   2.4131439  16.1782837  46.0417633   1.6074988  16.1732807
  46.0961838   2.9906170  16.7856598  49.3732452  29.8061295  65.9547043
  49.3504601  30.3386955  65.1596603  48.4552727  29.6006336  66.1317215
  46.7454147  31.5086842  66.5834808  47.2149124  32.3328362  66.7122269
  46.7440834  31.3794231  65.6350479  84.8073578  54.6382370  41.8107529
  84.3091812  53.9670105  41.3443794  85.2051926  54.1731606  42.5467300
  57.1523666  52.2405243  30.1181316  57.6007080  52.8143005  29.4968395
  56.2696762  52.1437149  29.7607555  66.1818542  39.2001991  15.8047218
  66.2044296  39.7099915  14.9948864  65.3274689  38.7687988  15.7924347
  57.0980415  69.2092743  69.1800385  57.5686646  68.4228668  68.9038010
  56.9791451  69.0983047  70.1233215  38.1389771  69.6794052  27.5671291
  38.2608566  68.7300415  27.5581894  38.9667664  70.0302582  27.2386532
  86.4742050  38.5029869  29.6140881  85.5938568  38.8441658  29.4565659
  87.0176163  38.9263420  28.9494781  53.9979515  48.0378761  54.1666489
  53.5446281  48.7620392  53.7350044  54.1247520  47.3884125  53.4750214
  68.1350937  12.0606537   8.9460764  68.6424408  11.7014513   8.2182026
  67.6133499  12.7599087   8.5522985  59.5725746  28.4270401   7.3847480
  59.0749893  27.7057705   7.7699909  60.4028587  28.4265022   7.8610435
  71.1940613  66.7482834  84.1456909  71.4671478  67.1285629  84.9805756
  72.0034485  66.6741714  83.6400986  12.5616770  38.3615799  54.2643852
  11.6686668  38.6797333  54.1319351  13.0850849  39.1555367  54.3735046
  83.2153549  11.3081656  10.5570879  83.7592316  10.6533022  10.1193895
  83.6343460  12.1438141  10.3512506  68.5513535  69.1595688   3.2192428
  67.8096695  69.5253754   2.7372487  68.7711945  68.3564606   2.7471004
  44.5367851   6.8611360  71.2681122  44.4919624   6.0181355  70.8169174
  45.4286385   7.1705027  71.1096115  13.3776474  56.3029861  61.3436241
  12.8159666  56.4086456  62.1114655  13.1088381  55.4666405  60.9634972
  44.8783417  43.5516472  61.1956367  45.6994438  43.1797638  61.5177002
  44.9802780  44.4959793  61.3143120   8.7286053  35.9501686  12.8628998
   8.2083855  36.6171913  13.3108778   8.1520576  35.1874466  12.8172703
  72.1224289  36.5402145  25.0291748  71.6326218  36.5777588  25.8507061
  71.6811523  37.1691704  24.4582767  69.0188751  67.8431244  77.4957657
  69.0922852  67.7265244  76.5485382  68.6633987  68.7255402  77.6016312
  27.4337540  49.1917191  11.8991222  26.9220581  49.8054466  11.3721151
  28.2488842  49.0780869  11.4103680  65.0460815  60.0132751  18.9258385
  65.9150391  59.6375999  19.0673141  64.4419632  59.3568344  19.2727661
  45.1691666  68.4171143  15.5806236  45.5433960  69.2711945  15.3644409
  44.2292786  68.5233459  15.4338121  81.4636536  36.8283195  55.1302528
  81.9477158  37.6053314  54.8506737  80.5707474  37.1414986  55.2747002
  86.7673798  42.4585190  26.2182503  86.1351700  43.1760063  26.2601223
  87.1921005  42.4631653  27.0760498  57.3138466   9.4054184  42.9447861
  57.5315399  10.0658951  42.2870560  57.8253250   9.6558704  43.7141342
  71.8396225  15.5280371  80.0947189  71.9477692  15.3596487  81.0307617
  72.6738281  15.9101782  79.8221588   0.7185890  66.4338913  45.6742516
   0.9291632  65.7739716  46.3348579   1.2266270  67.2026825  45.9332542
  33.9615288  62.6946182  79.7035217  33.9736023  63.6306572  79.5037308
  34.8112602  62.5255928  80.1104813  84.2721786  20.7458286  54.0672073
  85.1227493  20.7459583  54.5062447  84.1498795  21.6512299  53.7816849
  72.8954468  39.8867302  59.9433899  73.6681137  39.3265076  59.8701477
  72.3890915  39.5039253  60.6598396  21.0227489  66.0973358  59.4773827
  20.7735043  65.2669983  59.8831520  20.5154209  66.1293793  58.6663208
  21.1980286  52.6140366  72.6180725  20.2500401  52.7452583  72.6361923
  21.3125610  51.7485619  72.2255554  64.5184631  14.0129576  79.6043167
  64.3087616  13.2862978  80.1910172  63.8277512  13.9929790  78.9419327
   7.8751173  12.1310911  70.2035828   8.6291733  12.4811525  69.7291412
   7.2031493  12.0135918  69.5320969  72.8211975  16.7436905  59.0861359
  73.4113235  17.1465034  58.4491653  73.3597183  16.6221161  59.8680878
  21.5073051   0.4547361  21.8587837  21.0993176   0.0158721  21.1123409
  22.1208515   1.0754129  21.4656487  56.8752632  14.0103788  21.1003647
  56.8337822  13.4459620  20.3283901  56.2330055  14.6989765  20.9283981
  44.1683807  33.8269234  75.1051865  44.0825462  32.9235458  75.4097748
  43.3501968  34.0016403  74.6401291   1.7082708  33.5701065  27.3714123
   1.7981483  34.3943825  27.8496590   2.5947053  33.2097664  27.3465080
  16.3312607  62.9556084   8.0957098  16.6982422  63.7881241   7.7982674
  15.7702074  62.6699409   7.3747063  51.0585480  53.7980156  10.7028379
  51.2702293  53.7687225   9.7697973  51.8303108  53.4323158  11.1351261
  36.6266327  47.7176704  34.5492477  36.0775146  48.1433945  35.2076263
  37.0215530  48.4411583  34.0625877  61.8619766   5.3512654  39.7115479
  61.7509575   5.4546256  40.6566544  62.5240097   6.0011139  39.4756699
  51.9743958  71.1951218  39.8618279  52.3231850  71.9333038  39.3621712
  51.3915520  70.7456970  39.2498283  23.5883427   4.4188704   5.4835629
  23.5200233   5.3559279   5.3005652  24.4563408   4.1747527   5.1622877
  78.2548141  18.7853813  25.4939919  77.9065781  19.1696243  24.6894283
  77.5418549  18.2406006  25.8273544  15.4505053  47.5467834  85.0068359
  14.9156580  47.7537270  85.7732162  15.4255285  46.5917091  84.9481506
  43.7425079  47.7559738  11.2103453  44.0494347  48.1476860  12.0280180
  43.8102226  48.4612122  10.5666952  40.3837395  29.7239723   2.0414648
  39.6083870  29.4633408   1.5443412  41.0923271  29.7230816   1.3979347
  52.4840240  70.9373398  21.2451611  52.3097610  70.0678940  21.6056194
  52.5311775  71.5092087  22.0113029  27.8307953  16.4347477  84.2587357
  27.9180622  15.5979424  84.7152100  26.8866100  16.5547905  84.1570587
  19.5310593   9.9513750  62.1285324  20.4727306  10.0866652  62.2342834
  19.4418411   9.0145359  61.9535942   0.6852689  48.9591904  77.3174896
   0.2496534  49.7803154  77.0889664   1.5176754  49.2294731  77.7051468
  79.9067001  41.6729736  70.5061569  79.5646210  42.5332489  70.2629776
  79.6184998  41.5474434  71.4102707  61.2145615  65.3653183  80.1941528
  60.6644096  66.0914078  79.9002991  60.6377373  64.8350372  80.7439728
  71.1846161  17.7663727  50.6859627  71.6818771  17.3647060  49.9734802
  70.2712326  17.5619888  50.4854927  37.9025955  28.6912880  73.3594055
  37.7520905  27.7616100  73.5305176  37.2321014  28.9285240  72.7187881
  46.1171036  68.0283508   5.5412226  45.9157677  68.8566208   5.9767184
  45.4840431  67.4078064   5.9023271  44.2685242  57.9766426   2.7757308
  44.2243576  58.1242256   3.7204530  45.0658073  58.4287224   2.4997053
  54.4601707  35.6565132   8.6170540  54.1447678  34.7824707   8.3872576
  55.1371880  35.8453445   7.9672685  19.3054409  15.2365208  42.4152946
  19.3931255  15.1292572  41.4681740  19.6485786  14.4213972  42.7814369
  62.4535980  37.8124199  21.5091534  62.9419212  38.5684204  21.1832161
  62.9789696  37.0566025  21.2465611  21.6510181  70.7816696  80.5875626
  21.6967640  71.5705185  81.1278000  22.0732212  71.0297928  79.7651215
  67.6488342  16.7462215  37.7472878  67.6835938  16.5348339  38.6802063
  67.2565079  15.9733839  37.3410416  33.2104836   5.3781557  20.5918903
  33.2487488   6.0199885  21.3009872  32.5305710   4.7615252  20.8634090
  82.8631973  34.0060234   5.3117452  83.7971191  33.8791199   5.1446395
  82.8260498  34.7536011   5.9083858   6.0523071  35.4337997  33.7809296
   5.9593277  34.5406990  33.4493370   6.3127198  35.9473000  33.0162506
  77.6291046  22.4623451  22.6375046  78.4514999  22.8153152  22.9770756
  77.7951126  22.3229656  21.7051716  50.3357162  37.9044495  38.8683014
  50.9164314  37.7225723  38.1294327  50.8596191  37.6957169  39.6417274
  55.4204102  66.5434494  43.1577034  54.4967804  66.2992096  43.0986404
  55.8500443  65.7693863  43.5216637  23.5201321  66.6503525  78.7098770
  23.8036633  65.7951660  79.0331573  22.7811871  66.8855591  79.2710114
   5.3486648  58.8924103  67.9376373   4.7926807  59.6703568  67.8938980
   6.2369266  59.2253418  67.8096466  27.2205200  13.8707914  71.8926773
  26.7375050  13.0536957  71.7690506  28.1337852  13.5981197  71.9811630
  57.7397537   0.7544706  78.7459259  57.8642578   1.5225146  78.1884003
  57.7745361   1.0983043  79.6385651  57.6935120   6.8933115  49.8036575
  57.4893532   7.7778802  50.1071205  56.8671646   6.5649848  49.4492798
  -0.1119741  42.5828629  67.9376144   0.5229194  41.9448814  67.6118469
   0.4152283  43.3457985  68.1747131   8.6232157  39.4244423  67.5322723
   9.4836159  39.6987152  67.2149124   8.8082228  38.7006683  68.1307373
  60.5671082  70.9751053   1.6852889  60.7038994  70.3140030   2.3638606
  59.7970161  70.6701202   1.2055311  77.4211960  46.8124199  24.9641361
  77.3977661  46.2578773  24.1842842  78.1790237  47.3816986  24.8305473
  46.0143700  17.7856350  66.9955826  45.4465866  17.0159206  67.0328903
  46.7720680  17.5505257  67.5311661  20.0987129  66.1167831  31.4557209
  19.6674366  66.5064850  30.6952171  20.5732632  66.8430252  31.8602085
  41.2312813  62.0672722  29.0767593  41.3652420  62.7399368  28.4090691
  40.5926743  61.4688339  28.6891003  24.5659103  30.5509014   3.2912712
  25.3978653  30.1864681   2.9891632  24.2796001  29.9535713   3.9822531
  77.9616394  68.2669678  18.3105831  77.4603119  67.8725357  19.0242519
  78.0450287  67.5682144  17.6617241  12.5931196  42.4447441  28.3924465
  12.4486446  43.3797417  28.5378399  12.9132051  42.3890152  27.4920731
  67.0443954  50.0481987  47.8736801  66.6807327  49.3181725  48.3747215
  67.9908371  49.9752617  47.9967766  56.1659622  17.1766434  28.7382698
  55.7918091  17.2032166  27.8576260  56.9649467  17.6999435  28.6749325
  57.3054466  66.5317612  13.1122742  56.3649521  66.6913605  13.1911936
  57.4591942  66.4673691  12.1696987  33.1638222   2.4549370  79.9986572
  33.3985100   3.3026667  79.6211548  32.9050522   2.6565702  80.8978882
  73.8801270  37.0553551   3.4383733  74.2159119  36.1950874   3.1865370
  73.2806320  36.8758240   4.1626687  14.2567177  64.4807129  17.6628094
  13.6049032  64.9376297  18.1944027  14.0219059  63.5558548  17.7385693
  71.5661240  16.5146008  72.3035431  71.2694550  15.6654768  71.9761200
  72.0839767  16.8802223  71.5863419  38.4051285  33.5913010  30.9567928
  39.3373756  33.4021378  31.0634022  38.2426491  33.4749603  30.0206852
  61.5508537   4.0511408  36.8254929  61.8018341   3.9628007  35.9060173
  61.5503197   4.9951272  36.9839935  55.5238914  64.4427643  61.2558289
  54.8548317  65.1137009  61.1200333  55.9011765  64.3015518  60.3875275
  65.9317398   7.7287078  14.4617147  66.6290817   8.3835821  14.4945269
  65.6013565   7.6854696  15.3590508  13.9376564  41.5681458   5.4783063
  14.8433456  41.2845192   5.6028571  13.9910145  42.2550392   4.8138013
  47.6910172  59.4917374  16.2844734  48.1328392  58.7466125  16.6916752
  48.3457680  59.8652725  15.6945562  72.4776230  36.4857826  41.8846092
  71.5318298  36.5099144  41.7393036  72.7804947  35.7396851  41.3670731
  69.6711807  17.0562763  32.7670059  68.9278564  17.5868454  33.0537033
  70.3086319  17.6924648  32.4427223   8.2335939  35.7770653  58.9664192
   9.1682329  35.7226791  58.7671051   8.0608606  35.0121994  59.5153923
  65.2451935  63.4636841  86.9967194  65.9757843  63.6184769  86.3979721
  65.1555634  62.5110779  87.0239792  14.1783819  70.8926849  87.9467087
  13.5465727  70.2736053  87.5809402  13.7009125  71.7207947  87.9966354
  57.4513321   8.2038326  84.5858994  58.1974602   7.9604774  84.0379028
  57.1454163   7.3755784  84.9555511  67.9539108  18.0703049  61.3456650
  68.8686066  17.8107758  61.2351608  67.8972702  18.9308758  60.9304047
  30.3119202  22.6776295  73.0227280  30.1962833  23.6262932  73.0765533
  30.3727570  22.3916645  73.9341812  67.4456329  52.8150711  41.6089935
  66.8128738  52.9726067  40.9082603  67.7179184  53.6896324  41.8869057
  82.9430084  14.3846016  78.0292206  83.3761673  13.9921827  78.7872543
  82.0698318  13.9924889  78.0227509  11.4009705  43.9203606  13.6722116
  10.4726105  43.6990471  13.7456856  11.8259363  43.0955544  13.4369974
  55.6547928  47.1612053  27.0872478  55.0682297  47.1372299  26.3312054
  55.5097580  48.0239563  27.4756508  21.9728642  16.2735348  29.1064568
  22.2075291  16.8163872  28.3538113  22.4731007  15.4665413  28.9849777
   1.6622725  20.1943150  57.4911842   1.0685304  20.2325249  58.2410126
   2.3852527  19.6406555  57.7861290   5.2361636  54.0279007  72.4561615
   5.8415017  54.4615784  71.8547287   5.3562808  53.0938644  72.2847443
  78.1851349  59.2032967  46.7075386  78.3030701  59.6901703  45.8918953
  78.9293518  59.4624138  47.2508965   2.8313248  45.3164024  31.4380684
   2.4287066  46.0780525  31.8552265   2.1276870  44.6691628  31.3911133
  67.9825668  69.8765259  37.8133736  68.5372467  69.1530075  37.5216827
  68.4513779  70.6640854  37.5373306  37.0358276   0.0453501  71.4277573
  37.6304512  -0.5450392  70.9650574  37.5221252   0.8666230  71.5002747
  39.0545044  25.8602200  13.1608582  39.0589638  24.9245796  12.9589024
  39.6792717  26.2413921  12.5439281  15.5722103  10.9239426  17.0612411
  15.7315855  10.4794340  17.8938541  15.9995260  10.3697071  16.4082050
  74.0410690   5.6252570  84.5964355  74.1550446   4.9531231  85.2683563
  74.5903244   6.3523788  84.8894119  19.1518097  51.8155403  48.6746674
  18.5920963  52.3368645  48.0991898  19.1278839  50.9354477  48.2990417
   9.9075613  32.2175484  30.6623058  10.8001070  32.3616257  30.3479233
   9.3629303  32.7640190  30.0957546  10.9749241  35.7225723  27.6919708
  10.2625151  35.3473396  27.1743755  11.7459478  35.2127647  27.4432659
  70.7749023  61.4675674  69.4719315  71.1976166  60.6164055  69.5862122
  70.2406769  61.5772209  70.2585831  61.8656120   1.5184594  66.2508469
  61.6847649   0.6782337  66.6722107  62.0254440   1.2968612  65.3334732
  27.9231987  55.4225349  64.3471069  27.8179455  54.9639473  65.1806870
  28.5873184  56.0891342  64.5226593  57.7563820  51.8916168  12.3348732
  57.3145714  52.2214546  13.1173315  58.5983772  51.5670357  12.6541252
  29.3074322  63.8150406  63.3983154  28.7763233  64.5037003  63.7981949
  28.7651672  63.0286064  63.4591484  46.4074783  10.1462536  60.6341171
  47.1457176   9.5485630  60.7524338  45.8154297   9.9418468  61.3579445
  22.1626740  50.8178253  58.6559677  21.8249779  51.2445946  57.8685265
  22.9723606  51.2880707  58.8547363  39.5082703  62.0623703  10.0419664
  38.7334404  61.5611267   9.7877522  39.9309387  61.5261497  10.7128239
   9.4251099  56.4207726  69.3285446  10.3764009  56.3546486  69.4116287
   9.2563782  57.3595581  69.2482605  44.1681404  35.1110420  45.8412895
  43.4199600  35.0972099  46.4381714  44.0803452  34.3075523  45.3285255
  59.3108521  38.1123047  29.8516350  59.8526039  38.8825684  29.6800709
  58.8726234  37.9373856  29.0188160  17.0834465  34.2690735  12.6695862
  16.5813866  34.7623138  13.3183413  16.8726559  33.3528938  12.8496313
   0.6537262  50.6282120  19.1085491   0.8469101  50.2569046  19.9693851
   1.4171826  50.4067039  18.5753517  27.9676895  59.4008217  63.1057739
  27.7004089  59.4293785  64.0244522  28.1979885  60.3057022  62.8950920
  20.9988117  57.1156807  74.9901962  21.1668110  56.7796669  75.8705902
  20.4705143  56.4362335  74.5712814  58.7004623  44.1508827  44.4222260
  59.0790863  43.8437119  43.5984993  58.4879990  43.3500328  44.9015274
  79.8017120  39.8317375  43.8522720  79.2139740  40.1789780  44.5232582
  80.6464005  40.2417870  44.0382767  75.5058746  71.2064056  35.1821861
  75.1127777  70.6995926  34.4716606  76.3365936  70.7653198  35.3598747
  47.4031754   0.7647431  39.2457924  48.1151276   0.9117938  39.8684807
  46.9768524   1.6178104  39.1635933  86.0364151  56.5163269   8.2213459
  86.7858582  56.2238655   7.7026639  85.7163849  57.2932510   7.7628694
  13.5852623  58.6615906  22.2768574  14.0876083  59.4375763  22.5253067
  13.9972887  57.9449196  22.7593994  29.9532146  69.2962646  33.1293793
  29.9654846  69.8952637  32.3828621  29.6986618  69.8441086  33.8718796
  43.2369308  35.6363716  81.5550766  43.9783745  36.1938744  81.3191147
  43.5919075  35.0269623  82.2022552   2.7189500  39.9156837  18.0669174
   2.3625927  40.5485268  18.6904182   2.0830126  39.8999977  17.3516769
  86.5276871  17.8192997  83.0885696  85.9550476  18.0535488  82.3581924
  86.0821991  18.1642628  83.8623734  42.5610313  62.8401833  45.6541595
  42.7410316  61.9474030  45.9487305  43.4247360  63.2453384  45.5760345
  55.8093491  64.2843018  14.4361944  55.1330414  63.6652412  14.1612387
  55.4132843  65.1457367  14.3046837  63.9517670  34.8713646  51.8212433
  63.9530258  35.8050995  52.0318871  64.5307541  34.7961655  51.0627289
  10.8082590  18.2482376  64.3547974  11.3508539  17.4902515  64.1373596
  10.3668184  18.4698944  63.5349007  56.4885864  25.4829788  70.5693054
  56.6137619  26.2462654  71.1331787  57.2854538  25.4425659  70.0405273
  69.9607391  70.5944443  66.0775604  70.7047729  69.9944229  66.0263596
  70.3453827  71.4312210  66.3384933  66.1884613  38.8401833  58.2749863
  67.0651398  38.8540077  57.8909607  66.2204742  38.1333160  58.9196129
  76.3853226  66.3555069  28.9099007  76.2031403  67.0903473  28.3241959
  75.9961853  66.6131516  29.7456188  34.5406761  37.9604225   9.9372358
  33.8544044  38.6037560  10.1143923  34.1445732  37.3537827   9.3116760
  15.0810604  17.1349258  52.0651741  14.1908989  17.3363819  52.3537216
  15.5743551  17.0144234  52.8765755  70.1911011  11.1892004  37.3369408
  70.2876968  10.2426119  37.4412041  69.3619919  11.2954159  36.8705368
  84.4277878  14.6303654  64.0674820  84.3582611  15.0979948  63.2351837
  84.1338043  15.2629728  64.7229309   1.6506300  54.5268364  35.6511154
   1.0288507  53.8027840  35.7244110   1.4990391  55.0531197  36.4361458
  71.4702301  23.4319153  36.0653000  72.3415222  23.0364208  36.0911636
  70.8945694  22.7243996  35.7750130  61.9612122  61.7711105  22.1886692
  61.4682961  61.8413582  21.3711529  62.8720665  61.9155388  21.9323254
  18.6470127  53.3886909  73.9137650  18.2367897  53.5997314  73.0750732
  18.1547832  53.8995132  74.5564194  47.6733665  24.6133919  11.8971243
  47.2826347  23.9242859  11.3598232  46.9315262  25.1519165  12.1726131
  76.3462296  25.0963078  82.6960526  76.4197693  25.6575851  81.9241791
  76.1765060  24.2233047  82.3420868  71.1977921  55.0780220  12.6448479
  72.0400925  55.0302734  13.0970459  70.8056946  55.8945160  12.9544153
  19.6354504  67.5569687  43.5765762  19.8143711  68.0209122  44.3944855
  19.8474312  68.1901550  42.8907433  52.3041840  63.9803429  80.7159348
  52.8953934  63.9145966  81.4658585  52.4803734  64.8459244  80.3472061
  29.5681305  60.3926468   5.9247174  29.0778446  60.1829529   6.7196259
  29.4313278  61.3317299   5.7996578  41.6804695   5.4176202  27.5184593
  42.5025291   5.7757416  27.1834946  41.0060120   5.8016114  26.9582024
  62.5160484  15.4731302  55.0987282  63.4344559  15.7236719  54.9987640
  62.5472145  14.5718603  55.4196205  19.6050339  17.2508430  65.2888794
  20.4821014  16.9919872  65.5716782  19.1797657  16.4288082  65.0446701
  73.7392044  69.5536575  33.2653732  74.4913483  68.9644547  33.2074203
  72.9917831  68.9741287  33.4128418  62.9910278  30.6117916  36.8138351
  63.5861702  31.2325611  36.3934975  63.3533134  29.7515526  36.6017647
  48.6339836  46.5470314  10.3437948  47.7845383  46.5294533   9.9029255
  48.5407104  45.9283371  11.0681925  57.8554344  30.5760155  84.5209503
  56.9754295  30.8277721  84.2408752  58.4118233  30.7714252  83.7669754
  10.9918070  61.3954163  29.9335022  10.0606213  61.1737747  29.9338856
  11.2877808  61.1847725  29.0479164  57.0634155  21.8225002  82.8822479
  56.7705727  21.7634335  83.7916336  57.9335556  22.2177105  82.9360199
  43.8895493  11.9521656   4.9200568  43.8610573  12.7464485   4.3866391
  44.8209839  11.7420292   4.9871955  81.4951630   0.2181630  77.4499588
  82.2017746   0.8540596  77.3378754  80.6978455   0.7082044  77.2490311
  17.0134983  56.7482681  62.8572273  16.9888477  56.7568779  61.9003830
  16.2114773  57.1989670  63.1215439  62.7189445  35.8795280  13.6791334
  62.8821907  36.5105133  12.9781075  62.6019211  35.0440445  13.2269096
  19.2465134   0.9060158   6.3538237  18.5096073   1.5129427   6.2842503
  19.5602074   1.0120994   7.2519188  44.6278381   7.9426146  80.8981323
  44.1450310   7.6639481  80.1200104  45.5486908   7.8733001  80.6462173
  44.3651772  33.9055023  39.7384300  43.4578590  34.1921387  39.8425674
  44.7630615  34.0534401  40.5963516   6.6415439  21.7993641  64.8846436
   7.2710686  22.5200500  64.9078827   7.1324468  21.0642872  64.5173416
  47.3881340  38.4898643  10.1386967  48.0156288  38.6966286  10.8313246
  46.6791992  39.1211815  10.2615042  86.5556793  39.4891548  65.9289856
  86.2536926  38.8721962  66.5956116  85.7521133  39.8246536  65.5315475
  42.3338089  62.6530457   2.2142832  42.6432228  63.4573288   2.6309643
  42.0966110  62.0810776   2.9442303  84.0368423  36.2939453   0.2877076
  83.9758835  36.1021996   1.2235228  83.1865005  36.6727982   0.0649593
  81.4575195  61.1387215   1.6456748  81.8953552  61.5902557   2.3672328
  82.1664658  60.8939018   1.0509616  50.6155739  50.1953773   6.8767962
  51.5292931  50.1898689   6.5916362  50.5508575  49.4612274   7.4875913
  65.3696823  36.0482635   3.0285580  65.0757980  36.9005547   3.3502214
  66.0535736  35.7830009   3.6434989  16.5000324  20.5009785  74.2842102
  16.0913639  21.3255672  74.5474167  16.0189915  20.2346363  73.5007019
  53.4862251  12.3225231  32.1017303  52.5782547  12.4998569  32.3474426
  53.8663940  13.1876364  31.9491425  33.2904091  63.1087303  31.4158783
  34.0548744  63.6809616  31.3497601  33.6564751  62.2269516  31.4843426
  68.9062576  18.1059742   3.9943295  69.3355560  18.9463406   3.8339543
  69.6155624  17.4641743   3.9595127  19.3473282  59.6742477   8.9100409
  19.5094109  59.3294716   8.0319242  20.0615730  60.2936592   9.0597572
   1.0188543   0.0360210  37.7173309   0.6358017   0.4425339  36.9399986
   1.9092627   0.3851678  37.7560806  42.7366104   6.0452833  18.7325134
  42.6755524   6.1021709  19.6860695  43.3112411   5.2964416  18.5735569
  15.6203728  46.0919380  75.4823227  16.5521069  46.2840691  75.5881042
  15.5769091  45.1370392  75.4322205  63.6716042  23.9848595  77.2248459
  63.0037460  23.6655598  76.6180115  64.5026016  23.7588406  76.8069992
  68.3659363  44.4348679  69.2469177  69.2976913  44.6416397  69.1740036
  68.3437958  43.5037460  69.4677200  42.4025803  37.5553741  77.1446304
  42.1947289  37.1791916  77.9999237  42.3829651  38.5015755  77.2879868
  30.3453541  63.3381081  18.8333664  31.1645355  63.8325691  18.8594837
  30.4744186  62.6274529  19.4614906  75.4224625  40.1025429  70.3572617
  75.7486725  41.0013924  70.3138046  74.4943619  40.1735191  70.1340332
  29.1419964  42.8272133  70.0954285  29.6436310  43.1465263  70.8455200
  29.7824516  42.7684288  69.3864899   6.3070989  45.0200157  82.0491180
   6.6518583  44.6115799  81.2550430   7.0093760  45.5993614  82.3447418
  72.5641327  29.8154202  53.5492401  73.0776215  30.4856281  54.0002174
  71.8504486  29.6130924  54.1541748  25.5594807  64.7553329  26.0261211
  25.6921558  63.9342117  26.4998150  26.3217449  65.2882385  26.2523937
  16.2121220  38.4752274  51.2227745  16.3627415  39.3717728  50.9231911
  16.5397854  38.4649734  52.1220856  82.8520050  41.0774994  57.2126770
  83.3978271  41.2358551  56.4424629  83.4733429  40.8462067  57.9030991
  18.9044647  63.9280205  66.3956604  18.1058178  63.4397278  66.1957397
  19.4213886  63.3307228  66.9362640  35.0864716  46.8583031  51.8914757
  34.2153320  46.7706032  52.2783279  35.0207214  46.4088860  51.0489006
  56.4417267  56.3872185  32.3396149  55.7624550  56.4350548  33.0123215
  56.5571976  57.2925491  32.0510330  43.6450386  14.1260834   3.0588493
  42.7789383  14.0110865   2.6678586  44.2535744  14.0250883   2.3269207
   4.1657324  58.5204811  87.0259094   4.9080734  58.6606522  87.6137085
   3.9431167  59.3955917  86.7083359  60.1577415  58.6330948  87.0885696
  60.9494934  58.8022575  86.5779419  60.2036705  59.2549820  87.8147812
  18.8115978  33.0869751  71.7484894  18.0249119  33.3735809  72.2124023
  19.1514206  33.8826370  71.3389969  58.3907280  30.2745152  76.2633057
  59.2898293  30.5759525  76.1329803  58.2031059  29.7399960  75.4917297
  69.6142197  21.0198727  25.2863312  70.3557281  20.6708508  24.7917786
  69.1783600  21.6150284  24.6763744  85.1387177  59.2959976   7.3861685
  85.0067139  59.5686569   8.2941675  86.0537872  59.5087395   7.2028294
   6.7471890  52.9245949  81.0563126   7.4897728  53.4235115  80.7158966
   6.0033340  53.5226097  80.9835968  29.2398643  20.3759499  67.2719650
  30.1866283  20.5076847  67.3221130  29.0809326  19.5829506  67.7839432
  63.2300911  35.5143776  18.2626705  63.8498383  34.8193283  18.4841480
  63.6884537  36.3242989  18.4866467  58.1325264  56.8425446  39.8515244
  58.9067078  56.8038788  40.4131126  58.4466782  56.5647240  38.9910851
  14.8637877  70.1177216  80.3258514  14.9375134  71.0343399  80.0601425
  14.5555124  69.6648636  79.5409164  65.4215469   9.2768393  32.7486343
  65.7482224   9.5619173  33.6020050  66.0371857   9.6520252  32.1189804
  56.0809669  36.6730690  37.4025841  57.0310059  36.6136208  37.5032005
  55.8647766  37.5602798  37.6895523  85.0169067  20.5877476  34.9343643
  85.9614410  20.6570911  35.0731888  84.6900635  20.1547146  35.7229652
  73.2270584  33.0445976  12.5073080  72.9622345  33.7611275  13.0840969
  74.1175537  32.8300629  12.7851992  21.7432632  36.9889603  17.1199131
  22.5322857  37.2022247  16.6217232  21.2994747  36.3245392  16.5928173
  32.6089439   1.2702944  86.6746445  33.0776176   0.5147784  86.3199997
  32.1883507   0.9401533  87.4685898  83.5486984  15.5789862  75.7669449
  83.3148270  14.9460793  76.4458923  84.0303268  15.0666056  75.1175461
  62.3138199  28.0900459  61.7150841  62.0309944  28.8638096  62.2024536
  62.1391716  28.3067741  60.7992439   5.7407842  40.5099907  24.6640739
   5.0786037  40.0853271  24.1187229   5.6801934  41.4375801  24.4357224
  29.0247593  68.1655045  67.3936768  28.6180096  69.0162964  67.2295380
  28.6997986  67.6047745  66.6892548  16.1899281   0.8212996  66.6959381
  16.3254223   0.5800608  67.6122818  16.3386993   1.7665797  66.6726074
  11.9699240  46.9943542   4.8274550  11.2614641  47.5544167   5.1447015
  11.7759314  46.8655243   3.8990149  14.4099073  12.8633471  77.2262650
  15.2194643  12.4200335  77.4798813  14.2354317  13.4723835  77.9438019
  16.3251171  60.9594574  80.4841690  15.9035940  60.1376610  80.7355652
  16.1532784  61.0395584  79.5459290  56.8496094  33.6213226  73.3934250
  56.0694199  33.6766624  73.9452209  56.5412064  33.8564301  72.5183029
   8.0373678  18.1476822  88.5526962   8.2659616  17.3838272  89.0823288
   8.8752985  18.5742207  88.3733444  78.7280350  45.4644089  79.0349655
  77.8354187  45.4935150  79.3793716  79.1440811  44.7440262  79.5084534
  27.1235466   7.7794137  77.4358215  27.2109089   8.4508648  76.7592468
  27.7700157   7.1146274  77.1983948  67.8935776  52.2629089  64.6093903
  67.8860168  52.0946083  63.6671333  68.4718704  53.0185890  64.7130890
  78.8311157  53.2798119  31.0353909  78.2911682  54.0017776  31.3570404
  78.6601334  52.5624886  31.6456738  83.3690567  44.2533760  54.9269829
  82.8888092  44.1541901  55.7490273  82.8064804  43.8434029  54.2699661
  53.8871231  47.6549110  14.0093222  53.8652267  48.5894661  13.8034925
  53.1786537  47.5321579  14.6411705  79.2262039  19.3363171  16.6805954
  79.5008163  20.1347828  17.1314564  80.0452118  18.8992481  16.4472980
  10.4753504  66.2217331  76.1224823  10.7507296  66.9964066  76.6126633
  11.2534609  65.9609604  75.6297607   3.8955038  26.6209774  35.4278908
   3.8059304  27.1171246  36.2415504   3.4376714  25.7977066  35.5977287
  26.5866909  59.5868759  16.8889351  27.2312527  59.8848343  16.2470665
  26.9952545  59.7604790  17.7369747  11.7991066  62.0619888  51.4886856
  11.0989828  61.5472984  51.0872498  11.5888786  62.9684448  51.2642479
  68.7734909  37.9403915  78.1173553  67.9346466  37.8202744  77.6722183
  69.3377686  38.3465500  77.4594421  64.5677719   8.4425440  22.4584160
  63.9032478   8.9403896  21.9821949  64.9269485   7.8391910  21.8078861
  33.6190987  44.7419739  16.7918243  33.1601219  45.1098709  16.0366936
  34.4570961  44.4417992  16.4398422  32.6152229  63.6960716  72.5459290
  33.3302307  63.2783852  73.0260696  32.4682884  64.5224304  73.0061188
  72.5053635  12.6302404  79.4812088  71.9930191  12.1972771  80.1640549
  72.1555023  13.5205708  79.4474869  28.0168667  64.3769531  68.4249115
  28.2470016  63.9438667  67.6028976  28.8576660  64.5470276  68.8496094
  22.3036194  36.0409737  67.9936829  21.8298473  36.0433235  67.1619568
  23.0716667  35.4935875  67.8302765  79.0087357  17.9562569  68.1335602
  78.6251907  17.7895317  68.9945679  79.4860382  18.7792034  68.2392654
  59.2011032  40.1479988  70.1306992  58.3758087  40.1094360  70.6140594
  59.6709785  39.3572502  70.3955841  54.5446587  14.6455641  80.6991882
  54.0251999  15.4391508  80.5703049  55.2453537  14.7099352  80.0502548
  38.2123489  29.9090157   0.3979072  38.1421738  30.6194572  -0.2397288
  37.3061256  29.7005215   0.6248894  81.2058258  65.7963867  20.1311626
  81.3013229  65.4289627  21.0098610  81.4960709  66.7043457  20.2183685
  79.6017227  44.5397415  38.4712715  79.6054688  45.2055931  39.1589203
  79.7126923  45.0337372  37.6589355  36.1803551  60.6945076  11.8185959
  35.9848518  61.6163330  11.9866734  35.5639420  60.4402924  11.1318350
  49.2509117   3.0266702  52.8554802  48.3067474   3.1618440  52.7747612
  49.4184570   3.0632350  53.7971916  39.9774704  49.1013260  52.7894440
  39.8765717  49.3354301  51.8668137  40.4639435  49.8324699  53.1702423
  83.8802032  48.2322350  11.0755081  83.8984222  48.6064453  10.1946754
  84.2124176  48.9307289  11.6394014  22.3219795   4.9088459   2.0193596
  22.2172604   4.9158530   2.9707882  21.5919189   4.3773427   1.7019548
  71.8037415  23.8443413  43.1008415  71.9527130  24.7141857  43.4715347
  72.6364822  23.6136513  42.6890564  78.6455002  63.2098732  28.6539688
  77.9092026  63.3513947  28.0589237  78.2791595  62.6891060  29.3686943
   6.0552216   0.4582954   2.2702363   6.5581312   1.2724586   2.2914951
   5.1807323   0.7091063   2.5678844  33.9231377  56.6734161   1.0167292
  33.9695778  56.1027222   0.2496664  34.3718681  56.1844940   1.7065330
  54.4411240  23.5781422  70.5371933  54.3574409  23.3154163  71.4538269
  55.1997375  24.1617069  70.5236053  33.1486511  31.0720234  56.1151390
  33.3030319  32.0064583  56.2538033  33.8175850  30.6376286  56.6443520
  19.4833870  13.7407751  75.1649933  18.5672150  13.7486830  75.4421158
  19.9432011  14.2348337  75.8437424  58.4595108  50.5618935  38.8199997
  59.0009537  50.9080467  38.1105995  59.0853920  50.3184242  39.5020752
  64.0820160   1.0594206  63.5551529  63.9719086   0.2713389  63.0231400
  64.5888519   0.7679011  64.3130188  35.0600319  36.4444313  65.4961853
  35.3559074  35.5530853  65.3112869  34.7018242  36.7552109  64.6647263
  15.9359808  21.5084133  62.0074806  16.1986389  21.7875252  62.8846016
  16.3819427  22.1173382  61.4187851  11.8599443  23.0574532  12.3234415
  11.8988781  22.3584499  11.6706715  11.2878304  23.7181435  11.9330473
  24.4270477   4.3214064  12.4726009  23.5566330   3.9235866  12.4912844
  24.3480968   5.0965538  13.0286102   9.0038309  37.5418167  35.6395950
   9.9071941  37.5613289  35.9554863   8.4909306  37.9126320  36.3576927
   6.8421850  25.7491550   3.3382838   7.5400548  26.0123081   3.9382503
   7.2553673  25.7507515   2.4748547  53.1462631   9.7475729  14.1482706
  52.6792793  10.4797468  13.7456770  52.4703560   9.2651196  14.6243219
  71.0747299  33.7045059  34.7519989  71.3495636  32.7974854  34.8862114
  70.3905334  33.8467445  35.4061165  56.3567009  23.4791927  10.7859612
  56.0557327  24.3878307  10.7805882  55.8536682  23.0561447  10.0901031
  69.1834183  28.5544777  73.9749908  69.4378357  27.6493511  73.7954178
  69.4387970  28.6987782  74.8861389  80.7520142  40.3576355   6.9215689
  81.2366714  40.1921120   6.1129026  80.6325226  41.3071861   6.9390969
  30.8706036  59.5340843  17.0235291  30.1458130  59.6621780  16.4115639
  31.1724777  58.6417198  16.8538437  63.8829422  69.4150620  57.2538605
  64.5719070  69.2320709  56.6150551  64.3538971  69.6506577  58.0531921
  32.1577339  13.1022253  82.5385590  32.0221062  12.8696365  83.4571152
  31.7334614  13.9548359  82.4422226  21.0203609  56.9200134  44.6152039
  21.9279785  56.9919815  44.9106407  20.5883713  57.6933479  44.9779358
  34.1159325  54.7337723  78.6796341  34.2199059  55.0761833  79.5674286
  34.3075218  53.7993355  78.7593613  70.5942764  70.7791519  55.6798820
  71.1149979  70.4008560  56.3883858  70.3005829  71.6231766  56.0228043
  49.9814339  42.6210556  22.4433727  49.1076889  42.4370842  22.7882652
  50.4193192  41.7699394  22.4339752  85.1303940  60.6210480  76.0320053
  84.5114746  59.9144707  75.8478699  85.2572098  60.5873337  76.9801712
   4.9949179  17.8601341  88.7450180   4.6717443  16.9791775  88.5560608
   5.9234743  17.8291435  88.5146790  49.0883942  18.2080097  73.8343964
  48.3578720  17.9238281  73.2850189  49.8689766  18.0035706  73.3194885
  22.2951107  54.4080658  49.4146233  21.9070225  53.8772964  50.1102524
  22.0391273  53.9661407  48.6050491  28.8630409  27.1164589   9.7386370
  28.4860001  27.9890308   9.8512859  28.1407757  26.5172825   9.9271908
  20.8050747  30.0133591  80.6039658  21.5213814  29.9806538  79.9698792
  21.0033455  30.7739258  81.1502762  34.2569199   9.7226124  13.5083141
  34.7207069  10.2596731  14.1507320  34.6889191   8.8695936  13.5526924
  60.1075516  14.3512430  74.7468719  60.6659431  13.5778532  74.6674881
  59.7287827  14.2842331  75.6233902  49.1483040  16.9717083  78.2101974
  49.5353088  16.3152847  77.6309128  48.9194527  17.6979294  77.6301422
  70.3520813  68.4823685  53.2124329  70.7671280  69.2537155  52.8264275
  70.7542801  67.7416840  52.7587242  69.8213120   2.5712740  40.1016693
  69.7229538   2.6930611  41.0459785  69.1015320   1.9887974  39.8590355
  49.2304649  23.3752537  58.4953842  48.5814781  24.0736446  58.4099350
  49.1306839  22.8565903  57.6970940  76.0982971   3.7710757  18.5636845
  77.0212784   3.7048922  18.8085423  75.6272202   3.7470098  19.3965912
   3.3297644  70.5832291   3.9606886   3.8563626  70.9986649   3.2777984
   3.9025283  70.5656891   4.7274122  63.9727364  17.5602741  20.4972382
  63.7677193  16.6576710  20.7411842  64.9174347  17.5580215  20.3430443
  23.7186832  56.1998444  44.8592758  24.1982288  56.3932762  44.0537643
  23.8620682  55.2646828  45.0046883  38.0620613   1.0363669  32.3732338
  37.7512970   1.8495497  32.7712173  37.3626213   0.4048841  32.5413094
  55.0417900  13.0972977  49.9585419  54.5101357  13.0959711  49.1625671
  55.8680801  13.5016346  49.6939926  52.5427818  65.6735535  42.8953362
  51.8519478  65.9980621  42.3176918  52.6170273  64.7436142  42.6810112
  41.6161232  61.0047455  17.9657307  41.2395058  61.7846375  18.3733616
  40.8898964  60.3826904  17.9224682  71.4063110   6.4461756  65.6846542
  70.9293365   6.1367097  66.4546967  72.3259888   6.2758060  65.8881149
  85.9254761  50.4403763  56.3199501  86.3988419  49.6152573  56.4264183
  85.5125046  50.3702507  55.4592705  27.7733727  28.8398876  65.1017838
  27.7040291  28.2080841  64.3860703  26.9213467  29.2757263  65.1199188
   5.5601707   1.5818071  84.1079178   5.9045959   1.0966150  84.8577118
   6.1948509   2.2839274  83.9649506   0.9088609  30.7824631  63.6080284
   0.7515260  31.7213402  63.7079620   0.0650800  30.3758717  63.8053856
   8.1696215  41.3969231  19.7639236   9.0581570  41.3514671  19.4108353
   8.1265965  40.6804390  20.3971939  67.6344376  56.3604584  34.4481049
  67.7753448  57.2016792  34.8825340  66.7230682  56.1407623  34.6413994
  70.0651779  65.0725555  77.1057587  70.8899307  65.5535202  77.1742172
  69.5395203  65.5847549  76.4912949  70.2472610   6.8328114  24.9521694
  69.4977112   7.4185128  25.0587654  70.7787476   7.2454543  24.2713776
  62.4180336  26.9767494   0.8959377  62.1713409  27.5124283   1.6498756
  61.8721466  27.3037643   0.1808873  63.4130020  67.0871582  81.3401260
  64.2016373  66.5453110  81.3663406  62.8812065  66.7025452  80.6433487
  37.7187691   5.4861073  80.1019745  37.5420265   6.2726207  80.6181107
  38.6601219   5.3423996  80.1991348  42.6413155  14.9644594  70.3200455
  41.9898720  14.2639580  70.2860641  42.4910812  15.3905153  71.1639252
  62.5688133   1.8975046  84.9886246  63.4685669   1.8616108  85.3132629
  62.6430550   2.2937586  84.1204605  32.7378693  14.6911783  68.8933411
  32.7323112  13.9727011  68.2608948  31.8126144  14.8664970  69.0648041
  26.0082588  43.8824196  22.1918678  25.5054970  44.6390572  21.8902702
  26.0113697  43.9617157  23.1457729   5.7689214  33.7649498  62.1318665
   5.1108508  33.0773087  62.0302505   6.4146972  33.5811577  61.4496460
  54.2739029   3.2780459  74.4299240  55.1951866   3.2405615  74.1728973
  53.8682404   3.8558969  73.7835846  28.0891457  20.1430187  61.9668922
  28.5159473  20.9278488  62.3105698  28.7298393  19.4443588  62.0996361
  60.2106094  26.5084763  65.8864670  61.1013336  26.8519344  65.8166122
  60.1087341  25.9486294  65.1167755  43.7515526  13.3287344  60.1777420
  43.9769058  14.0742855  60.7341576  43.3197708  13.7189188  59.4177704
  52.7882957   1.8866979  63.9590302  51.9220467   1.7670420  64.3482971
  53.3768196   1.3892066  64.5268097  80.1725845  34.6233253  19.1312447
  79.9937134  34.9556007  18.2515678  81.0518112  34.2496109  19.0719242
  55.2479782  20.1450539  32.5865402  55.3606911  19.1945305  32.5807533
  55.8874931  20.4659538  31.9507141  20.0921288  17.2191467  15.7828817
  20.2723141  16.5927010  16.4838333  19.1670971  17.4401398  15.8911018
  80.6001892  26.6280670  15.4661112  79.6847153  26.5773239  15.1912212
  80.5648804  26.9928780  16.3503609  46.1054153  18.4299507  19.9093361
  45.3039246  18.0841675  19.5165558  46.2482300  17.8838348  20.6823769
  56.2213249  48.8198738   4.1449122  57.1452370  48.8355675   4.3946571
  56.0784378  47.9341812   3.8111992  48.2519569  43.5622368  36.9978676
  48.0665245  44.2258453  37.6623001  49.0725479  43.1604042  37.2831688
  43.6538925  29.8354473  18.2099094  44.3782692  29.3097725  17.8705349
  42.9107170  29.2326279  18.2329178  41.0112801  19.9873962  72.5667114
  41.3439026  19.8462143  71.6803360  41.2171898  19.1765099  73.0317841
  85.0827332  67.0685120  44.1712303  85.4710846  67.7393799  43.6096611
  85.8015518  66.7825165  44.7349167  72.4815903  18.6682262  12.5545139
  71.7050323  18.1429062  12.3615656  72.8704987  18.8444118  11.6978083
  64.0300980  62.4421844  46.8866577  63.4930878  62.0592041  47.5803261
  63.4660530  63.1024933  46.4840584  50.0244408  14.2468195  28.2477112
  49.8965988  14.5023632  27.3341541  49.8433342  15.0432758  28.7467976
  72.2173691  67.4079361  33.3469620  71.2663574  67.3255844  33.4178391
  72.5203934  66.5218811  33.1486969   6.2783823  25.9606209  85.8725357
   5.8646708  25.2060184  86.2916412   5.5986581  26.3206863  85.3028336
  21.4154587  41.2746696  21.6978359  20.7520313  41.9645119  21.7122803
  21.9669342  41.4567566  22.4587231  57.2664871  14.9111929  61.5482597
  56.4718857  14.8249731  62.0749550  57.0225525  15.5107756  60.8431168
  40.8236084  53.6517105  81.4342041  41.0749702  52.7297516  81.3791199
  40.8477020  53.9610519  80.5286942  40.5758133  38.4188042  17.0467472
  40.7078629  37.6761513  17.6360359  39.6683464  38.6843872  17.1957474
  27.0225410  15.8614216  64.0214233  27.4622555  16.6594486  64.3147430
  27.3814449  15.6968746  63.1494484  21.1119862  31.8500309  15.9587517
  20.8321438  32.2233467  16.7945480  21.4798679  32.5907135  15.4767923
  17.9684677  48.7994270  59.2385330  18.9118023  48.8090630  59.4005699
  17.8363857  48.0673599  58.6361504  74.0598602  35.5999260  75.6239090
  74.4884415  36.4343376  75.4333496  74.3279724  35.3918571  76.5189209
  17.7640495  22.7566147  71.3597641  18.4397945  22.1204929  71.5941849
  17.8107758  23.4202633  72.0479584  69.1511688  30.2141800  24.0883579
  68.7746887  29.5841084  23.4739456  69.8103638  30.6831074  23.5766945
  23.9803524  36.9082985  58.7578926  24.0951061  37.1772881  57.8464622
  24.0658894  35.9551201  58.7388916  52.6558037   6.8660693  28.3707085
  53.3733864   6.3830447  28.7805824  52.4192390   7.5347147  29.0135002
  51.0849190  58.1313782  47.7769470  51.4757233  58.6092072  47.0453873
  51.8219528  57.6819725  48.1905251  77.6192932  21.2243614  55.6917572
  77.1788406  22.0181026  55.3881035  77.1133423  20.5080338  55.3081932
  84.8274002  40.8383179  64.2593002  85.1090546  41.7531052  64.2511749
  84.1132736  40.8019257  63.6229553  27.4438782  51.9511948  13.6482506
  28.0817776  51.2375565  13.6421022  26.7789917  51.6727028  14.2780123
  32.1125832  40.9111671  70.8261948  31.2937737  40.7933617  71.3077621
  32.7861748  40.5626221  71.4101639  45.5858803  47.8576622  72.6559525
  45.6759224  47.0380783  72.1697311  45.6986771  48.5414696  71.9957123
  65.5048981  54.7953568  80.6254272  65.8957367  54.1524277  81.2171326
  65.8221054  54.5459366  79.7574387   1.3889405  46.6891975  75.5735550
   1.9428494  46.8866158  74.8182755   0.9941669  47.5293236  75.8071747
  26.0658302   2.6458621  60.9045143  26.7823048   3.1637928  60.5375748
  25.2898598   3.1940491  60.7879257  71.7747345   0.3573398  38.6094971
  72.1097183   0.6872023  37.7757034  70.8522720   0.6128055  38.6149178
  64.8088989  16.7925091  67.2404022  64.6932373  16.8382893  66.2913208
  65.7573242  16.8160419  67.3675156  54.8963127   0.1355129  43.0625496
  55.7609520   0.3240408  42.6977386  54.7208176   0.8677980  43.6534729
  80.0704117  47.3505707  65.6178741  79.4143753  47.8311043  65.1129608
  80.7479172  47.9991913  65.8089523  75.0685577  46.1463661   7.4386435
  75.3745499  46.6014977   8.2231522  75.1441879  45.2172318   7.6559458
  41.1398125  58.3745651  49.5360146  41.4667587  58.2936172  48.6400299
  41.3508759  57.5351486  49.9447479  75.5278397   6.7097111  12.4614620
  75.1544189   7.2576661  11.7711487  76.0295029   6.0427184  11.9927559
  60.9282761  52.8954506  28.8455849  61.8692055  52.9153137  28.6709728
  60.7724571  52.0285301  29.2202873  65.2350388  22.8290577  71.3056564
  65.3842773  23.3425426  72.0995636  65.2775574  21.9185238  71.5978012
   8.8094940  68.4428940  49.7186928   7.9603434  68.0589371  49.9372063
   8.9287910  69.1420059  50.3615379  78.0113983  52.6722679  70.4785614
  78.2517014  53.1468544  69.6827927  78.5210037  51.8630180  70.4379272
  70.0730286  34.4012871  68.4724884  69.8810806  33.5528107  68.8718262
  71.0081100  34.3651733  68.2711105  57.1255226   3.3117058  65.0239029
  57.7624702   3.7177505  64.4359741  57.5191727   2.4718235  65.2602692
  48.3525352  33.7622147  38.7064896  47.9183006  33.2048912  38.0606880
  49.2615471  33.4623337  38.7090683  23.6308880  22.1435547  11.6600819
  24.0382729  22.6258240  10.9405775  23.7063732  22.7288132  12.4137440
  74.6790848  14.9094429  11.1528835  74.7459641  14.2168903  11.8102493
  75.3477707  15.5456982  11.4064074  83.4439316  62.9712524  66.2024689
  83.7441940  63.8510704  66.4305038  83.5717697  62.9124374  65.2556686
  51.0110016  62.2603989  83.6491089  51.6438637  61.7409782  83.1532059
  50.2052460  61.7443123  83.6236877  45.7313232   0.2719672  71.1171570
  45.4641342   1.1221012  71.4666061  46.1301689  -0.1783943  71.8616943
  78.1876907  19.1492901  41.4134979  77.6459656  19.9029865  41.1795998
  78.8789902  19.1365623  40.7515564  19.2005882  65.0209808  62.3526764
  18.4436932  64.5658493  61.9836235  19.9566364  64.5944138  61.9493561
   1.3587970  42.2504501  62.3087730   0.8698658  42.4199295  63.1140404
   1.7475065  43.0953369  62.0822678  51.7023430  45.1007729  62.0383835
  51.2517509  44.2724876  62.2031250  52.0676994  45.0038986  61.1589737
  28.3503590  40.8776703   3.7926614  28.6866112  41.0965805   4.6617098
  29.0013523  40.2781258   3.4279943  38.1399193  68.6971664  67.6092834
  38.0042419  67.7525558  67.6837082  38.0660248  69.0212021  68.5069275
  54.8127403  41.6182251  32.1528702  55.4897308  41.0601234  32.5355415
  54.0222130  41.4120979  32.6516800  52.1033859  28.2027111  28.1355572
  52.0284348  29.1463757  27.9937305  51.5016747  28.0204506  28.8573284
  74.2786331  40.7695122  31.6149445  74.2934189  39.9048309  31.2046547
  75.1863174  41.0703888  31.5723324  44.6598396  16.2984905  61.0235405
  44.5426407  16.2320023  60.0758743  45.0995102  17.1389599  61.1521225
  24.0583744  61.8915062  12.5248270  24.1829319  61.2409363  13.2158222
  24.9000492  61.9219360  12.0699749  20.3049908  49.6178360  80.7870331
  20.3466816  49.1556740  81.6242294  19.9103642  50.4635696  80.9997177
  30.6695652  49.0616188  80.7812347  29.7305508  48.9496918  80.6330566
  30.8294392  49.9903908  80.6137238  13.2061262  56.5521011  12.6729717
  13.8896227  56.6342964  12.0079088  13.4807215  57.1442757  13.3730850
  37.2183876  53.9797783   3.9415355  37.4915695  54.0501633   4.8562207
  36.9958687  54.8756828   3.6884108  47.0023117  54.8180084  30.4769821
  47.6483803  54.5560799  29.8210716  46.2667122  55.1567230  29.9666882
  22.6644001  49.1801376   0.3159888  23.5709133  48.9258537   0.4886325
  22.6802387  49.5346222  -0.5730123  31.9638691  56.9404221  17.4943638
  32.8479576  57.0030594  17.1328449  32.0978622  56.7681541  18.4263515
  27.5747032  29.3035698  61.4761276  27.9560471  29.1096535  60.6198540
  27.6279716  28.4764309  61.9549103  19.4176044  69.2623901  79.4843369
  20.2254257  69.7741470  79.5262527  19.5263824  68.7058563  78.7131882
  14.6027632  54.8577118  44.8609848  14.4335737  54.4427681  45.7068176
  14.0969305  54.3398743  44.2347221  81.2746353  67.7713699  23.6606178
  80.3946228  67.4101639  23.7671337  81.2693253  68.5731812  24.1834087
  18.2107716  16.3448143  13.3437939  18.6592388  15.7067709  12.7888060
  18.3601093  16.0327759  14.2362967  16.7884502  40.4587021  66.4909515
  17.5790787  40.9900780  66.5846558  16.9371815  39.9460754  65.6963882
  59.8876305  11.7737532  67.9297867  59.1648788  11.4884377  67.3708038
  60.6258888  11.2247458  67.6655960  66.9956818  32.3257141  64.9746857
  67.5249863  32.8436432  65.5811691  67.6260605  31.9766979  64.3445663
  83.4088135  18.4392662  41.2499504  83.7965927  19.3002186  41.4068604
  82.4698105  18.5722771  41.3796310  21.7418308  57.4674301  38.2295990
  21.3353176  57.4272881  37.3639374  21.2321510  56.8567772  38.7621002
  49.7727890  17.8694248  10.1664066  50.0623894  18.7448330  10.4233580
  49.1381836  18.0229282   9.4664478  86.4607849  61.7353172  15.8188515
  86.8764038  62.5719872  15.6103506  85.9423752  61.9143219  16.6033478
  38.6834106  60.8917465  87.1631927  39.6135216  60.6666145  87.1840973
  38.4146957  60.7161674  86.2614212  36.8587112  38.6391640  30.2063007
  37.0521240  38.4068871  29.2980747  37.1687317  37.8907242  30.7161598
  36.1885300   4.7866683  59.0814743  35.7817879   4.1267776  59.6430206
  36.5012779   4.2950611  58.3220367  21.4457512  61.9718513  21.5643063
  21.4117279  62.7845726  22.0688477  22.3194466  61.9690704  21.1733055
  15.0711679  41.1010666  28.7820320  14.1825533  40.7559357  28.8685169
  15.0624905  41.9142075  29.2869682  19.1391869  42.7033081   6.7970695
  19.9275532  42.2032433   6.5857821  19.4673882  43.5231667   7.1663246
  46.7235146  65.4130478  54.4546585  47.2168579  64.9458542  55.1288757
  46.8159218  66.3369598  54.6872215  61.1327019  33.3526039  56.9700317
  61.4901772  33.4551392  57.8520355  61.1920700  32.4133759  56.7952232
  57.4460449  49.1285248  62.2848015  56.6776085  49.6989326  62.3040504
  57.3974304  48.6335106  63.1026192  76.1603165  55.2586594  29.8808117
  76.0165863  56.1851044  29.6877460  76.7161713  54.9484596  29.1659489
  25.8399677  62.9300880  17.5129261  25.2987900  62.7296486  16.7492638
  26.6983986  63.1454163  17.1482830  58.5296936  25.1743431  87.2188034
  57.7220497  25.2745342  87.7227020  58.8822670  24.3290462  87.4970093
   2.1443222  19.6813507  27.5016804   2.2711732  20.1445599  28.3296776
   1.4819262  20.1946659  27.0391102  60.9029808  68.3311310  26.4469814
  61.3436661  67.8419418  27.1417618  60.9687691  67.7658920  25.6772976
  17.1489735  -0.1624345  63.9884300  16.5142689  -0.1869525  64.7045212
  17.5116615   0.7228280  64.0200500   8.6270733  51.8970642  21.7953281
   9.3923054  51.3600426  22.0009041   8.8086500  52.7410164  22.2088566
  21.1590538  42.5134392  43.6192207  20.8206997  43.3824692  43.4034996
  20.4246349  42.0687370  44.0424271  38.9049683  26.2233391  17.6164246
  38.0812073  25.9608307  17.2056446  38.6391144  26.7129269  18.3947926
  21.0508289  37.7241058  69.7813339  20.8429794  38.5403404  69.3265839
  21.5185680  37.2000618  69.1310806  46.6723442   4.4178815  43.3483543
  46.7593346   5.2335148  43.8417168  46.6193314   4.6956110  42.4338684
  73.1489258  24.1341686  20.5764256  73.2640991  23.6983223  19.7320271
  73.5357437  23.5316410  21.2116947  28.0728207  41.2486458  64.3454590
  28.2791576  40.7439919  65.1322098  27.2589016  40.8636589  64.0205688
  40.4240456   7.4929209  16.0534382  40.3287811   6.9751787  16.8528748
  39.7682686   8.1851864  16.1368465  36.7947159  46.4079742  37.2412872
  36.8572464  45.4541588  37.2918968  37.0100479  46.6141891  36.3317070
  66.8090591  44.2550774  14.7416315  66.2153473  44.7935333  14.2183685
  67.5096970  44.0132408  14.1359463  84.0808945  67.1496124   5.2702389
  83.6734924  67.2328644   4.4080791  83.7018585  67.8626862   5.7841249
  16.9227486  13.6552725  75.9412537  16.0144844  13.6684065  76.2431107
  16.8604336  13.4830065  75.0017471  27.5248661  59.2346153  37.7116432
  27.1734066  59.0619659  38.5850868  28.4680386  59.0984802  37.8017693
  82.5105972  33.7416687  50.6169930  82.9424133  34.0993919  49.8412323
  82.9861298  34.1250000  51.3539848  67.0373077  66.7975922  42.2485008
  67.7279358  66.6406708  41.6045761  66.7894592  65.9241180  42.5515747
  40.7243843  59.1189194  82.2995758  41.4514618  59.6797981  82.5697632
  40.4944801  58.6281204  83.0885544  37.2759895   7.5794520  63.6098137
  37.5393639   8.3519096  63.1096344  36.5184517   7.2347832  63.1369858
  15.8692093  45.4137115  38.3750572  16.3440876  46.0815926  38.8696861
  16.4593391  44.6601753  38.3624687  20.6481152  34.6710320  64.3735657
  19.9725018  34.7846107  65.0420532  20.3291321  33.9500504  63.8307304
  50.5994110  41.4394379  57.9476662  51.0263748  41.0386887  57.1904755
  49.8424416  41.8968010  57.5815430   0.9567553  41.5514221  14.8723888
   0.8669598  40.7645531  15.4099789   1.5325183  41.2869034  14.1549225
  25.2835503  31.5189667  12.6038418  24.4753113  31.0741272  12.8589878
  25.2549725  31.5375977  11.6472502  31.8471298  56.2160263   2.7982643
  31.7458248  56.2055931   1.8464975  31.8946609  57.1450386   3.0238996
  38.9247742  56.4804726  73.0088730  39.8517265  56.3342018  72.8201981
  38.4879990  55.6904297  72.6906052   8.1538153  58.9566460  47.7718391
   8.0509644  59.9037361  47.6786957   8.4595938  58.6633720  46.9135170
  86.0357132  69.1390076  42.5365562  86.0613403  69.3081055  41.5947609
  86.3768997  69.9405746  42.9331894  67.0890350  35.4385147   8.7082157
  66.8496628  35.7602654   7.8390727  67.4731369  34.5766792   8.5471621
  44.6730003  66.6793518  79.1867371  45.1907349  66.8839417  78.4080658
  44.2887878  65.8226318  79.0006027   7.0441318  38.6445045  31.0923176
   6.5355229  38.9510460  31.8430386   7.1519156  37.7054672  31.2433910
  77.3741989  65.6551819  73.5138855  76.7750931  65.7866821  74.2487411
  77.0516052  64.8651505  73.0802765  51.2164803  27.5216198  78.0777893
  52.1487083  27.7381344  78.0954208  50.8316498  28.0635815  78.7665634
  65.7078629  25.2825966  79.4749069  65.9089279  24.4488850  79.0497818
  65.5724869  25.8940601  78.7510147  78.5539017  37.4041786  87.0331039
  77.7649994  37.9442444  87.0799484  78.3122711  36.5886307  87.4721146
  69.5539322   8.7754326  35.9602432  69.5148087   9.1488657  35.0797615
  70.2473297   8.1174212  35.9107399  56.0219688  65.5166168  69.7910309
  56.7511101  65.4911499  70.4106598  55.2392426  65.4739151  70.3403473
  41.9794350  58.8496971  44.0967903  42.6354828  59.3932686  44.5330963
  41.7367249  58.1951752  44.7517128  45.9572296  29.3916798   5.2322779
  45.4012489  29.4345207   6.0102782  45.9806442  28.4620209   5.0055242
  14.3929501  26.4671326  56.5823860  13.5380001  26.0659351  56.7383690
  15.0062790  25.9240742  57.0775108  78.3650360  29.2530956  17.7846451
  79.0139008  29.6065636  18.3931427  77.9360428  28.5506992  18.2733479
   2.1281672  46.3554344  12.9200802   2.9513693  46.5735359  12.4830418
   2.3318093  46.4069557  13.8539467   3.3479393   9.5084677  15.2346153
   3.1771753   8.5668650  15.2132778   2.7566099   9.8439169  15.9084368
  82.3795013  54.5052757  38.6669312  82.6695404  54.1209221  37.8396568
  83.1190491  54.3799400  39.2615700  16.2799911  36.3676071  38.2708435
  16.3262806  37.0562668  37.6076393  15.4243364  35.9608231  38.1344109
  84.3316193  26.4978561  65.4786148  84.4214401  26.5802231  66.4280243
  84.9723511  25.8299656  65.2344589  63.2198029   4.5335026  70.4327545
  63.9438019   5.0242481  70.8216324  63.6123276   4.0768681  69.6886826
   5.7662292  58.8264618  16.6751289   6.1605101  59.3403320  15.9703531
   6.3430295  58.0685425  16.7704906  70.8671265   3.7898605  87.1885986
  70.8723297   4.2693424  86.3601685  71.3838959   4.3335242  87.7832489
  70.8346863  40.3877983  12.8786707  71.2015915  41.2621574  13.0094662
  71.5487442  39.8844757  12.4874840  28.9761448  28.8686638   4.5369930
  29.3462334  29.3235035   5.2935548  28.9423466  27.9497681   4.8029304
  50.1265869  45.3252449  52.1953392  50.4104691  44.5365791  52.6575584
  49.1900558  45.1927299  52.0484314  26.8941116  35.1718369  16.0516930
  26.6774807  35.9296341  15.5085106  26.6668987  34.4160728  15.5100060
  70.5256577  21.7568302  82.8027344  70.2604828  21.1541042  82.1080170
  70.6728363  22.5895004  82.3541489   2.1578288   6.7632909  49.4224586
   2.6511199   7.5310755  49.7112541   1.8200448   7.0059862  48.5603485
  37.9680061   3.6089976  86.5332870  38.0273056   2.9088676  85.8832626
  37.0411110   3.8476915  86.5443344  23.8904572  62.2505913  15.7912092
  24.3223877  61.6354599  15.1985207  23.2257824  62.6774445  15.2506180
  68.8139343  43.8672523  80.0027924  68.9598618  44.5346832  79.3323669
  69.6932678  43.6084442  80.2785110  29.4371166  51.9801102  86.9193802
  29.8112469  51.6661682  86.0961609  28.5875473  52.3454628  86.6724396
  56.7133751  29.8690815  17.1963787  56.7413216  29.1381664  16.5789528
  56.3282089  30.5894699  16.6974583  80.6918945   7.9110975  77.3484192
  81.4018478   7.7646999  76.7233047  79.8996429   7.9277730  76.8115005
  22.3043041  56.7770576  17.6536522  21.7164097  57.4700890  17.3531170
  23.1824913  57.1357651  17.5257931  82.2249908  12.4035025  65.8843384
  81.9107132  13.3039761  65.8030624  81.4290924  11.8790617  65.9723282
  53.4710083  53.7459488  19.9752045  54.3047371  53.9688339  19.5611439
  53.2680435  52.8694572  19.6484013  10.1444645  60.9583588  26.6219559
  10.1290741  61.1498566  25.6842327   9.4606390  60.2996254  26.7431412
  29.3680420  55.4441681  85.6108627  28.7609825  54.7214203  85.7700424
  28.8200703  56.2283974  85.6415787  25.6133003  28.5323391  72.3374710
  24.8942986  28.6046333  71.7097397  25.6615791  29.3962154  72.7468796
  39.0449600  10.7763424   0.8236499  38.3702850  10.8968391   0.1554241
  39.7802238  10.3831921   0.3534856   1.4455607  59.4460106  41.7994461
   1.4186912  58.8417740  42.5413437   0.5382393  59.7303085  41.6891136
  85.6551132  17.6180859  60.2116966  86.3196259  17.0397549  59.8372726
  84.8258820  17.2816486  59.8719673  68.2456512  52.9983406  73.1945496
  68.4283447  52.0599670  73.2426376  67.3755493  53.0530052  72.7993774
  63.5845108  64.5801468  79.4415436  63.8765564  65.2767181  78.8535614
  62.6299171  64.5926208  79.3720856  56.1560783  49.1196136  55.7513237
  55.3332710  48.7972069  55.3835258  56.7738533  48.3996849  55.6236992
  82.4603806  17.0958672  37.6120300  82.3928680  18.0506573  37.6050720
  81.6303864  16.7997856  37.9857712  81.2943878  51.5781403  80.7111435
  81.4428253  52.4627075  80.3768692  80.9297638  51.7108192  81.5861740
   8.3112154  62.4214363  43.1297493   8.8020735  61.8342361  42.5548706
   8.4611120  63.2938194  42.7654533  59.7748833  63.1443787  66.5195694
  59.1875648  63.6190948  65.9314117  59.3012581  62.3405571  66.7335358
  62.0004959  28.8248844  33.3227196  61.3009682  28.8793507  32.6716194
  61.6652412  28.2199039  33.9844131  23.1979389  13.1594877  13.1499977
  22.3615971  13.6229486  13.1943283  22.9565182  12.2359905  13.0785780
  20.4184418  64.4450378  81.8315277  19.6536846  64.1009674  82.2930374
  21.0909805  64.5239716  82.5080566  84.5451050  64.5186462  61.5806694
  84.1716309  65.3357544  61.9109268  85.0362167  64.7776794  60.8009605
  20.4392033  62.6680527  76.2006989  20.3513050  63.6211357  76.1889420
  21.3743515  62.5154266  76.3364792  42.8318214  53.2984695  17.2741108
  42.7861710  53.3843498  16.3218651  43.2579231  54.1039734  17.5670872
  74.6208267  66.6902847  14.0221672  74.7204971  67.1062927  14.8784561
  74.0419006  65.9453201  14.1837444  79.7442093  58.5177994  68.2430496
  80.6540298  58.7338982  68.4473953  79.2285995  59.1074982  68.7931671
   9.5999622  52.2370949  31.7931309  10.4974289  52.1779404  32.1206779
   9.6185102  51.7697525  30.9579773  37.8562965  67.3203812  25.1401882
  37.1279411  66.6996002  25.1592255  37.4384537  68.1773376  25.0549698
  33.8521271  31.1960011  67.3522491  33.0095863  30.9598675  67.7403183
  33.8015633  30.8703747  66.4535599  30.7239876  35.3858109  47.8681793
  31.3642311  35.2915192  48.5734673  29.8856659  35.4906120  48.3181381
  68.6599121  62.9639778  14.0549974  69.4486465  62.4229736  14.0169859
  68.4592514  63.1595039  13.1397190  63.1063843  55.9574928  26.2319775
  62.6188698  56.6355438  26.6997471  63.8252983  56.4276314  25.8096428
  71.0692825  36.3158035  35.9987297  70.2197800  36.7062225  35.7934303
  71.1890640  35.6389313  35.3326035  40.5547371  26.0657368   6.1589360
  40.3009720  26.6014633   6.9104900  40.8551750  26.6971397   5.5052528
  17.4871922  35.2062759  75.7164841  17.3637733  36.1553078  75.7350235
  16.6129055  34.8480110  75.8697815  67.1765671   2.0818508  44.0162888
  67.6898499   2.8880179  43.9627724  67.4033966   1.6002362  43.2207832
   5.2184939  68.2084732  29.0866470   5.2154450  67.8344345  29.9677334
   5.3896370  67.4633331  28.5107079  84.3125381   5.3364048  66.0067139
  84.7515869   6.1602097  66.2184143  83.5441971   5.3209572  66.5773621
  27.4714699  46.0799675  11.8684893  27.7677612  46.9881248  11.8077164
  27.7301998  45.6873169  11.0347538  55.9948425  29.6549721   4.1553154
  55.1951065  29.5206585   3.6467738  55.8112030  29.2485580   5.0022712
  60.2467575   8.2982273  70.1945496  60.2533188   7.3544345  70.3540573
  60.5627594   8.6816168  71.0127106  15.2894697  69.8396835  62.7401199
  15.4898500  68.9647446  63.0726357  15.9485626  70.4054794  63.1422386
  30.3639488  44.9622993  87.3545532  31.0714436  44.4012337  87.0369263
  29.6428127  44.3593292  87.5351639   5.0702987  67.6058502  87.9256210
   4.1715693  67.2991714  87.8053513   5.1501002  67.7497559  88.8685760
  40.4500046  32.4280930  74.9253387  40.8094063  32.6496620  75.7843857
  39.6760216  32.9845886  74.8387375  10.9565125  11.3765392  77.3394928
  10.4903011  11.7969217  78.0620956  10.6034994  11.7920399  76.5527420
  17.1632614   0.5152173  24.9335213  18.1028976   0.3686331  24.8247585
  16.9936752   0.3099482  25.8529434  84.0354614  64.5131760  57.2060738
  84.4953613  64.5643005  58.0439911  84.4889984  63.8204422  56.7258034
   5.0198765  68.8008041  20.6792049   5.0871916  69.6725311  21.0688171
   5.2628026  68.9288788  19.7622452  42.8115654  61.8849831   8.7040148
  43.5344009  61.7744102   9.3216848  42.3510094  61.0460472   8.7216358
  64.7920914  47.1123390  64.7675247  65.0980606  46.5283432  65.4614716
  65.3899155  46.9508247  64.0376282  50.6859589  11.5433435  65.2300415
  50.5462532  11.7933216  64.3166809  50.5675468  12.3561010  65.7216110
  47.3414993  43.3085938  29.3365135  46.8764839  42.4781456  29.4382439
  48.0195427  43.1253204  28.6862068  50.3871155  52.8431511   4.5517693
  49.6987419  52.4724655   5.1040010  49.9170303  53.2519302   3.8250303
  22.8611984  42.6569901  28.8375702  22.9283199  42.0503235  29.5749207
  22.0210190  43.0974083  28.9654884  63.2958717  65.0969238  49.4731827
  62.4712868  65.3880386  49.8624725  63.6596832  65.8834686  49.0667076
  39.9301605  32.3043404  14.6694021  39.3386726  32.1648331  13.9298658
  40.6645012  31.7131672  14.5035982  35.8584137  50.2668076   0.5044211
  35.3272400  50.2575264   1.3006626  35.3938065  49.6881790  -0.1001937
  86.0763016  34.2882881  78.1798706  86.6136932  34.6891937  77.4967041
  86.6289291  33.5969849  78.5444794  17.4372921  40.9821930  88.6249924
  17.6380672  41.7599106  88.1043472  17.4672508  40.2597656  87.9977493
  49.0045090  67.7934723   5.5576262  49.1136627  67.8710022   6.5054169
  48.0754623  67.9690323   5.4083681  56.9474678   0.5211232  34.2989311
  56.0928040   0.6187219  33.8791046  56.7786674   0.6850464  35.2267609
  65.8862534  59.4730835  76.2501602  66.0851898  59.8987160  77.0841217
  65.6469803  60.1921082  75.6653671  82.8797989  68.1077957  49.7188072
  83.5182419  67.5216751  49.3125114  82.3342056  68.4084320  48.9920464
  68.8178024  31.0316963  15.8511734  69.2737350  30.7426338  15.0607281
  67.9806213  30.5682144  15.8278217  55.7780266  32.7564392  56.8457375
  56.6441345  33.0359497  57.1423264  55.1743202  33.3821983  57.2459793
  55.5926552  54.4243927  62.1971092  55.4715538  53.4960022  61.9979706
  56.5349655  54.5674019  62.1086082  11.7715530  27.8195229  81.7718201
  11.0566568  28.1017056  82.3423691  11.3680029  27.1874409  81.1769638
  26.7173328  61.9445419  74.8190536  26.5193539  62.8341217  75.1117859
  27.5003185  61.6989250  75.3118439  13.0407171   9.9501295  20.8998470
  12.1791077  10.3647079  20.9444218  12.8599949   9.0132866  20.9766331
  49.6524849  42.0350037  16.5177174  48.9154205  41.5325699  16.8648968
  50.2192650  41.3792191  16.1115971  30.1180420  38.1253014  46.2005310
  29.9432697  37.1953392  46.0561066  30.9734421  38.1444244  46.6296654
  28.7657337  18.4783134   8.2152576  28.4296246  17.6190777   7.9603586
  29.6718502  18.3133411   8.4759722  69.2825470   0.3143747  63.3379669
  70.1973648   0.4242123  63.0785751  69.3144684   0.2059056  64.2884674
  37.9109573  33.3088379  25.3187923  37.2135162  32.7533150  24.9706554
  38.6925583  32.7569046  25.2922268  66.3821716   6.3235970  42.9217262
  66.7346878   6.8745117  42.2228317  65.7450256   5.7593756  42.4836311
   1.2190275  37.9943199  24.8649254   0.4533941  37.7228127  25.3712063
   1.9247777  38.0498886  25.5091763   3.0507672  38.0044136  26.9700394
   3.8907826  37.5498047  26.9072704   3.2683377  38.9280701  26.8445454
  18.6610184  29.5084324  63.1518097  18.4826279  29.7123566  64.0698624
  17.7955208  29.3938122  62.7593651  23.7264805  65.3626251  70.0774689
  24.0649586  64.4829407  69.9106750  23.9262238  65.5252991  70.9993591
  18.4777699  64.4272003  13.4772377  18.6418362  64.8405609  12.6296253
  18.3430309  65.1594925  14.0787573   5.2167664  54.3173027  61.9853401
   5.3428373  54.2441978  61.0392990   6.0551944  54.0476456  62.3602448
   7.7804480  19.9478321  70.8159561   8.3984728  19.3645210  70.3754730
   7.3012419  20.3710766  70.1035995  76.7522659  52.3446312  36.3129654
  76.1370773  51.6113358  36.3203163  76.3823700  52.9612617  35.6811638
  45.7100067  69.1455994  21.4415131  46.5310059  68.7841721  21.1074905
  45.9767456  69.8989334  21.9683590  59.4009399  67.6914062  14.2865334
  59.9008255  66.8864517  14.4221878  58.6360741  67.4160614  13.7811632
  37.1753349  41.8585739  36.2349243  37.8183937  41.3339157  35.7580185
  36.6164818  42.2307091  35.5527000  38.7207832   2.1446395  68.6737595
  39.1821594   2.6710463  68.0208740  37.9483490   1.8158087  68.2139206
  31.1255646  45.5169983   8.1263027  32.0682983  45.6651001   8.0518064
  30.7663536  45.8398628   7.2998900  27.5220432  61.9466820  54.7756348
  27.5606308  60.9977455  54.8950653  27.5121613  62.0683899  53.8262558
  31.2855415  15.6977482   2.1259890  32.1057968  15.9810362   2.5299206
  31.0631065  16.4015331   1.5165286  76.5074844  11.3401098  85.4055634
  76.9731750  10.8665094  84.7163086  77.0527954  12.1073351  85.5794373
  62.8473053  42.2958527  34.5699692  63.5158463  42.9806595  34.5519600
  63.3369293  41.4802780  34.4635201   0.4056174  17.2514896  86.5085068
  -0.3552106  16.7761574  86.1746902   0.9198695  16.5878334  86.9682236
  60.4288902  11.1939669  11.7182341  60.8857231  10.3922186  11.4638052
  59.6109772  10.8891926  12.1111269   8.0616655  15.9415455  80.4197235
   8.2882166  15.8091707  79.4991913   7.3062472  15.3718681  80.5647812
  64.7042313  36.1138420  20.9288692  64.6245422  35.1849251  21.1456470
  65.4483490  36.4180641  21.4484520  11.0452461  69.2649612  75.4570923
  11.0912704  68.7488556  74.6522598  11.8850498  69.1098709  75.8894272
  61.9141579  69.9985580  52.0047913  61.8805847  69.1319733  52.4099236
  61.0126152  70.3174973  52.0464134  57.4836617  19.4052773  36.2802811
  56.9307365  20.1845074  36.3377342  58.1675301  19.5480785  36.9346275
  65.5004578  64.4475403  20.3240681  65.3957825  63.8525276  19.5816193
  64.7341461  64.2822876  20.8733349  57.8669662  54.2252808  11.0782013
  58.4385605  54.7201996  11.6652012  57.7862663  53.3655052  11.4911232
  36.8826599  18.6227741  88.2247696  37.0195541  19.5336094  88.4852905
  36.4547615  18.2193623  88.9800110  66.2143021  37.7481804   9.7629271
  65.2635422  37.6381874   9.7767477  66.5513535  36.8877144   9.5134926
  25.4323692  47.7055397  63.9103622  24.7270451  48.0439987  64.4618988
  25.1293621  47.8559074  63.0149231  86.0153046  25.9594135  53.8859787
  86.1454697  25.4436073  53.0902214  85.3743057  26.6254597  53.6375008
  73.2190933  62.4333153   9.7239161  73.8325729  63.0588150   9.3383875
  72.8660278  62.8853836  10.4902115   3.4558408  63.2003860  85.4754257
   3.2203004  62.3580704  85.0865173   3.0764017  63.8512802  84.8850098
   3.9274399  46.5233307  42.5963821   3.7924790  46.2343063  41.6938934
   4.6863446  47.1048889  42.5506783  27.8432331  52.1081772  67.5029526
  28.2042274  51.9569778  68.3764877  27.1005688  51.5072327  67.4433975
  16.8495560  12.5900707  79.0649567  16.9278202  12.9145489  79.9620743
  17.3165474  13.2360668  78.5350113  28.1288853  61.2444000  85.7628784
  27.5273552  60.7226601  85.2316742  27.8962193  61.0318298  86.6667175
  59.6042328  39.0329247  57.9722672  59.8927879  38.6709518  57.1344490
  58.9573059  38.4052162  58.2942924  23.3514366  42.9091454  77.3984680
  23.5659180  43.6686440  76.8568115  23.5716038  42.1550636  76.8515472
  49.0571098  47.3141708  54.3431129  49.6371384  47.0214462  55.0460434
  49.6479721  47.6523285  53.6702309  51.6827583  69.2787857  52.9043427
  50.8574791  69.5404053  52.4960556  52.3566513  69.7162399  52.3840179
  51.7542114  50.1208725  53.3529739  51.2086678  49.5669937  52.7945518
  51.3735619  50.9950447  53.2683296   7.0993557  54.8991432  59.1407433
   6.4126630  54.2323532  59.1495094   7.2229047  55.1035500  58.2138214
  22.0017529  63.4561386  42.9673424  22.1581345  64.2203369  43.5221214
  22.8100891  62.9470215  43.0275383  30.8933849  42.4808731  37.1646347
  30.5513268  42.7654076  36.3171310  30.4160690  41.6737366  37.3568153
  85.3737259  58.2854843  33.5272598  85.1984711  58.4895630  34.4458847
  86.3125381  58.1011009  33.4977570  32.7937241  38.1783028  47.2055054
  33.1282196  39.0691223  47.1016350  32.4462471  38.1553802  48.0971146
  64.1651535  48.8844643  87.6554565  64.1381226  49.3497772  88.4915085
  64.7691040  49.3952942  87.1164474  61.1903839  30.7674198  55.6906052
  60.8850784  30.7908306  54.7837029  60.4659004  30.3741760  56.1771393
  18.4022827  40.5169678   3.8444207  19.1133137  40.2132187   3.2801523
  17.9741077  39.7146568   4.1430721  10.9014835  53.8704033  83.5533600
  10.1577435  53.4371338  83.9721222  11.2367945  54.4690247  84.2207870
  14.3152208  68.8809433  73.7391586  13.4826784  68.5842209  73.3716507
  14.6612244  68.1151276  74.1974640  75.1896362  58.8442497  35.9701462
  74.6093140  58.0863686  36.0413704  75.7850571  58.6235161  35.2539139
  56.5925331  49.3928528  71.7093048  56.3352776  49.0329056  70.8604889
  56.6035233  50.3404121  71.5742416  53.0935478  63.5189934  74.5664597
  53.4805527  64.3554459  74.3079987  52.6940994  63.6930733  75.4187317
  72.0168610  41.2221413  21.0293522  72.8974915  40.9010162  20.8354301
  72.0028610  41.3229179  21.9811287   8.4492960  47.3795128  52.8748589
   8.3480597  48.1461411  53.4390106   9.3158588  47.4840317  52.4819527
  66.0663757  48.5735626  35.9626274  65.8097458  48.2606697  36.8300781
  65.2950134  48.4236221  35.4160461   0.4706497  49.3979073  29.1961174
  -0.1540033  49.5940628  28.4978600   1.2766731  49.1616898  28.7370300
  17.7101154  58.4595413  33.7626381  17.9756355  59.2898445  34.1580200
  18.1616459  58.4408417  32.9188385  65.7396088   4.9386535  10.5243702
  66.2270432   4.7444491  11.3249464  66.3328857   4.6884704   9.8160887
  68.9805603  50.3217201  27.9061890  68.2694397  50.1372528  27.2925816
  69.6489258  49.6676903  27.7018490  59.5408211   1.2123610   8.9781418
  60.2685051   0.6495487   9.2426147  59.5064468   1.8917248   9.6515770
  85.9493332  19.3733234  12.0433178  86.6880417  19.5581112  12.6233168
  86.2266998  19.7046738  11.1892071  67.3755798   4.2606711  26.2977448
  66.6194992   3.9369514  26.7874203  67.0029526   4.8574820  25.6487484
  22.8751316   5.9638638  59.2793732  23.1692162   6.7987189  59.6437378
  21.9196224   6.0171051  59.2993851  12.3628397  52.4846306  71.8563309
  13.3008118  52.5185089  71.6684723  12.3044691  52.5956116  72.8052826
  40.9871140  37.7828102  10.4663496  41.4900017  36.9803543  10.6056366
  40.3820839  37.5662117   9.7569456   3.6313055  51.4991379  53.5416260
   2.6746781  51.5093613  53.5101357   3.8424790  50.8257217  54.1882668
  39.9041901   1.2441609   4.7967720  39.3717690   0.6463556   4.2719941
  39.5558395   2.1131010   4.5972047  50.6296082  35.9393806   5.5666671
  51.3180923  35.6741791   4.9568391  50.6240921  35.2537231   6.2345576
  37.6144218  49.7935524  72.5447311  37.4986916  50.7344208  72.6774139
  36.8131294  49.5137291  72.1021652  13.0276165  45.0342598  74.2708435
  13.8266993  44.5073967  74.2814178  12.8554106  45.2267113  75.1925507
   1.2077636  30.3787327  21.8474922   1.1450157  29.5211067  22.2679348
   2.1344366  30.6097660  21.9117737   3.9275620  45.5849800  64.6270294
   4.7673182  45.2561607  64.9478378   3.9355366  46.5166550  64.8464584
   4.6964531  23.3535385  86.0504837   4.0195284  23.7849274  86.5719299
   4.2110562  22.8015575  85.4373398  73.7467499  63.5709190  82.8336792
  74.3828278  63.0629845  82.3300552  72.9097443  63.4036789  82.4004440
  66.8917465   9.7740927  77.0596619  67.8330078   9.9360743  76.9963379
  66.8241653   8.8626003  77.3439941   6.9494653  55.2518463  83.5651016
   6.8517790  55.9264717  84.2370911   7.5029058  54.5858498  83.9729996
  64.1973190  17.6003551  57.3274727  64.9890137  17.7532711  57.8432846
  63.6941452  16.9695015  57.8423271  22.0564404  65.5995941   8.6071539
  22.0757084  64.6990280   8.2833652  22.8577023  65.9948196   8.2636328
  40.1637268  21.1918411  37.5976562  40.3476028  21.2720737  36.6617165
  40.2909813  20.2624149  37.7879372  34.2779350  39.5466614  22.1607895
  34.2477303  40.3738327  22.6415291  35.0848656  39.5967827  21.6483631
  71.2653961  60.5371895  62.1653137  70.5221939  61.1070557  61.9674911
  71.5893860  60.8505516  63.0097504  39.8525887  48.1133156  45.2379799
  39.2570419  47.3815956  45.3996429  40.6317558  47.7083092  44.8570595
  52.9199677   8.2181664  87.6481247  52.9689445   8.4288282  88.5805664
  53.0746002   7.2744203  87.6073456  64.3103561  62.3200645  27.6146259
  64.3088837  61.5001488  28.1085587  64.7094650  62.0930061  26.7747517
   9.5492773  59.5713806  73.5767899   9.0345802  59.7519569  72.7902069
  10.2150650  58.9466858  73.2891846  29.8400230   8.1437311  79.4090958
  29.5255680   8.7117252  78.7057266  30.0655193   8.7444887  80.1193619
  71.2301941  54.4657784  50.0740395  71.6873474  54.1491852  49.2949257
  70.3027725  54.3322372  49.8783836  11.1013212  63.5573997  79.5224380
  11.7228155  63.3429718  80.2181396  10.4556122  64.1241608  79.9444275
  12.4527311  69.9299088  41.7073479  12.1852551  70.4531479  40.9517632
  13.3277597  70.2518387  41.9239502  63.5977974  32.6540298  54.8933640
  62.8855705  32.5075760  55.5158691  63.7941055  33.5877953  54.9693642
  45.7988663  22.4242630  53.9402924  45.1546593  22.2962017  53.2439957
  45.4414253  23.1376209  54.4690514  10.6052637  31.9264069   7.2146807
  11.2605410  31.6495094   6.5742350   9.7889757  31.9736900   6.7170167
  57.5886574  21.8403263  53.4236259  58.1708527  21.5772934  52.7108231
  57.4915886  22.7865810  53.3167992  67.6223984  58.1940956  62.1370277
  66.9793091  57.4969368  62.2659988  67.1028137  58.9533539  61.8728371
  48.6012077  68.1370621  60.4734421  48.4791412  69.0806808  60.3689995
  48.1056061  67.9173050  61.2623138  36.0745506  56.8670349  63.5565109
  35.2150497  56.4993896  63.7622452  36.1776161  57.5935974  64.1710968
  54.0387993   3.7822595  83.9968719  54.0925407   2.9072962  83.6124420
  54.0795746   3.6318417  84.9412994  17.6962051  10.2062569  51.5354958
  17.1409473   9.9110451  50.8138504  18.2672157  10.8669786  51.1435432
  44.5621262  47.1706123  66.8623123  44.3380318  48.0021324  67.2801437
  43.7292900  46.7033615  66.7968216  31.4026890  45.2870178  25.8806763
  30.5730286  45.6474724  26.1936703  31.1541328  44.6961403  25.1698208
  53.2349091  48.5017700  79.0299149  53.4316292  47.6165009  79.3362274
  54.0521469  48.8056870  78.6349640  14.4630356  10.4521856  75.6208649
  13.8116350   9.7802172  75.8217850  14.0857391  11.2619152  75.9646912
  58.3036804  33.6127090  58.1193924  59.2537804  33.7286453  58.1094551
  58.0414238  33.8604317  59.0060081  20.2359028  36.0947380  47.9261398
  20.8551292  35.3648529  47.9183617  19.4614105  35.7470589  48.3683090
  77.8820953   8.1375837  80.1561966  78.0553970   8.7724543  79.4611130
  77.0555115   8.4259205  80.5433044  32.1848907  50.1998558  37.2122765
  33.0666466  49.8698196  37.0395966  32.3246613  51.0231285  37.6801643
  11.9642258  67.0735397  69.1275940  12.6828880  67.7025833  69.0638580
  12.1778316  66.3996582  68.4822388  60.5028915  53.6176109  17.4109764
  60.1954956  54.5176964  17.3033276  59.8951569  53.2307243  18.0412197
  15.9129343  56.2325325  60.3382950  16.0736351  56.1510773  59.3982048
  14.9727430  56.3984947  60.4070663  79.5846176  50.1226501  44.5530968
  79.8806992  49.7390442  45.3785744  78.6327591  50.1734619  44.6403923
  21.1899433  44.1212044  79.8889542  21.5586052  43.7735176  80.7010040
  21.8142166  43.8607407  79.2117004  50.5641060  36.4451294  59.9686394
  50.3817673  37.1070633  59.3016853  49.9556236  35.7329063  59.7718773
  52.3627815  64.8404922  16.1701927  52.3529053  65.1025467  15.2496166
  51.6278572  65.3126831  16.5615368  58.3250771  27.0716572  55.0873909
  57.3785133  27.0463886  55.2274284  58.4385147  27.6292057  54.3176498
  68.3583755  55.6562881  38.1518326  68.4648895  55.4519005  39.0808716
  67.8251495  54.9393463  37.8084679  58.2217293   1.4830871  66.5694351
  57.4593315   1.4967169  67.1480560  58.9065514   1.9321922  67.0649643
   5.7683544  45.3391495  46.0199814   6.5174527  45.7830315  46.4175377
   6.0320311  45.1910667  45.1118088  57.6368713   6.0676174  34.4905090
  57.1220284   6.7018952  34.9893684  57.8798485   5.3993802  35.1313324
  81.5247650   2.0688276  16.6250362  80.6284409   1.7359223  16.6699200
  81.9885483   1.6025757  17.3205566  58.4390984   3.3659487  77.7813034
  58.7974167   3.1062126  76.9325562  59.1628418   3.8129613  78.2201691
  21.5929356  13.6078215  18.6164837  20.9325962  13.8053293  19.2806931
  21.1873722  13.8701973  17.7901001   6.8514290  51.2803688  23.7750778
   7.3965373  51.4174995  23.0002975   6.4304194  50.4339371  23.6249619
  37.6921234  14.1579762   1.1706212  36.8835449  13.7119932   0.9185746
  38.0570183  14.4769592   0.3451915  47.4780464  36.8418198  50.7339020
  48.0072136  37.5358963  51.1269302  47.2066994  36.2991562  51.4742546
  57.0929871  65.0513916  16.8790951  57.8088150  65.6508331  16.6681480
  57.0056458  64.4996948  16.1017761  19.7649860   7.9312806  13.9395113
  20.6956329   7.8941340  14.1602993  19.5290318   7.0246339  13.7431707
  62.9626274  12.3079262  41.4803963  63.4340324  12.0462236  40.6894989
  63.6002083  12.8157148  41.9822693  61.1648750  23.8724384  38.0460701
  60.5021057  24.4821587  38.3704262  61.5437469  23.4877872  38.8364677
  44.9911194   1.8763796  41.8854027  45.3563232   1.4168711  41.1292877
  44.8438530   2.7696624  41.5746117  81.7641525  59.1819267  33.2105598
  81.4039688  58.8780441  34.0437202  81.3712387  58.6053772  32.5552444
  50.3359375  21.6878891  74.7777176  51.0482521  21.1565266  75.1333771
  49.9760513  21.1598759  74.0650330  78.4998779  58.3425217  65.5926590
  79.1317902  58.1613922  66.2884369  78.0486145  59.1363907  65.8796616
  77.9935455  10.2286692  83.5435104  78.8153610   9.7898865  83.3237152
  77.7085876  10.6289368  82.7220383  78.3862762  47.0286789  83.1063995
  78.9930878  46.3734245  83.4508591  78.9461670  47.6582108  82.6520386
  65.6161118  13.8623495  34.4199829  66.4408493  14.3464098  34.3784409
  65.1566391  14.1025190  33.6153488  75.4050446  41.8383827  15.2041512
  75.0933914  42.5221748  14.6112499  76.3588486  41.8760147  15.1328754
  67.3788300  64.4819336  24.1185436  67.2860870  63.8420525  23.4127254
  67.3666611  65.3304520  23.6757088   3.8062716  54.7161255  26.9541531
   4.2805834  55.5464478  26.9114037   3.0400872  54.9055748  27.4957294
  85.1894913  16.6497917  39.8486938  84.4545898  17.2092056  40.1001015
  85.1881256  16.6682758  38.8916740  80.8979111  32.8810043  85.3268967
  81.0159378  33.2502441  86.2020874  80.4115601  32.0695915  85.4728622
  53.3056374  49.9762764  87.5512619  52.4210777  49.8199310  87.8819351
  53.8667068  49.4277153  88.0994492  65.1177139  23.3597813  39.4574013
  64.4521942  23.5747490  40.1109390  65.3667908  24.2045059  39.0823975
  75.1589203  11.9535007  33.6911087  74.9141922  12.8690815  33.8254700
  74.3456955  11.5248938  33.4242783  14.3454790   1.9048556  86.2601929
  14.5832567   1.8921742  87.1873093  14.5581980   2.7920153  85.9704895
  73.3891144   0.9585179   7.3178287  72.4587555   1.0261356   7.5324969
  73.7356720   1.8367963   7.4751725  54.6853180  62.7185707  37.7660561
  54.1527252  62.6656570  38.5596390  54.9820442  63.6281548  37.7369537
  63.1300468  15.4339476  73.4206085  63.0186882  14.6801386  73.9999237
  62.5886421  15.2316751  72.6575928  43.6557045  39.2312164  82.9164810
  44.4170036  38.8061981  83.3114700  44.0155830  39.9929581  82.4620895
  55.1676788  26.3741646  47.8762550  54.3854027  25.9754333  47.4950867
  54.9523430  26.4865150  48.8021278  71.7828751  39.5505981   2.8363335
  71.9525528  38.7121658   2.4068298  70.9211731  39.4433403   3.2390697
  15.5781250  56.5353012   1.4300321  16.1916580  55.9483986   0.9880412
  14.7197762  56.1367149   1.2865100  37.1576118  29.1314888  86.1017532
  36.8492737  29.4854012  85.2675476  36.3575821  28.9095001  86.5781021
  15.7561417  23.7773952  88.0780106  15.3352175  24.5003166  88.5432358
  15.1175671  23.5151825  87.4149094  53.4196091  44.4692917  82.5797729
  52.4685364  44.5133514  82.6785126  53.7619705  44.8966331  83.3648834
  13.6124315  56.5494652  70.7370758  13.9652472  56.3406487  71.6020355
  14.2518034  57.1516914  70.3566132  45.4080620  52.3600883  60.0174866
  45.4102783  53.0119705  59.3165741  46.3341408  52.2060280  60.2042198
  22.6153145  23.9081898  83.6550751  22.6254654  24.1273975  82.7233658
  21.8660278  24.3893585  84.0061874   4.8852811  57.9053917  50.6959305
   4.6310816  57.0345039  51.0011711   5.7563486  57.7821770  50.3187141
  81.9251251  16.0558376  17.7138176  81.9406662  15.9229193  16.7660179
  81.0713272  16.4528351  17.8860264   7.3460746  54.4744949  10.3557453
   6.9620223  55.3465462  10.4466314   8.0524149  54.5889320   9.7199631
   0.7036775  51.0968628  51.1165047   0.5988491  50.4499397  50.4188461
   0.4490037  50.6325951  51.9138908  14.6011620  25.6122093  12.3590918
  15.2894640  25.8684158  12.9729567  13.7901888  25.9119682  12.7698240
  19.7914505   9.7391453  66.9991226  18.8737774  10.0041771  67.0613022
  20.2204933  10.1888971  67.7270508   9.9039021   5.8340507  78.4261627
   9.7701607   6.7200785  78.7627640   9.7345352   5.9065738  77.4868622
  86.1170120   4.3103695  10.9328976  85.5352707   3.5737512  11.1205072
  86.9944153   3.9760809  11.1190367  52.1643372  50.1569557  13.5936079
  51.5936470  50.7060127  13.0559464  53.0508232  50.3946800  13.3218365
  71.1646957  42.3345032  35.9224854  70.6657944  43.1428337  35.8044357
  71.5687943  42.1757088  35.0694199  40.8978577   9.3874035  88.0749817
  41.5177765  10.1160660  88.0436401  41.4484177   8.6072569  88.1419678
  26.0632229  52.0901260   6.3308210  25.3543568  51.4469223   6.3367233
  25.8186703  52.7097740   5.6434627  74.3731842  68.0631866  42.6573029
  75.0014954  68.7815170  42.7311592  74.5432739  67.5163879  43.4243202
  15.7123785  23.0650063  74.9609299  15.3861923  23.8321552  75.4313736
  15.0767822  22.9265175  74.2587433  38.5208015  58.7036438   4.8566327
  38.8899269  59.4721336   5.2918305  38.1579552  59.0429459   4.0384364
   6.0436387  51.4660759  28.7582340   6.6817002  51.6266708  28.0630245
   5.2089405  51.7536507  28.3883533  56.4708633  55.0046806  54.2755661
  55.7094536  54.6709023  54.7499886  56.1017342  55.4474144  53.5113907
  57.2012444  21.4815369  70.7228928  58.0602837  21.0614529  70.6802750
  56.8842964  21.4707832  69.8197556  54.5663109  18.9076672  23.7294426
  54.9593124  19.7715015  23.8542385  54.5676270  18.7786922  22.7809734
  20.4217758  42.3613205  71.5145264  20.9669819  42.5047569  72.2880936
  21.0126343  42.5044746  70.7751846  26.6341400  28.8772793  82.1196289
  26.7113514  28.1086292  81.5544281  26.0048733  28.6175461  82.7925262
  86.2080460  15.0211134  60.6877403  85.7860870  14.6594458  59.9083977
  85.5769501  15.6543407  61.0297508  68.2923813  10.2011766  48.8437729
  68.3098145   9.8339291  47.9599991  69.0935516   9.8757591  49.2542152
   4.7735538  18.9479256   7.6752081   4.4838982  18.0374279   7.6175637
   4.0862789  19.4463539   7.2331061  54.5906296  25.5689964  53.2918549
  54.3818932  26.2975292  52.7071304  53.7460976  25.1549797  53.4695778
  81.9535370  16.7583771  80.7661285  81.0945053  16.3449154  80.6803589
  82.2632370  16.8562012  79.8657150   0.9522766  62.2845840  68.5170746
   1.1052835  62.4064102  67.5800705   0.0004091  62.2251129  68.5985794
  54.7345963  -0.0282724  25.5613651  54.4863930   0.4455684  24.7675762
  55.6794662   0.1060560  25.6349239  60.1818123  40.1439667  28.1482124
  60.4797554  40.6159706  27.3706055  59.3082047  39.8285141  27.9168396
  61.8092384  64.7308884  74.9266891  62.2250137  63.8689995  74.9042358
  62.3643456  65.2791138  74.3721237   6.5824428  30.6384449  68.2061615
   6.1603599  29.7912235  68.3486176   7.4636555  30.4191380  67.9035034
  34.1573677  62.8215904  40.3688889  33.4618530  62.6480255  41.0032120
  34.4457588  61.9537468  40.0862122  10.3047924  39.9044418  34.5470543
  10.0110073  38.9982605  34.4534760   9.5387716  40.4296837  34.3156090
  21.5399818  61.7803268  17.6351261  21.2090378  62.6683350  17.5004158
  22.3650322  61.7561035  17.1504230  61.2294159  32.4932671  17.9592266
  60.2983055  32.4122505  17.7525864  61.2515335  33.0026665  18.7693214
  22.0703259  58.7510986   6.0601559  21.1610355  58.6702309   6.3480515
  22.0635662  59.4881744   5.4495001   3.0282681  24.9875851  60.5172997
   3.9613013  25.0874443  60.3283310   2.7407708  24.2818508  59.9380608
  54.5369110  10.1256933  36.9608612  54.2251091  10.0715961  37.8642349
  55.0781174  10.9149590  36.9411392  79.9622955  48.5655518  81.6299820
  80.8005753  48.1053658  81.5881500  80.1942825  49.4920654  81.5668259
  77.6495667  25.5616741  63.9419594  77.1308441  26.2569065  64.3466949
  77.0172501  25.0592003  63.4282265   0.6433014  13.1340294  85.2946396
   1.1552625  12.3264418  85.3385696   0.7353119  13.5235395  86.1641464
  40.0403099  45.4694557  15.1702147  40.4141350  45.2476654  14.3173971
  40.7873535  45.7681274  15.6888247  25.1212883  57.3689957  17.9759617
  25.4807434  57.1716995  18.8408890  25.7737713  57.9396210  17.5698967
  27.5690193  41.8353043  17.1149921  27.3391666  41.2030220  16.4340954
  28.4125137  41.5308113  17.4497070  14.8803968  64.9133530  53.4147110
  15.6325197  65.2107162  52.9027367  14.6152868  64.0938797  52.9970818
  32.0859604  66.4783859  71.0578384  32.2138290  66.4148788  72.0043259
  32.0056038  67.4172287  70.8894577  15.6051226  35.4510612   0.5497606
  15.7181234  34.8124428  -0.1542499  15.9917469  36.2566910   0.2066690
  56.3423538  58.7509918   4.9472265  56.3955383  58.4259605   4.0484734
  57.1467934  58.4399605   5.3624020  66.7440796  64.6018295  85.0957565
  67.0102463  65.5143356  85.2085419  67.3181381  64.2683716  84.4061966
  43.2107887  48.3644218  23.0281258  43.7154808  48.8516808  23.6793518
  42.7526245  49.0387840  22.5265770  57.8600540  20.8593769  23.3503246
  58.5251923  21.4378052  23.7234840  58.3204803  20.3762455  22.6641579
  50.6776390   3.5189040  12.8931160  49.7257919   3.5108566  12.7923679
  50.9286537   2.5954697  12.8709202  47.4701614  26.2262726  20.5305939
  46.5422897  26.0201740  20.6437550  47.9211388  25.3978691  20.6936970
  68.5598526  49.8683662   6.0582118  68.6782608  50.8029251   5.8884692
  68.9757233  49.7247658   6.9083071  45.6966553  39.3355331  79.1077576
  45.7472725  39.4749947  78.1621323  46.4283714  39.8396339  79.4637146
  43.8342018   4.2084880  42.3938065  44.7091255   4.3097553  42.7686234
  43.8661842   4.7018809  41.5741882  84.5186920  43.0198479  85.8414001
  84.1895599  42.4891624  85.1159515  85.3627701  42.6262474  86.0624008
  73.5830231  34.6255455  10.3303843  74.1134338  34.0667267   9.7623873
  73.5514984  34.1576996  11.1648645  30.1889496  57.9276505  54.5451698
  30.8283405  58.5295486  54.9261284  30.5910892  57.0635414  54.6336823
  60.3673630  53.7579193  69.6186371  59.7550583  54.3312416  70.0797348
  60.9988594  53.4942169  70.2878952  38.4902534  45.7579384  45.8674431
  37.9952850  45.7166061  46.6856918  38.4326668  44.8727760  45.5077171
   5.0377293  44.0869370  48.5729256   4.9908357  44.6399994  49.3527679
   5.1604042  44.7021866  47.8499832  46.7922020  64.6252441  23.5565434
  46.6767807  63.8168564  23.0571175  45.9152298  64.8360596  23.8770256
  40.8082352  37.4223747   3.8016071  40.4450340  38.1641350   4.2854533
  41.2916451  37.8217545   3.0783885  25.7178478  31.3267040  61.3484535
  26.2408352  31.4774036  60.5610504  25.9807835  30.4563236  61.6476746
  51.6024742  13.3789291  43.3496780  51.1600113  14.1322870  42.9586411
  51.0769463  13.1662788  44.1209297  38.9664459  43.0925865  26.3824120
  38.1654587  43.5818748  26.5701694  39.3130493  43.4966927  25.5869274
  54.3868141  56.0020409   7.9497247  54.4244232  56.8758621   7.5608120
  54.5943375  56.1419449   8.8736258  77.9762344  59.8779945  71.4243698
  78.5904617  59.1501045  71.5199509  77.3932190  59.8001404  72.1795273
  14.9243183  43.3670807  30.4038963  14.7984142  44.2519341  30.7465572
  14.4087029  42.8091278  30.9861870  72.2500839  50.1556435  74.0457458
  72.1453552  50.8150101  74.7316742  72.8285141  50.5675392  73.4038849
  72.2175598   8.8838282  75.2118454  72.4831009   9.6511602  75.7187195
  71.7328033   9.2435246  74.4689713   9.8006735  65.8009644  45.3427734
   9.6737146  66.3674240  46.1038513   9.5253849  66.3353653  44.5978813
  28.0681934  70.9887543  25.9550457  27.4429550  71.6488876  26.2542763
  28.8695068  71.1793823  26.4426842  79.7863998   1.3024720  59.0478172
  79.7532654   1.4429349  59.9940758  79.3095016   2.0457196  58.6785126
  73.1126480  21.4911270  71.5619812  72.9802475  21.6751289  70.6320114
  73.9318619  20.9970741  71.5941162  28.3648663  32.2520714  65.4511414
  28.9545860  32.5380936  64.7535400  28.8549271  31.5738354  65.9159698
  72.8900223  45.7490387  36.5449600  72.5089264  45.5719223  37.4049759
  72.4044647  46.5069389  36.2193031  11.0919571  65.2305527  54.5683250
  11.3652105  64.3855743  54.9254951  10.3120432  65.0308075  54.0505714
  49.3684387  43.3972282  40.3217506  48.9431801  42.6188698  40.6816673
  49.8069115  43.0860252  39.5298347  42.8229637  11.2877321  88.7981949
  43.0251923  11.2286081  89.7319183  43.6608391  11.1344824  88.3614883
  64.6199036  41.7309265  80.7354431  65.0296021  42.3383751  80.1194992
  65.1664886  40.9460640  80.6971817  78.6653671  16.9069939  65.5202637
  78.1908875  16.0969868  65.7073288  78.8922348  17.2561722  66.3821411
  19.7616348  51.7800751  20.0963478  19.3371658  52.5807152  20.4046173
  20.6138992  52.0706062  19.7715893  31.3179626  58.0989761  86.1182480
  30.7537575  58.5909081  85.5216675  30.7208500  57.5146370  86.5854034
  31.1340027  63.1578331   1.5392696  31.9815426  62.7183990   1.4699447
  30.9356346  63.4379234   0.6457193   3.7196081   8.9218235  54.7700691
   3.2457089   8.5451660  55.5115395   3.8075104   9.8496428  54.9883728
  65.9798355  45.5586700  54.9421539  65.0338058  45.6603928  54.8376770
  66.1868362  46.0478706  55.7384338  51.2716103  50.2845612  42.6819038
  50.5845871  50.5107918  42.0549660  52.0861778  50.3739700  42.1872177
  42.2976418  27.2257156  58.6915703  42.7449837  27.8874798  59.2190018
  42.3591957  27.5529251  57.7941437  16.2397404  13.5124960  17.3747425
  17.1486835  13.4093151  17.6565342  15.9993620  12.6554546  17.0227051
  47.6379623  65.1862946  62.4319077  46.9443512  65.7880249  62.1616173
  47.9886208  64.8407593  61.6110077  27.7660789  44.0862160  13.7823229
  28.4904270  44.2815628  14.3767910  27.7073956  44.8552742  13.2154570
   7.4293652  56.7283440  16.3622704   8.1890926  56.4975548  15.8276834
   7.4107747  56.0642700  17.0513954   9.4454412  71.7354965  15.2360620
   9.4813690  70.9231110  14.7311277   8.9300556  71.5130234  16.0113773
  82.4837112  47.4088478   6.8463874  82.5847931  48.0287056   6.1240382
  83.3799896  47.1892319   7.1007328  57.3873253  15.2358713  31.2149754
  57.4450607  16.1907196  31.2490978  56.9736786  15.0509109  30.3718147
  49.0400925  39.3539200  25.8997707  48.3442192  39.0187759  25.3343773
  49.5354538  38.5761719  26.1565990  12.4466333  69.9765930   4.0902410
  12.0373669  69.4883423   3.3758581  12.1405087  70.8757782   3.9719834
   6.0041413  68.0180206  74.1281204   5.9055276  67.8631744  75.0675507
   6.6704478  67.3894119  73.8504105  81.1095047  33.4118500  27.7263813
  81.1077576  32.4858971  27.4838161  81.5389557  33.4346199  28.5815334
  20.8243999  66.5859070   5.1429157  20.1529446  67.1296616   5.5548797
  21.4425201  66.3934021   5.8479686  47.1001587   1.5437346  48.9878044
  47.7229080   2.2239640  48.7314758  47.6418076   0.8580915  49.3786240
  36.3359413  59.2548485  77.4988403  37.2524986  58.9831276  77.4506378
  36.0353127  58.9337196  78.3489761  75.1591415  34.0870476  35.5858841
  74.7581100  34.9560089  35.5683403  74.6697159  33.6108856  36.2566833
  24.8794956  67.6195831  30.5298481  24.4299908  66.8412018  30.8589268
  25.6545753  67.2780151  30.0839634  17.8718128  39.4730492   8.0445137
  18.0520744  40.2313461   8.6001415  17.2760067  39.8045959   7.3727093
  79.7212372  50.1461563  40.1192513  79.2787933  50.5967331  39.3999062
  79.7449875  49.2283630  39.8484688  75.3046265  19.2909222   7.5147295
  75.7258224  18.4965687   7.1863532  76.0300369  19.8864899   7.7026472
  81.3410645   6.6362991  79.8811874  81.2016449   7.4246774  79.3565369
  81.1756973   5.9134502  79.2758942  19.8284245  33.4478416   7.3973565
  20.2579575  34.2146835   7.7764196  19.7639828  33.6467094   6.4632630
  64.8845139  17.3214779   9.4446316  64.4032822  17.6254368  10.2142115
  65.6131134  16.8143253   9.8026447  42.0856667  55.9560204   0.1964351
  42.7485809  55.7474861   0.8546824  41.2614975  55.6633530   0.5854397
  16.0695896  53.8779564  33.8171463  16.9342060  54.2878876  33.8421249
  16.0935898  53.3152237  33.0432053  71.7427139  11.0640554  81.5859146
  72.3391418  10.5582657  82.1378937  70.9222336  11.0872364  82.0783615
  69.5051346  46.6507149  73.9533234  70.1416626  46.7619095  74.6595078
  68.6572113  46.8101196  74.3678589  79.9220428  66.7038651   2.0407412
  80.5649261  67.1875534   1.5221142  80.4435425  66.2362442   2.6931260
  86.1328506  16.3689518   5.0227070  86.9355469  16.6601028   5.4553089
  85.4409332  16.5396767   5.6617126  78.8430252  45.0913429  72.5361557
  79.3723221  45.8569756  72.7594833  77.9762192  45.2874298  72.8917236
   7.2181807   2.6104627  54.3620872   6.3737965   2.2112262  54.1526642
   7.0423870   3.5513296  54.3719711  77.0427017  39.2112656  66.3282547
  77.8605499  38.8328705  66.6510315  76.5956421  38.4830055  65.8969727
   8.7588701  49.6500587  54.9228096   9.1749744  50.2410316  54.2952461
   8.0318861  50.1573868  55.2838478   9.8150492  68.8465729  24.5081863
   9.9041891  67.9016724  24.3838978  10.3779745  69.2307129  23.8360405
  50.7518806  19.1410999  23.1082554  50.6308556  18.6653805  23.9300060
  50.6547279  18.4739704  22.4287472   3.3269377  22.2449894  83.7847061
   3.6477921  22.3554955  82.8896790   2.8659678  21.4061928  83.7720413
  37.3107491  43.1430168  62.1768761  37.6420059  42.6959457  61.3980141
  37.6680298  42.6425629  62.9104462  62.2305222  45.6167374  82.2775345
  61.4121742  46.0017815  81.9640274  62.4994545  46.1823006  83.0014420
  16.9519253   9.6944532  67.5450363  17.1960449  10.6190109  67.5878220
  16.0056686   9.7030020  67.4009552  58.6510658  68.9912643  41.8688126
  57.9617004  68.9078369  41.2099876  58.1946182  68.9031830  42.7055511
  43.3407135  66.1747589  37.6343231  43.5832939  65.2492371  37.6627312
  43.5620537  66.4532089  36.7456703  75.3778000   0.5233183   5.3760638
  75.0943604   0.1049301   4.5631413  74.6425934   0.4019725   5.9768825
  77.9767685  70.9936523  19.2927799  77.1903915  70.6214371  19.6919022
  78.4087372  70.2487411  18.8747578  51.2282562  10.4820013  75.0551071
  51.5082474  11.3004227  74.6451950  51.9869652  10.1975327  75.5646820
  52.3047523  30.5045815   4.0226002  51.4988022  30.3294449   4.5083976
  52.8313942  31.0389347   4.6170306  70.0549393  13.1602888  34.9010582
  70.8577957  13.5283222  35.2701225  70.3563004  12.5854149  34.1975441
  21.4451523  43.9701004   2.7685263  21.8752270  43.1181488   2.8423152
  20.5822105  43.8375702   3.1609511  60.4793701   7.3840957  52.9594765
  61.3488007   7.6259146  53.2786102  60.4488678   6.4313159  53.0461464
  68.4365692  36.6821022  65.4971848  68.0577698  36.7288475  66.3750000
  67.7686310  37.0635529  64.9274597  73.3215103   1.0004160  29.2882652
  73.1995392   0.1437251  28.8790760  73.2102432   0.8365673  30.2247505
  17.3492050  67.8259125  62.5252686  17.7763290  67.7894211  61.6694260
  17.8871899  67.2664948  63.0854912  77.8010330  39.7192345  16.4601727
  78.5621414  40.2934570  16.5451546  77.8155136  39.4360886  15.5459251
  10.6367064  53.5132484  10.9984055  10.1976204  53.6387749  11.8396425
  10.7829075  54.4003181  10.6698236  45.4062653  13.7287531   1.0314690
  45.2063026  13.9364882   0.1187300  46.0638008  14.3761511   1.2859392
  12.7643299  15.9412460  82.1605225  13.5134172  16.2608509  82.6634674
  12.7732515  16.4643707  81.3589630  43.7040253  12.3465128  34.5879364
  43.9310303  12.5559683  35.4939308  44.0674171  11.4724369  34.4459114
   0.6552998  49.5039711  66.8919525  -0.1017156  50.0896530  66.9035263
   0.6916190  49.1419754  67.7773209  65.6507797  42.5254822  49.5037766
  65.8212051  41.9268723  50.2310028  65.5502930  43.3826981  49.9176788
  38.9733276  56.8147964  23.0659695  38.8207970  55.9310760  22.7313023
  38.1597977  57.2843666  22.8818474  20.8493748  14.9468508  83.7325287
  20.8338833  15.6683788  84.3613281  20.3018856  15.2489395  83.0077972
  16.5634880  11.5119991  82.5055542  15.9104271  12.2034817  82.3978806
  17.3952694  11.9318676  82.2862778   2.2238939  44.1996498  79.2359009
   2.8043842  44.7989426  78.7667465   2.3485515  43.3560219  78.8011780
  86.2012634  46.9043198  82.9405746  85.4077606  47.1107788  82.4466553
  86.5603943  46.1314697  82.5047302  32.5799332  64.5072327  36.5766449
  32.2601318  63.9247932  35.8876419  32.4315643  65.3883667  36.2333946
  72.6091385  10.7705574  20.8008118  72.1372604  10.5255346  20.0048714
  71.9460831  10.7424717  21.4905949  62.6485176  53.7832718  85.5138550
  62.0568428  53.3133850  84.9261780  63.2399292  54.2574615  84.9293823
  64.9917755  18.3453274  39.1488800  64.4488525  17.5573425  39.1723213
  65.8462982  18.0570488  39.4696922  27.7709503   2.3824241  16.0984173
  27.4979515   2.9129217  15.3499022  26.9556808   2.1751635  16.5551567
  35.6946564  69.0928268  71.7005997  35.9058990  69.9423981  72.0876923
  35.3815765  69.3018188  70.8205185  56.4761467  36.0766106  43.5262413
  55.6715851  36.2715187  44.0067863  56.2757683  36.3087807  42.6195030
  28.1520805   7.1050992  84.0071030  27.5323353   6.9670238  83.2908096
  28.0385399   8.0244570  84.2481842  54.0068779  59.1399460   8.8232374
  53.9051895  58.8737259   7.9094448  54.5818520  59.9043808   8.7874355
  48.8309860  36.2362518   3.2054927  48.2160454  35.5330658   3.4143250
  49.6598053  35.9518967   3.5907621  15.1573877  66.8225784  42.6610870
  15.2962770  65.9124756  42.3990669  14.7883577  66.7644424  43.5423775
  67.9877167  57.0436592  43.5577850  68.8968887  57.1114311  43.2661667
  67.4846725  57.4963074  42.8808136   4.6671615  38.0022087  18.1367168
   4.1101255  38.7734184  18.2424622   5.3044696  38.0677414  18.8478966
  39.2458458  37.9486618  21.2570896  38.3113403  37.7417030  21.2669811
  39.5742607  37.6133575  22.0913239  11.7275658  37.2994576  21.1488571
  11.5714636  36.4885712  21.6329327  12.5476751  37.6384811  21.5076256
  60.5178032  53.8269424  14.5581264  60.5625420  53.7840385  15.5133181
  60.9653587  53.0344963  14.2615547  79.9283218  30.2367992  86.2428894
  80.2631454  29.7846050  85.4685211  80.4723587  29.9153728  86.9618759
  23.5786819  44.1857338  83.7295914  23.4515953  43.9253654  84.6418915
  23.1282291  43.5101509  83.2227325  26.2476521  21.4295216  44.8603287
  26.4795017  22.3331470  45.0746613  26.9869251  20.9108601  45.1776581
  56.3091011  28.3585281  71.4605331  56.2436867  29.0098820  70.7621841
  56.2843323  28.8706703  72.2688217  48.3940239  68.7558212  10.2878866
  48.4891891  68.2887726   9.4578037  47.5861397  69.2594070  10.1881104
  84.5636063   1.5656037  42.8960190  83.7268600   1.2127303  43.1986237
  85.2192764   1.1220069  43.4341202  65.3313904  23.5672951  27.4455338
  66.2708664  23.3888969  27.4033337  65.2547302  24.3058243  28.0496292
   8.3433714  53.4908257  13.1795692   7.7373042  53.8107529  12.5113163
   8.1187344  52.5662041  13.2837152  66.0498886  10.9537802  51.3697586
  65.2733841  10.5610476  50.9709663  66.4289093  10.2514668  51.8982773
  75.2886963  41.0317497  86.8896255  75.3578110  41.7365761  86.2456665
  76.1603699  40.9791222  87.2816010  67.8764038   5.2193046  71.3673706
  67.0353394   5.5624037  71.0655136  68.5240250   5.6432052  70.8042221
  60.3026505  49.6828537  16.2668972  60.4115562  50.3935661  16.8987675
  59.4984131  49.2411385  16.5395145  32.4090233  49.3934174  69.6092911
  33.2635574  49.2496185  69.2026825  32.5403938  50.1490517  70.1819916
  66.2052917  63.5932426  69.1486130  67.0075531  64.0537796  68.9026031
  65.5154953  64.2513351  69.0630035  34.2906494  42.3643417  75.6035080
  35.1847343  42.1821632  75.8927383  33.7871208  41.6011124  75.8866653
  16.7721405  45.8479080  14.5899916  16.6350479  46.6083374  14.0250292
  16.6678200  45.0951881  14.0079575  40.6315689  50.6437531  42.7544975
  40.0590019  50.4633789  42.0089302  40.3947334  49.9817505  43.4040298
  38.1461296  36.0074425  67.0644226  38.2848854  36.9543152  67.0441208
  38.5666542  35.6865921  66.2666473  78.2016678  26.6224499  87.0174179
  77.7649002  26.5831871  87.8682556  78.4794693  25.7220612  86.8490219
  85.4408798  60.8286438   2.3802454  86.1103592  60.6293144   1.7257968
  85.3794937  61.7838669   2.3768179  70.1976166  43.4025345  83.5995636
  70.0127487  42.9551888  84.4253540  71.1408081  43.5643196  83.6207275
  73.7632751  53.2660904  23.5620632  73.7540894  54.0788040  24.0676746
  73.7815552  52.5733833  24.2224083  19.7688637  12.7235489  50.7944946
  18.9864216  13.2748642  50.8027763  20.0826035  12.7665434  49.8911972
  56.5695572  68.9468613  21.7431240  57.2000237  69.3795242  22.3189316
  57.0763283  68.7137375  20.9652653  56.4978409  64.2583008  58.6442375
  56.3320427  64.1894073  57.7040253  56.8772888  65.1297760  58.7573090
  60.4583740   9.0892019  27.2896671  59.8277740   9.8024054  27.3892269
  60.4708138   8.6593695  28.1448402   6.2659025  45.9239082   2.3979445
   6.4354706  45.3157501   1.6784843   6.0590763  46.7531548   1.9668941
  73.0141830  40.1955299  51.1725464  72.4403992  40.8831978  51.5103683
  72.8896484  40.2242508  50.2239189   6.5335994  37.9186554  20.3302212
   7.3750358  37.5049591  20.1376743   6.7518749  38.6450119  20.9141674
  35.9084167   9.3063908  16.1664696  36.2114601   9.8320007  15.4261112
  35.0796585   9.7103863  16.4237156  55.4789391  69.2985153  51.9396515
  56.3506775  68.9244156  52.0675240  55.0358620  68.6802444  51.3585701
  74.2612610  52.4412804  34.6056213  74.0768585  52.5866356  35.5335770
  74.0909348  51.5090637  34.4707336  19.3526783  14.4610872  39.6689262
  19.2598019  14.5541840  38.7208023  20.0323219  13.7960815  39.7788582
   8.1682415  59.0594788  85.7520981   8.6594477  59.5198784  86.4325256
   8.7045374  58.2938728  85.5460358  47.6730652  49.8455887  48.3459702
  48.3363419  49.1570091  48.3923645  46.9009438  49.4104309  47.9844513
  37.6746330  36.8857040  14.5086412  36.9724350  37.0033913  15.1484051
  38.0834961  36.0550919  14.7518501  67.6619339   9.5147247  10.2028742
  67.6320572  10.2926407   9.6459312  66.8567352   9.5583248  10.7186089
  78.8474045  62.8929901  43.2633591  78.3080139  62.8219948  42.4757957
  79.1658478  63.7956276  43.2549973  48.1034355  30.1768341  16.1380520
  47.2895279  30.5883255  15.8474293  48.1329422  30.3434410  17.0801792
  29.3776665   1.8088220  80.7334900  29.3998241   1.9317563  81.6825104
  28.5845432   2.2644703  80.4514084  58.3328323  62.2709618  72.0291443
  58.9595337  62.9827614  72.1588364  58.4825554  61.6822739  72.7689133
  10.6051140  68.6609497  55.8069878  11.3557873  68.9664459  55.2976761
   9.8427324  68.9899826  55.3308105  78.3651276  56.3090210  68.9955597
  77.7071991  56.6981583  69.5716934  79.0733719  56.9524956  68.9718094
  78.0608673  55.2250519  62.0760651  77.8375549  56.0972519  61.7510567
  77.9655914  55.2918472  63.0261650  56.0684814   2.6946557  10.4256601
  56.9433708   2.5456181  10.7842522  56.2197037   3.2022483   9.6283436
  84.0321198  44.8237953  20.8579941  83.9080963  43.9015999  20.6334858
  84.9819641  44.9416161  20.8704700  23.0273094  14.8136120  82.2135086
  22.3591843  14.9311991  82.8887939  22.9482346  13.8951836  81.9556961
  84.0479813  19.3639717  17.5438709  83.8332214  18.6944962  18.1934185
  84.7479019  19.8755550  17.9496117   4.5699863  30.0417023  16.6319218
   3.7948606  29.4867592  16.5456142   5.1939440  29.5069618  17.1228008
   4.1464581  54.5204620  15.1683302   3.4880965  54.4530602  14.4767752
   3.7867951  55.1632957  15.7795897  42.4573975  15.1424952  78.8966675
  42.0310936  14.4219360  78.4326782  42.3603592  14.9216003  79.8229675
  10.6429148  36.7471962  39.2638741  11.1106253  36.4842224  38.4712067
  10.5852757  37.7007027  39.2027588  78.8258820  21.0712070  78.5399017
  77.9007263  21.1439266  78.7744827  79.1244583  20.2785931  78.9858246
  66.8097229  54.2972260  22.0574760  66.8760910  53.4464378  21.6238976
  66.0918579  54.1924706  22.6819134  45.1030693   5.2958765  53.7260132
  44.3583450   4.7488394  53.9757423  45.0236130   6.0746269  54.2768898
  80.7910156  70.3475037  47.7918243  81.3541412  70.8856277  48.3481903
  81.0366821  70.5880051  46.8984947  85.5873337   0.7295868  70.5437775
  84.9078827   0.0556615  70.5640259  85.7718430   0.8557885  69.6130447
  28.9489689  50.4263344  53.5709763  28.8639145  50.6219254  54.5041122
  29.7797070  50.8281937  53.3167763   7.6996422  55.9208069  46.7219543
   7.7622104  55.2275772  47.3790321   7.8040137  56.7321205  47.2190552
  84.9765396  33.1242981  35.1738129  84.8828125  33.7244377  35.9135971
  84.1465912  33.1941757  34.7020798  84.3708191  10.8632355  66.4752502
  84.0168304  10.1758289  67.0395203  83.6069717  11.3804808  66.2198715
  84.9260101  45.2992630  69.3745422  85.0710297  44.7375679  70.1359253
  85.7792282  45.6989861  69.2058029  20.9897270  10.0098944  40.5504799
  20.8957596   9.8414660  39.6129150  20.7683830   9.1768951  40.9668350
  69.7808228  29.2652187  26.8819027  70.5844421  29.7851715  26.8907700
  69.7045288  28.9576111  25.9786930  63.6348228  29.5450916  86.1712723
  63.2492867  30.0519466  85.4566498  63.2235374  28.6834698  86.1028595
  68.0216599  20.8603992  60.3734856  67.6138458  21.3433800  61.0922699
  67.6161957  21.2185421  59.5838280  21.3637466  57.6973610  29.0177193
  21.0059681  57.6272507  28.1326714  22.0309029  58.3806877  28.9529285
   8.3730288  35.9967957   6.8564758   8.2730427  36.8584137   7.2612634
   9.2657843  35.7308578   7.0766916  49.6734657  54.9256210  35.0152702
  48.9859810  55.4882393  35.3717308  49.8877563  54.3267708  35.7305946
  20.5514679  53.3778381   1.4446197  20.1806927  52.4958305   1.4733425
  21.3017883  53.3416710   2.0378671  74.6317902  70.6215820  17.6383667
  74.0661545  71.2697830  17.2186966  74.4848022  70.7466354  18.5759106
  52.1952133  58.3188553  15.6805439  51.8061485  57.6555519  15.1105518
  51.5453377  58.4528427  16.3704300  64.6571884  35.2121735  31.8930531
  64.3707962  35.5501556  31.0445385  63.9430466  34.6415482  32.1769905
   0.1355396  44.4425087  21.4727211  -0.1216795  44.2747688  20.5661163
   1.0551486  44.7021408  21.4166546  69.2610626  41.6178551   3.8813293
  68.8706741  42.0702705   3.1335680  69.1379547  40.6881485   3.6896989
  78.9368134  49.7877388  59.8406372  78.4671936  49.0515938  60.2327881
  78.3027115  50.1860924  59.2444344  66.7456970  62.2898445  25.6096821
  67.0129471  62.9683838  24.9896927  67.5645218  61.8693275  25.8722057
  80.1808929  64.4825134  80.9659576  80.6354370  63.7283401  81.3412552
  80.3145370  65.1841507  81.6031952  41.5655746  24.3446445   3.4085088
  42.3035431  23.7810059   3.6407738  41.8832130  25.2332840   3.5686927
  79.5369949   7.2663054  84.6694183  78.7109985   6.8318696  84.4567642
  79.7817307   7.7227492  83.8644333  29.6770706  24.4939842  15.2747278
  29.3551064  24.1759415  16.1181850  28.8865528  24.7369652  14.7927809
  62.5407639   9.1082239  77.4787827  62.0289154   9.4431019  78.2150574
  62.0499191   8.3454142  77.1731262  39.5366364  60.5635796  43.4905586
  39.8189316  61.2662735  44.0760193  40.2125320  59.8916550  43.5795403
  62.8431664  33.1815834  31.9874516  63.2434273  32.5966148  32.6307526
  62.0084229  32.7655602  31.7721405  46.7772751  28.6775665  20.4204254
  47.2070847  27.8336277  20.5592289  46.3591881  28.8741741  21.2587452
   5.1259189  23.5943317   3.7249808   4.1896119  23.7705212   3.8172793
   5.5181231  24.4548702   3.5770516  30.4051895  61.4169540  53.1575661
  31.3180676  61.1726265  53.0052834  30.2728691  61.2765465  54.0951195
  48.3837280  55.1427307  43.7454033  48.0988808  54.3248329  44.1529961
  49.1117744  55.4411316  44.2905083   0.2481426   4.0712910  32.1409836
   1.0020171   3.5132198  31.9500351   0.4982201   4.9335265  31.8089561
   0.2206804  22.1429482  85.3618774   0.9035149  22.2307739  86.0268936
  -0.5824775  22.4150486  85.8058701  41.6147537  66.3763199  73.3258972
  41.9901085  65.5372009  73.5927658  42.1932755  66.6868057  72.6293793
  73.1148071   0.7007256  56.0712166  73.5258408   0.1614937  55.3955612
  73.1429214   1.5899200  55.7179832  86.2814865  17.8305092  27.7941113
  86.2613144  18.3695583  27.0033836  85.5146484  17.2628822  27.7166462
  38.3641434  52.5270309  13.3498497  38.8916588  52.3397331  12.5733986
  38.5290871  51.7880402  13.9354401  50.0766220  58.7124863  22.7034321
  50.2181664  59.5714149  22.3053932  49.1572113  58.7204285  22.9696083
  36.1333847  48.7979774  14.7971630  36.7877960  48.2181435  15.1867399
  35.8858490  49.3907738  15.5067797  26.8204021  68.4624176  61.0675354
  27.0715694  68.3782883  61.9873543  26.2490368  69.2300339  61.0445099
   3.8666203  33.2501907  65.2037277   4.6891632  32.7915115  65.0326462
   3.5304089  33.4710579  64.3351593  10.6812572  56.7536201  66.3875580
  10.6846371  55.7965889  66.3699875  10.2621288  56.9764252  67.2187805
  12.8285971  38.4994164  10.7332516  12.1241751  38.1371193  11.2706175
  12.5339260  39.3840218  10.5167437  12.7377329   1.5085814  50.7473946
  12.7080116   2.4420476  50.9571304  12.5205870   1.0711006  51.5706139
  25.2009220  56.7681656  41.4495201  24.5705624  57.4858971  41.5106812
  24.8582191  56.2070389  40.7538757  51.0744629  24.7146530  28.8215752
  51.3590546  24.8842049  29.7196236  50.1591263  24.9940624  28.8036079
  21.3887253  69.1018600  35.5322914  21.3231182  68.2616959  35.9862175
  20.9237309  69.7172852  36.0990944  18.0295753   2.0288169  80.2145157
  17.3745232   1.3309301  80.2240601  17.6327782   2.7225635  79.6877365
  26.0453014  61.1587791  29.5241699  26.8911972  61.4152336  29.8914871
  25.6778564  60.5538368  30.1685772  42.1467171  63.6412773  22.6833096
  42.3706055  63.2450180  21.8412399  41.5164108  64.3277588  22.4649391
  47.3506241  42.4643936  23.5601368  46.6075325  42.4668427  22.9567795
  47.1829910  41.7242966  24.1435661  40.4431953   5.1771660  87.2861938
  39.6417923   4.8110085  86.9121399  40.5940170   5.9810872  86.7890015
  84.2626648  19.1906662   6.1610751  83.5586853  19.5533085   5.6233563
  85.0261765  19.7281170   5.9503069  71.0060196  53.4775276  70.5149078
  70.9605026  52.5236359  70.4497604  71.9316406  53.6628799  70.6733627
  85.0476456  30.6849766  31.2387352  85.3213577  30.2209797  30.4475212
  84.1139069  30.4904709  31.3195381  17.6564465  51.4762306  14.7877598
  16.7032185  51.4753952  14.7006569  17.8827190  50.5608368  14.9523458
  69.5700073  12.2651243  83.2767258  69.0034332  12.9375324  82.8984451
  70.3934708  12.7189484  83.4561310  62.8891640  70.0323486  49.4888573
  63.0536156  70.9284668  49.1953468  62.5879517  70.1277313  50.3924103
  18.9410667  47.1217079  49.3481827  19.6654224  47.7030830  49.5795822
  18.5069256  46.9368019  50.1809845   6.8942971  43.0225525  61.7387772
   6.0060925  43.0929337  61.3889618   7.4568033  43.3292732  61.0276222
  82.2869568  56.6815681  70.8929520  82.9826050  56.5131721  71.5285187
  82.4088058  56.0107269  70.2211227   8.3380680  12.5320082  22.3745766
   7.7950749  12.5318499  23.1628609   7.7120557  12.4775419  21.6525154
   9.6801062  13.2239876   5.2635112  10.3548412  12.8901148   4.6723309
   8.9967709  12.5538387   5.2498674  59.6474113  66.7199326  18.1673088
  60.4415588  67.2314301  18.3220234  58.9540253  67.3742218  18.0815239
  85.1162949  19.2566719  51.8260574  84.5171051  19.6170139  52.4797859
  84.7662506  18.3867111  51.6340485  16.0640488  45.6287651  50.9816399
  15.9188099  46.4569588  51.4390602  15.4842901  45.6703186  50.2211227
  75.6393890  29.8630829  40.1358261  76.0044250  30.3354759  40.8840446
  76.2826691  29.9862881  39.4377975  20.0052223  64.9912720  47.2344513
  19.3050251  64.8891220  47.8790588  20.7339878  65.3652878  47.7296715
  79.1998978  26.0429401  61.8547668  80.0012512  25.5563946  62.0479889
  78.7009201  26.0165386  62.6711960  81.4552231  37.0296249  30.8720531
  81.4348755  36.9816551  29.9162731  81.8411407  36.1974335  31.1454697
   5.2177906  70.7471542   6.1140008   6.1566296  70.5766449   6.1897569
   5.1569371  71.6908875   5.9660096  51.3194237  68.8440628  78.8311157
  51.3161583  68.4585876  79.7072601  52.0266762  68.3904953  78.3725281
  11.7032146  30.3636627  13.4639463  10.8771095  30.2373657  12.9972219
  11.5498896  31.1276989  14.0197964  16.8883343  55.7284851  54.1394577
  16.3020515  55.9931679  54.8482933  16.4039230  55.0503616  53.6685791
  26.8269119  52.6578751  61.6423264  27.4809189  52.8950233  62.2997971
  26.8045578  51.7011185  61.6609612  78.2392349  71.3030701  47.9218712
  77.7340775  70.5239716  48.1543808  79.1495514  71.0071793  47.9221306
  21.2832470  33.6187363  46.6774063  22.0108757  34.0902634  46.2718811
  21.5214577  33.5606880  47.6026726  65.1667938  55.6056747  35.1007118
  64.3735046  55.8527527  34.6254501  64.8799667  55.5021477  36.0080414
   6.6352854  12.0026093   0.6390691   7.2626510  12.5742044   0.1964366
   6.2879620  12.5362167   1.3538145   5.7374611  18.2630577  72.3955460
   5.8692780  17.3573170  72.1153870   6.5312920  18.7184639  72.1150665
  70.5551758  49.4800758  38.3235779  70.7117844  50.1311455  39.0075455
  69.7446594  49.7657471  37.9020424  43.9744186  41.3265266  55.9797554
  44.6381607  41.8699989  56.4043922  44.0304222  41.5602303  55.0532150
  20.2449684   9.1575794  11.5867205  19.5981464   9.8349390  11.3891430
  20.0077248   8.8474903  12.4606733   6.6507359  22.5166111   7.3046498
   7.1764264  23.0895576   6.7464256   6.2834697  21.8681622   6.7039332
   8.1595144  45.4819374  38.9716301   8.6762686  45.1492577  38.2377892
   8.5754747  45.1059380  39.7474098  10.9744291   5.9235768   7.2408757
  10.3650141   5.1960144   7.1163874  10.4268293   6.6439567   7.5529957
  59.4363518  48.4404182  87.8463211  59.4164314  49.0112801  88.6144028
  59.5756340  47.5632896  88.2033539   6.1099634  51.4675827  72.1827621
   6.7016554  50.7153664  72.1652679   5.8587346  51.5533562  73.1024170
  60.5348511  59.8168411  62.8452606  61.1061935  59.4757195  62.1571922
  60.8286781  59.3745880  63.6416931  47.3649406  33.2411995  17.4354916
  47.7680244  33.4986916  16.6063633  48.1025429  33.1239929  18.0341892
  74.7724915  63.9693604  58.0988121  75.1106873  63.4719200  57.3542290
  73.8522797  63.7130508  58.1599808  30.8842583  17.7319489  89.1621933
  30.3842182  18.4840260  89.4793243  30.3693676  17.3936901  88.4295959
  13.5677853  11.9681559  84.8342209  13.4393930  12.6947985  85.4439240
  13.8539228  12.3851242  84.0215073  36.9041786  50.9631348  29.5546284
  36.5873413  50.2419128  29.0108585  37.8561592  50.9350166  29.4588432
  40.8396835  52.3811569  20.3757706  41.7889748  52.2718506  20.4316826
  40.4929848  51.4900246  20.4195690  59.5768814  18.3859043  79.2875900
  59.7722626  18.1110535  78.3917618  59.5447235  19.3415394  79.2433014
  39.2931938  34.0209427  80.0984039  38.7964058  34.2897682  80.8711624
  39.9845009  33.4555321  80.4428406  58.9442368  28.2060089  37.4270859
  58.1927223  27.6957779  37.7289543  58.9328842  28.9937248  37.9707832
  79.7797089  23.4116688  77.9644394  78.9017105  23.7748642  77.8485260
  79.6472168  22.4637489  77.9757385  72.1585236  47.7000542  48.9900055
  71.7657166  46.8698959  48.7202415  72.4632721  47.5416832  49.8834724
  15.5231686  61.3187714  40.4663391  15.8305197  61.0793495  41.3406639
  15.1136208  60.5217323  40.1298332  25.5064945  50.7145081  69.4092026
  24.6444225  51.1134911  69.2914200  25.8930817  51.1918907  70.1432953
  40.9527817  26.3950462  45.5647354  40.7378540  27.1246910  46.1458168
  41.8358917  26.5904751  45.2514381  69.0161362  33.9928513  21.6270161
  69.5875397  33.2549858  21.4142113  69.4140549  34.7403870  21.1808319
  61.3035927  32.3152542   8.9702263  61.4357529  31.7586441   8.2027950
  60.9708099  33.1390839   8.6141415  46.1868286  68.8750687  27.8424664
  46.6642570  68.2102890  28.3388138  45.2675400  68.7236786  28.0620556
  61.2776833  14.6765471  83.4534378  61.8673286  14.0531044  83.8775406
  60.4078674  14.2897310  83.5535660  85.1678543  42.3692169  29.1019287
  85.1101532  42.9799805  28.3671684  86.1027603  42.1809578  29.1840363
  63.9040146   6.2068286  61.2999229  63.8982315   5.3467345  61.7199669
  62.9789314   6.4356008  61.2098312  49.9518394  51.3042145  70.7424393
  50.5300369  51.7562904  70.1279907  50.2304535  51.6126709  71.6046753
  58.2317047  54.2678413  61.4682999  57.8753777  53.9924355  60.6236610
  58.9380455  53.6463089  61.6444054  72.7281647  71.0639648  41.8464661
  73.0660782  70.9207764  42.7305145  71.8445969  70.6962891  41.8653145
  12.3882227  43.1206398  66.7397537  12.9120321  42.3366470  66.9046936
  12.8232975  43.8094635  67.2422180  73.9865799   5.4656024  35.4589539
  74.8668747   5.6011796  35.1083336  73.7270584   4.6054964  35.1286545
  38.5805664  55.6570168  51.1276131  38.5868225  54.9898872  51.8140030
  39.2530594  56.2830887  51.3959732   0.2078031  47.4334183  35.5126877
   0.7154968  47.6491928  36.2949409   0.2826259  48.2092400  34.9570503
  23.9473534  37.1051826  86.1114426  24.1552715  36.3160324  85.6111984
  24.2949772  36.9326248  86.9864349   6.8071928  56.9960327  76.1845703
   7.6558895  56.8212013  75.7779007   6.8051958  57.9408607  76.3379669
  38.8114090  40.0608444  51.3998985  39.5807800  39.8248329  50.8816338
  38.2611160  39.2778435  51.3819160  48.3478241   1.7069721   5.1047058
  48.8318596   2.3331335   5.6430955  48.2907104   0.9195797   5.6459851
  38.2227669   1.3818053  84.9885483  38.5869904   0.5085158  85.1332550
  37.9723663   1.3868154  84.0646973  37.0449829  10.9480801  87.9741821
  36.2729683  10.8538895  88.5321732  36.7810898  11.5793180  87.3047562
  52.3001976  43.4625206  73.0708923  52.1347847  43.3223190  74.0032043
  52.2062988  44.4074554  72.9504242  79.1530304  16.5285664  18.8685589
  78.6852570  16.6919365  18.0495796  78.7386551  17.1144161  19.5020409
  57.9727440  12.7506828  80.1748581  58.8728905  13.0475321  80.3084488
  57.4325485  13.4844704  80.4680786   4.9733586  29.7591515  27.8608189
   4.9944816  28.9887943  27.2930756   5.0146794  29.4036179  28.7485809
  36.8181572   6.1806798   3.3881102  37.0357361   6.9858022   3.8578649
  37.6081848   5.9737186   2.8888600  55.7609367  45.9856186  15.0204954
  56.4613762  46.2733383  14.4349728  55.0526428  46.6122818  14.8726740
  73.0858994  35.0137787  56.9193420  72.8154068  35.8982620  56.6728516
  73.2808533  34.5823555  56.0874176  27.5007706  67.4664383  12.1626720
  27.4812374  68.4231796  12.1849480  26.8067513  67.1986160  12.7650347
  83.5949936  11.0473728  24.4872208  84.0628891  10.5375795  23.8258495
  82.9425278  10.4417877  24.8390579  63.4275169  45.4364090  21.8291187
  63.2812691  46.0596657  22.5407333  62.6543388  44.8722610  21.8421535
  52.9253769  16.4749317  62.0265007  52.6945114  15.9996786  61.2283363
  52.9861755  17.3897419  61.7514420  86.6984863  59.0176048  85.4844131
  87.4612808  59.2874794  84.9729996  85.9503632  59.2142143  84.9206009
  82.9791794  66.6662674  62.9497452  82.2239609  66.4484940  62.4034348
  82.8293152  67.5737381  63.2148285  51.5272751  48.7590065  38.6733742
  51.4936790  48.6565819  37.7222633  50.8475227  48.1705322  39.0018044
   8.4876614  46.9326019  82.3522644   9.2100096  47.3473206  81.8806152
   8.8580456  46.7043114  83.2048721  34.1811523  45.6647301  68.6366806
  33.9253922  44.8366203  69.0429459  34.6112480  46.1531181  69.3386230
  17.3934479   5.0873909  46.2289543  17.1182728   4.2478294  46.5972595
  17.2923050   5.7096047  46.9492683  22.9437103  66.4034424  41.2196732
  23.4319820  66.0601425  41.9679832  22.9263096  67.3502808  41.3590317
  18.7238235  15.9367151  88.3864746  19.1265945  16.2689743  87.5842209
  17.9373055  15.4799318  88.0881958  86.2969360   1.7568691  59.2278709
  86.9528580   2.1475427  59.8052635  86.4820404   2.1318114  58.3668365
  84.3436356  23.6812515  61.4733772  83.9259491  23.6148930  60.6146736
  85.2757492  23.7799797  61.2793388  57.3241806  65.2484512  27.5399399
  57.2973137  66.2052536  27.5330524  56.7974854  64.9886093  26.7840919
  82.5489120  43.1750908   5.8357635  83.1428757  42.6622276   6.3838601
  83.0081100  43.2610893   5.0003176  35.5876732  10.9976416  74.9206238
  36.4333000  11.1375017  75.3467484  35.7989655  10.5140781  74.1220322
  10.2027626  59.7285423   3.6704412  10.7206402  60.5028801   3.4503653
  10.8490105  59.0304832   3.7767849  78.1824188  69.9819260   4.9881697
  78.1427155  69.0839157   4.6591721  77.4600067  70.4302673   4.5484633
  15.5097771  61.3940887  62.8715134  15.5048170  61.2286224  61.9287376
  15.0771351  62.2424583  62.9680672  40.5560532  20.0485973  87.4604645
  41.4802246  19.8195496  87.5588150  40.1436844  19.2472134  87.1380234
   8.1439228  66.8329468  31.8792458   8.0366411  66.5249481  32.7791672
   8.7165241  67.5963364  31.9540176  17.7140236  58.2049866  10.4519005
  18.2338104  58.7602081   9.8707104  18.3027458  57.4881477  10.6880789
   0.7937627  20.2730370  66.1288605   1.1675512  21.1541729  66.1394653
   1.5463343  19.6922512  66.2409210  63.8668327  29.2853336  74.2210693
  63.5011902  28.4092312  74.0986786  64.6682129  29.2856884  73.6975937
  83.6324310  50.2531281  34.4620476  82.8974075  50.7335167  34.8430939
  84.1485825  49.9676590  35.2159195  69.4700851  65.3384018  60.4646683
  69.7874832  64.8778152  59.6879120  69.7087784  66.2531891  60.3149223
  33.2012749  20.9041176  69.1789246  34.0734673  20.5706825  68.9683685
  32.6019135  20.2451572  68.8285370  69.3190918  63.8099365  17.7151947
  70.0641403  63.2945709  17.4061031  68.8805313  63.2412338  18.3480244
  12.3865271   3.8908317  52.0047379  11.6109371   4.3825116  51.7346573
  13.1149664   4.4951572  51.8619118   2.5244510  63.7399864   6.1280193
   3.4012990  63.6414108   5.7570038   1.9787557  63.1443672   5.6145172
   3.2012675  56.1155128  85.8539810   3.4730988  57.0032387  86.0869751
   3.3461342  55.6039810  86.6499557  60.6915321  51.0184479  57.0853653
  61.1387787  51.5544510  57.7402725  60.0421829  51.6055641  56.6982307
  47.8232956  24.2417831   2.9563148  47.6868629  24.7849140   2.1800244
  48.6385002  24.5685368   3.3369842  82.8141785  69.0131912  64.2431107
  81.9900131  68.6808395  64.5988083  82.5676880  69.8079987  63.7700806
  84.4075851  35.7826385  12.5557194  85.2989731  35.4457283  12.6459961
  83.9299316  35.0808563  12.1134739  48.5689964  60.5270920  67.4854355
  48.6505013  60.9595261  68.3354950  48.7502747  61.2171440  66.8473206
  81.4541245  47.7714348   3.3772240  81.1725464  47.5161400   2.4987204
  80.8355179  48.4536629   3.6382132  45.1885757  70.5124817  13.5971355
  45.8158836  69.8208160  13.3866253  44.5194817  70.4444122  12.9160223
  54.1683540  54.5581818  45.2544327  53.7878647  54.9001579  44.4454117
  54.7698212  53.8721313  44.9649391  36.5211334  59.1091766  52.2951393
  36.5665855  59.8814774  51.7314758  36.1556511  58.4247322  51.7346153
  30.4669399  15.7401152  71.0448761  30.7832565  16.4620571  71.5879974
  30.5048580  14.9745874  71.6182556  25.7288647   2.5334923  70.7130356
  26.4304276   2.8267288  71.2944641  25.2951012   3.3402767  70.4352264
   2.4563599  50.3639603  40.2499352   3.3299427  50.7485580  40.3218384
   2.2132959  50.4913979  39.3329201  35.6666031  49.0235023  31.4370480
  34.9329262  49.2396011  32.0125885  36.0567017  49.8697739  31.2182369
  45.3686943  12.0762043  76.9880524  44.9630585  11.6605721  76.2271729
  45.8403358  11.3672075  77.4252167  26.9550800  38.5802689  55.4605370
  27.7146435  39.1306801  55.6511688  27.1115723  37.7762489  55.9558105
  77.3730164  35.1905098  74.7091370  77.2321091  36.1372719  74.7129364
  78.2840500  35.0850487  74.4350357  66.8321915  19.1495094  75.2000961
  66.6669617  18.2069187  75.2214203  66.8809128  19.4050293  76.1212769
  62.5991364  61.9588356  85.4797897  62.6637573  61.8401833  84.5321732
  62.8593636  62.8683739  85.6255875   5.9592991  63.5103073  30.5013542
   5.9253621  62.5847664  30.2595844   6.8807540  63.7499733  30.4027939
  50.4773140  28.8069305  54.8159370  51.0891609  28.1188774  55.0775871
  49.7503204  28.3379135  54.4063873  47.5169220  64.5091553  14.3228168
  47.9649162  63.7053986  14.5864677  46.5858498  64.2969131  14.3883038
  64.9877701  69.8821411  35.7240944  64.8905411  70.8242569  35.8626175
  65.0243835  69.5128403  36.6064262  55.7366905  14.5909119  69.2829132
  55.5824280  14.0717306  68.4936829  56.6517105  14.4207029  69.5065231
  77.5328827  16.0216217  36.5610542  78.2630615  15.9864130  35.9431305
  77.3084106  15.1046286  36.7190742  61.4337006  27.2435913  37.9583740
  60.7332382  27.6893597  37.4820595  61.0276718  26.9702148  38.7809563
  17.4353523  50.0500793  79.8059998  18.2405701  50.4826355  79.5218353
  17.6201496  49.7636719  80.7004547  65.4744949   9.1763954  39.7969284
  65.6233139   9.8695822  40.4400253  66.1512146   9.3150988  39.1343231
  75.3147354  53.8470497   6.4574842  75.3893967  54.2625046   7.3165836
  74.4151230  53.5215492   6.4262142   2.3412938  19.0493317  69.5020752
   3.2272580  18.6932755  69.4348221   1.8221742  18.5150452  68.9010086
  71.3460236   2.5503545  83.7542572  70.7578430   3.1204841  83.2590561
  71.9274673   2.1741564  83.0934830  64.2607193  56.0399857  60.3130951
  64.4244232  55.5772285  59.4913330  65.1066437  56.0392342  60.7610207
  34.6162872  42.3312492  31.5825806  33.9018784  41.9987793  31.0391541
  34.4697838  43.2764778  31.6187706  66.0885468  55.5705643  67.9447403
  66.0667496  55.7408142  68.8864288  66.5823746  54.7549553  67.8601761
  82.0327072  35.2140694  61.0698433  81.5057297  34.5562477  60.6161919
  81.4690704  35.9867058  61.1095695  32.9189758  31.9756832   7.6481361
  32.4369926  32.5395355   7.0431609  33.0867386  32.5301056   8.4101744
  63.8728638  66.1476288  55.4902802  63.9567223  65.2370224  55.7730942
  64.6465225  66.5821457  55.8492851  13.1125803  62.7994919  86.9766159
  12.7292633  62.0245819  86.5657425  13.3182077  63.3815231  86.2450485
  48.5605316  49.9092789  59.2470551  48.4277420  50.7207947  59.7369957
  48.9894600  50.1858521  58.4372635  20.2841148  12.7991343  79.1618042
  19.9621620  13.4901075  78.5828934  21.2346554  12.9118242  79.1636963
  85.9163132  12.2023087  25.4105988  85.1615143  11.6606522  25.1801300
  85.9570694  12.1622257  26.3660908  65.2592621  52.4391899  26.5064011
  65.3404846  51.6104622  26.9784603  65.2018127  52.1854858  25.5852261
  22.7803669  67.5621185  57.3148117  23.0482845  67.5547256  58.2337227
  22.6883888  66.6375504  57.0847015  16.2225056  54.8593826  78.7792740
  17.0536480  55.0778236  79.2008438  16.4455605  54.7436409  77.8556519
   2.3933876  66.0204544  69.6259079   2.5673840  66.1958008  70.5506821
   1.7744831  66.7024918  69.3651199  42.9791679  67.9665909  60.0918961
  43.6720467  67.3474808  60.3217850  42.3056870  67.8306427  60.7583618
  82.7914352  31.9018822  89.2601013  83.6784668  31.7306499  88.9437561
  82.2461319  31.2623634  88.8019562  48.8407516  63.5265732   5.9018130
  49.3260460  62.7077827   5.8003068  49.3511200  64.1700134   5.4101405
  74.9899826  13.1194029  70.2608871  74.4486465  12.3305063  70.2898026
  75.7762833  12.8885927  70.7555466  81.2716446  50.4830818  17.3935757
  81.3295975  51.1640205  16.7233562  81.1772537  50.9638100  18.2159023
   2.4685516   1.3912779  69.6841736   2.9391398   2.0017540  69.1166306
   3.1576924   0.9160254  70.1483383  43.7275887  60.8307190  39.9414177
  44.0423965  60.0920181  39.4204102  42.8465042  61.0006256  39.6081734
  41.2654991  67.4169235  38.8806000  41.2772980  66.9562607  39.7195778
  41.9531288  66.9945984  38.3657837  44.4582100  52.5720444  76.5895767
  45.1274757  52.1246948  77.1074448  44.8793869  52.7383881  75.7462692
   0.6407275  56.3702354  65.9284897   0.7099596  55.4268608  66.0750504
   1.5170932  56.7066536  66.1156769  26.0496502  27.8551483  77.5101852
  26.2331066  26.9846420  77.8634415  26.0300083  27.7293797  76.5614853
  60.1432533  36.1056480  70.2561493  59.5933151  35.8100929  70.9817200
  61.0125618  35.7595978  70.4580994  22.1224842  50.4524956  36.7409554
  21.9838409  49.5830994  37.1166725  22.9365749  50.7589912  37.1403885
  77.6067429   9.2296600  32.8038559  78.2609329   8.7795734  32.2693558
  77.9063644  10.1382437  32.8344078  18.0257740   2.4854333  86.0522919
  18.1683865   3.3941760  86.3170166  18.1284580   2.4942582  85.1006546
  23.4357204  50.5651550   3.2216558  23.3089428  50.1513748   4.0754390
  24.0995770  50.0267563   2.7907784  42.0218620  58.4084435  11.6045189
  41.1729012  58.4687805  12.0425386  42.4701309  57.6889458  12.0490522
  17.8260708  31.0803947  78.9553528  18.0004578  31.2481747  78.0292511
  18.5575962  30.5334148  79.2415619  32.5771484  53.9656715  33.6244049
  33.5016251  54.1433144  33.7976723  32.1678810  53.9610100  34.4896851
  42.3208199   8.8525019  79.4795303  42.7314110   9.5099812  80.0411072
  42.2129059   9.2917423  78.6359329   8.6063662  14.3618622  71.5414734
   9.3639622  14.0253820  72.0200806   8.1633663  13.5792894  71.2135086
  44.4703217  32.8751068  61.5710411  44.7615967  33.7817383  61.6680450
  43.5204315  32.9380913  61.4711914  18.1128426  17.6949749  78.9737015
  17.5037060  17.9422665  79.6694260  18.4457493  18.5279064  78.6395874
  24.2860088  63.7029114  19.4500237  24.9525433  63.8276749  20.1255970
  24.7666855  63.3488655  18.7018051  22.3265743   5.0682344  82.7649460
  22.2693729   6.0231271  82.7987213  21.5895290   4.8034573  82.2145996
  61.4523582  51.9568367  66.5958023  61.6773529  51.0734634  66.3038025
  61.2541008  52.4325066  65.7891617  20.6990643   2.0782788  73.0938187
  20.8693962   2.6798263  73.8186417  19.9306545   1.5797827  73.3718109
  81.3337936   3.2086556  60.8212585  81.0268555   3.7122798  61.5751724
  81.1232681   2.3004351  61.0381546  68.5508118  70.1602325  32.0042000
  68.0307922  70.9384384  31.8036766  68.4243317  70.0230255  32.9430351
  71.3629684  13.7426815  66.7499313  70.9337921  13.6721039  65.8972549
  71.3232803  14.6753454  66.9615784   1.3988515  47.1247139   0.0823509
   0.6595240  47.1160774   0.6902589   1.2833694  46.3352394  -0.4464437
  78.8349838  68.0281754  14.1874113  78.3229599  67.3246231  13.7885723
  78.6529160  68.7947083  13.6437998  21.0805264   4.8347101   6.6181302
  21.3263245   5.7048664   6.9322066  21.9018669   4.4494052   6.3128910
  20.1615753  18.9178352   7.7448888  19.3421955  19.4124546   7.7306976
  20.8235302  19.5583820   8.0051727   5.5497265  49.9999008  19.7938881
   5.7116446  50.9402618  19.8696251   6.2841196  49.6714172  19.2752380
  77.2101135  18.2128906  59.3928413  77.4698105  18.6639481  60.1961708
  76.2821808  18.4236317  59.2891045  78.2644348  23.5907555  59.2947464
  77.7340088  24.2118340  59.7938881  77.6638489  22.8745556  59.0883751
  70.1728897  51.2612228  14.1932411  69.4567490  50.6658325  14.4143333
  69.7494583  51.9830551  13.7285976  68.0579224  36.5057144   2.0420492
  67.1471939  36.3148842   1.8175708  68.5444717  35.7379112   1.7420856
   0.4441761  69.3955231  29.7991638   1.0236369  69.6314163  30.5236015
   0.1935341  68.4892502  29.9782810  46.9497261  13.8039627  35.7126465
  46.2260361  13.3142385  36.1033821  46.8762550  13.6317177  34.7739410
  59.3116913   7.1461511  38.4754639  60.2307472   6.9176764  38.3362923
  59.2390366   7.2818646  39.4202042  23.3276348  30.5544586  71.8357697
  23.5972061  31.4055538  72.1810226  23.1336288  30.0310898  72.6133804
  66.4526215   6.9323139  85.5351562  66.7248917   6.0407214  85.7523270
  66.9375153   7.4864864  86.1467056  49.9657440  14.7297373  25.4755745
  50.1049042  15.2043600  24.6560631  49.8937492  13.8124113  25.2118301
  66.8639984  40.0263100  44.8903046  66.1596832  40.6321411  44.6597900
  67.6031113  40.5920906  45.1135406  12.9713192  32.1778755  61.3601952
  12.0707006  32.2192039  61.6817665  12.8828592  32.0343857  60.4179535
  56.4111099  44.9960136  43.0093918  56.7761421  45.4614334  42.2568169
  57.1435738  44.4844398  43.3529320  78.3403168  14.0654411  40.3228722
  77.6022797  13.4605742  40.2475281  78.1427460  14.5887814  41.0996017
  20.4758759  44.7625580   7.7387352  21.0532284  44.7988968   8.5013466
  20.9527512  45.2325516   7.0546837  84.1993713  50.8401222  84.4349594
  84.2712326  51.3458061  85.2444992  83.6126404  50.1167603  84.6557007
  84.3248672   6.8955212  37.7649612  84.5800629   7.8126383  37.6649284
  83.5266342   6.9251800  38.2923775  32.5490990  35.2142868  19.3864212
  31.6765804  35.0469818  19.7427235  32.7956200  36.0661583  19.7466602
   8.0153494  47.9643974  64.8150558   7.1255751  47.6589813  64.9918442
   8.4821434  47.1832542  64.5181427  61.5698700  56.5320625  12.2982187
  62.3393555  56.7522964  12.8232174  61.9051514  55.9547005  11.6123114
  37.6400948  68.7851486   4.9706788  38.4451866  68.8252945   4.4544964
  36.9490471  68.6358795   4.3253851  20.9936638  51.2324944  28.3821220
  20.1808796  51.7313919  28.3001976  21.3340473  51.1808319  27.4889812
  57.9532394  69.6303329  28.2667046  57.6292953  68.8795090  27.7691612
  58.6433296  69.2692261  28.8231220  11.1084805  45.0098457  80.6151733
  11.2948656  45.0288353  79.6764908  10.9039564  45.9182091  80.8371735
  85.8564301  12.1183443  42.6089554  85.0674438  12.2747383  43.1278687
  85.9279099  11.1649151  42.5631752  42.8186607  55.1631012  11.9953537
  43.5192223  55.2943764  11.3564377  42.0951195  54.7982216  11.4858599
  80.2138290  57.0960083  19.5874901  79.4852448  56.5240021  19.3462296
  80.9963989  56.5715408  19.4179211  11.7610960  39.6657906  87.6880264
  12.4885054  40.2700462  87.5397568  12.0316467  39.1464806  88.4452209
  76.8353882  17.2675800   1.1471775  76.3202133  16.7605915   1.7747055
  77.2335968  17.9630413   1.6706227  27.8723698  40.5820847  28.9515305
  27.1354752  40.0909348  29.3148346  27.6491508  40.7008858  28.0283337
  62.9529190  67.0524979   9.9692945  62.5702667  67.5684967  10.6789074
  62.2001190  66.7407379   9.4669685  47.7028923  69.6610565  39.1620674
  47.7191200  70.5958557  38.9568443  47.3736725  69.6186218  40.0598679
   3.9240718  39.6071930  10.8033724   4.7886920  39.2079506  10.8996515
   3.3830531  39.1680336  11.4596262  81.3654861   8.7476778  11.2100830
  82.0909271   9.2795124  11.5373821  80.6776123   8.8501263  11.8677797
  72.0090103  20.0701275  84.0878525  71.4590607  20.6790123  83.5948563
  72.4096222  20.6082497  84.7706223  14.1861610  63.9331131  37.8692474
  15.0117273  64.2782745  37.5293427  14.1889553  63.0106392  37.6137848
  83.9221420  39.8547859  28.9286823  83.4934006  39.6840134  28.0900784
  84.1678467  40.7790260  28.8882370  83.8077011  55.6586761  48.3378792
  83.4250183  56.5359764  48.3490982  83.9474716  55.4701881  47.4098854
  35.6206093  28.1065884  11.2431459  35.6330833  28.0764465  10.2865019
  35.1269150  27.3280849  11.5008888   6.5765405   6.5645947   8.6085463
   7.3306742   6.3161106   9.1431208   5.9684286   6.9705997   9.2262774
  29.8545589  59.7366409  34.8005409  29.8891029  60.3352547  35.5466652
  29.6967754  60.3036499  34.0456657  83.7737198  58.4241943  13.7841949
  84.1468735  59.2787590  13.5680857  84.0737076  58.2505608  14.6764345
  82.7056351  48.2791214  49.7944412  83.3657684  47.7896080  49.3036842
  82.5413208  49.0583267  49.2633400  56.5960770   8.1269541  28.3019142
  57.4020996   8.2003870  28.8129597  55.9263000   7.8906579  28.9436264
   0.2129211  46.5101089  53.9045067  -0.3709502  46.1489792  53.2374916
   1.0109245  46.7367744  53.4269676  61.3824158  16.2287006  41.9673157
  61.8862534  17.0401993  41.9052353  61.0599976  16.0783806  41.0786781
  54.0964966  19.6191216  29.0509796  54.5525894  19.4177647  28.2338715
  54.7482681  19.4618225  29.7341232   4.1705818  61.3617020  64.2785721
   3.8590927  62.2602005  64.3876953   3.6520936  60.8512535  64.9005432
  64.4156570  45.0068932  86.9382629  64.6017838  45.5959625  87.6694183
  64.9146652  45.3688889  86.2060242  76.0137100  42.0014343  41.1295013
  76.4843445  42.5629539  41.7454796  75.8377457  41.1999626  41.6223717
  47.9470978  70.4857330  17.6318665  47.4669838  69.6993027  17.8911972
  47.3441315  70.9553146  17.0555439  54.5489922  66.0341797  21.4690723
  55.1933670  66.6538620  21.1270161  54.9052963  65.1730728  21.2504959
  44.8634834  45.2912636   7.1227236  43.9729958  45.5516281   7.3582439
  44.7474785  44.5390511   6.5422525  56.6737976  40.9433441  51.0541000
  56.3542633  41.5170441  50.3576813  57.2290611  40.3066635  50.6040459
  40.5317688  25.9534531  73.9787140  40.8227501  26.6549988  73.3961411
  41.2723808  25.3480244  74.0130920  58.4049377  17.3140087  58.2357864
  59.0725250  17.1264324  57.5759621  58.8429985  17.1545391  59.0717926
  69.9311829  62.7956123  65.3052444  69.6111755  63.0042992  64.4275894
  70.8019714  62.4253159  65.1609192  13.4989052  23.5261497  86.1446838
  13.1222782  23.8332253  86.9693604  13.6532326  24.3246193  85.6398468
  83.3556824  18.4821186  56.6181793  83.6248932  19.3838177  56.7933731
  82.5087738  18.5658493  56.1800423  75.4561310  50.5761070  83.9468765
  74.8436127  50.3199043  83.2573700  75.0032730  50.3599167  84.7619934
  48.5100822  22.1200371  18.4068108  49.0107803  22.4063530  17.6429024
  49.0610352  21.4543285  18.8185329  50.0590248  48.2609787  52.1340446
  49.8202400  48.8318214  51.4037399  49.9822617  47.3748207  51.7804031
  22.2419510  24.7950611  67.0915298  22.5012856  23.9031734  66.8601913
  22.9925346  25.3347378  66.8433304   0.6656569  30.9305725  26.8640022
   1.4995559  31.4003868  26.8531151   0.0072575  31.6076031  26.7078838
  69.5637894  30.0794487  47.0511780  69.4460526  29.3132725  47.6127357
  69.1599655  30.7977238  47.5382500  23.4086361  33.6977158   7.6413178
  24.3162689  33.4337082   7.4905348  23.2773438  33.5775795   8.5818291
  78.8637695  15.2023773  77.6950836  79.3452606  14.6131554  78.2757874
  78.5263977  15.8861217  78.2737961  84.9340820  50.1300240  18.8430805
  84.7271042  49.6791763  18.0244656  85.8903809  50.1676483  18.8606281
  36.6473541  39.8053856  20.6489887  37.5355759  40.0744133  20.8833389
  36.5770950  38.9061241  20.9693317   7.6199446  36.1167336  31.3628216
   7.8310990  35.4818573  30.6782932   8.2587643  35.9444962  32.0545387
  72.1287384  30.5981503  30.7448864  72.1201172  30.3261185  29.8271961
  71.6516190  31.4279251  30.7532215  57.0700302  68.4699249  74.5739517
  56.5031319  67.8046875  74.9642258  57.6523895  67.9784470  73.9946899
   8.9836750  59.0906372  36.5284271   8.8181992  58.7101212  37.3910141
   8.2276840  58.8296661  36.0024948  13.8920355  37.8205566  82.3951263
  14.7887316  37.7561684  82.7237930  13.9574652  37.5778389  81.4715195
  86.6232300  66.2630768  13.6878529  86.1096268  66.2705231  12.8801441
  87.2008286  67.0225296  13.6114159  47.6013565  68.5736542  36.6001816
  47.6532860  68.8277969  37.5215645  47.9130936  69.3419495  36.1218758
  80.8261108  41.8020706  65.6327057  81.3142395  42.5349312  65.2573776
  81.1924515  41.6947899  66.5104980  83.8647995  46.4138031  77.7123184
  83.8052063  45.7261963  77.0490875  82.9578171  46.5749435  77.9724197
  68.7799377  63.0865250  56.0876198  69.1164856  62.2087479  55.9074135
  67.8303680  63.0011330  56.0023804  14.0135078  46.5888939   0.7191790
  13.4060917  45.9895554   1.1528504  14.2473278  47.2241478   1.3959485
  33.9223518  59.9203339  10.1546526  33.1300087  59.5847588  10.5739517
  33.6584816  60.0986862   9.2519922  50.1197891   9.9552650  67.7304535
  50.2411766  10.6980953  67.1390991  49.4400635   9.4257793  67.3134995
  63.3517723  60.4739723  30.1709976  62.5671310  60.0000076  30.4465523
  63.6050644  60.9852028  30.9395809  60.1216240   7.5389223  24.5186195
  59.3444862   7.0233412  24.7341785  60.4792252   7.7994509  25.3674297
  81.3187180  43.2777405  53.2857552  81.1162338  44.2129784  53.3096199
  81.0000076  42.9853935  52.4318275  75.3274536  27.9175606  49.6119957
  76.0371628  28.4571400  49.2635574  75.1800079  27.2524242  48.9396210
  41.6971626  61.2724915  37.8554497  42.2785110  60.5146103  37.9177513
  40.8609047  60.9095345  37.5636215  77.0216141   8.6947689  24.8263569
  76.9445343   8.0974741  24.0823593  76.6524124   9.5195303  24.5106163
   0.8643594  69.0742340   6.4355288   0.9692368  70.0082474   6.6167607
   0.4823993  68.7161789   7.2368622  42.8218193  14.9668484  58.1369133
  42.3613281  15.3939791  58.8592300  43.5734711  15.5335979  57.9635696
  78.6276627   3.6940460  85.1206970  79.5845032   3.7203188  85.1216736
  78.4118271   2.8167286  85.4368591  13.1189852  17.0715771  71.2031784
  12.1843910  16.9042072  71.3246384  13.5139637  16.2009907  71.1552124
  75.6467438  21.5438385  67.2489853  75.9489288  22.2659035  66.6980438
  76.1399841  20.7840004  66.9398041  74.6604919  67.6027603   9.3822136
  74.6560516  67.9197769  10.2853823  74.2817841  68.3204880   8.8745890
  13.0437813  50.2261658  27.9882030  13.6838274  49.5645828  27.7257538
  13.1284533  50.9157982  27.3298149  62.2803726   9.4921188  21.0931377
  61.8168221   8.8241405  21.5982685  61.7813873  10.2950716  21.2431774
  59.9980202   1.5052311  47.9179382  59.2834358   0.9501183  48.2300987
  59.6872139   2.3990989  48.0615730   9.2651310  38.2186966  29.7656059
   8.4528990  38.3702621  30.2488651   9.7049046  37.5196953  30.2495766
  37.8494835  65.4524918   2.4663908  37.4580803  65.8297195   1.6785247
  38.2053909  64.6119766   2.1781318  84.5211411  20.9358139  41.3986549
  84.4665909  21.4406624  42.2100639  83.9929962  21.4310074  40.7724991
  84.4347610  27.5921612  52.5149155  83.4931335  27.4302807  52.4568634
  84.5155411  28.5457325  52.4947586   1.6600211  46.3928146   4.4450445
   2.4115121  45.8939323   4.1247191   0.9006397  45.9564476   4.0588355
  55.8340034  66.2593689  85.8515015  55.3286018  65.8167267  86.5333176
  55.3016281  66.1679764  85.0612793  57.2804070  14.9929438  35.9221077
  57.6107788  15.7408304  35.4243584  56.7399597  14.5093527  35.2973747
  12.2180624  43.4943390  82.5472565  11.8637943  43.8729820  81.7426758
  11.4643240  43.0835342  82.9707489  20.2225838  17.4950485  72.4312439
  20.1466980  17.2199364  71.5175781  19.5273418  18.1431065  72.5447769
  81.1669464  25.1303406  67.5878372  81.0300293  25.7273636  68.3234024
  81.7713013  24.4691906  67.9252777   2.9077284  41.8164711   9.2081242
   3.1622932  41.0498962   9.7217312   3.0988731  42.5611076   9.7784004
  82.3373566  49.7019348  78.8352203  82.0478439  50.3808517  79.4447098
  83.2387848  49.9416351  78.6202469   1.2112855  56.7240562  81.9997177
   2.0070138  56.8985977  82.5022964   0.9912441  55.8159180  82.2073288
  65.4422913  18.5091648  53.0512466  65.6550064  17.7865582  52.4606323
  66.2863388  18.7791843  53.4130478  29.4187012   5.1401353  67.9706039
  30.2063351   5.0160365  67.4410095  29.6358986   4.7509813  68.8177261
  77.3225861  36.2080956  60.7556915  77.4291992  35.2939224  60.4927101
  76.4510040  36.2438698  61.1497688  68.0864563  34.8007469  42.3145866
  68.6145782  34.2340851  41.7522545  68.6301041  35.5766945  42.4509239
   0.4407360  31.9854565  38.9092865   0.9548860  32.5520210  38.3340569
  -0.3210982  31.7394333  38.3845825  68.5195007  66.1805344  29.1928082
  68.8420944  66.9626160  28.7450180  67.8677444  65.8140564  28.5951958
  63.4254608  41.3017006  17.0872440  62.7080231  41.9225197  17.2141380
  64.2183380  41.8306236  17.1756382  60.7295380  64.9959183  14.6732597
  61.3054123  64.5429993  15.2892666  59.9078712  64.5062180  14.7091656
  64.6165619  54.8564415  13.6624737  64.3456955  55.7373581  13.4039202
  65.5282974  54.7930298  13.3779602  78.9603958  27.0102463   4.0241609
  78.1752853  26.6400928   4.4276743  78.9786987  27.9187546   4.3250089
  65.5256500  10.2375412  48.1676483  65.2814102  11.1015062  47.8357658
  66.3315659  10.0200653  47.6992035  40.9372673   1.6379921  15.1446543
  40.0434532   1.3255256  15.2849855  40.8310776   2.5407884  14.8447962
  22.3012066  45.8328552   0.9143256  21.8404217  46.4990158   1.4243634
  22.0569401  45.0041847   1.3264784  42.1993866  34.9963875  73.6605682
  41.6530228  34.5877609  72.9891968  41.5908966  35.5281868  74.1735611
  57.8318443  36.9077187  68.9671097  58.6627388  36.7386665  69.4112625
  57.9580307  36.5622635  68.0833817  83.6293335  22.2962666  47.3993645
  84.3777466  22.8889656  47.4688454  82.8855133  22.8701744  47.2160835
  33.1230392  22.5212765  72.3663406  33.3410873  22.8906574  71.5106277
  32.1674423  22.4658852  72.3668518  65.7662811  13.8402967   1.9981197
  65.1239014  14.5470457   1.9341314  65.3893585  13.2307758   2.6326661
   7.3771820   2.9382389   2.3989654   8.3013525   3.0881388   2.1997874
   6.9865789   3.8121080   2.3952997  78.6382370  11.5703945  52.7575607
  77.7865295  11.1491919  52.6417427  78.8376312  11.4560089  53.6867485
  56.1544304  45.7554092  78.3860779  55.8149872  46.6479149  78.3194427
  55.7540665  45.4057007  79.1820984  72.9577484  26.3777466  81.4818344
  73.3395309  26.3231049  82.3578949  73.4106369  27.1128578  81.0686264
  48.2128677  -0.2193697  36.4836197  47.6845818  -0.0789797  37.2693863
  48.4129524   0.6621811  36.1688690  32.5975266  36.1735611  74.6047516
  31.6673698  36.2695503  74.4002380  32.9667015  35.7324524  73.8396606
  42.6810989  37.3421822   1.5983150  42.5981598  36.9573326   0.7258212
  43.4662895  36.9361496   1.9655350   0.7309415   7.1322279  80.1890106
  -0.0679055   7.6575494  80.2349701   0.4202766   6.2302713  80.1103134
   0.0994773  59.3200722  54.6289291   0.9837765  59.6714439  54.7327881
  -0.2737038  59.8211441  53.9037399  55.3687592  33.9407692  88.4476242
  54.7090569  33.5618477  87.8667221  56.2044029  33.6464081  88.0852966
  15.1407185  66.2478333  79.0785751  15.6411009  65.4481735  78.9161377
  15.7964411  66.9451599  79.0770340   7.5301714  52.1157494  39.5017128
   7.6571259  53.0541725  39.6412811   7.9428954  51.9414139  38.6558418
  68.9985809   8.6489906  79.6965866  69.1323776   8.7914381  78.7595444
  68.3970566   9.3449755  79.9611588  63.6715355  71.2932129   6.5249586
  62.9556541  70.8182983   6.1028161  63.9342766  70.7316589   7.2542396
  73.1853485  38.9811401  39.2449837  72.8979111  39.1772575  40.1366959
  73.0060349  39.7828712  38.7537537  82.8019409  37.2559357  49.9248352
  83.5166702  37.3276558  49.2921791  83.2202225  36.9336548  50.7232170
  83.1314926  24.5262852   5.8797255  83.7669830  25.2420883   5.8771257
  83.6584549  23.7386494   6.0145149  31.1383667  66.1261368   9.8770332
  31.4085274  65.2103577   9.8092518  30.8299770  66.2187881  10.7784452
  33.4458504  46.9118118  36.3754349  33.7437820  46.1804581  36.9163513
  32.4921036  46.8309746  36.3676147  50.5678482  70.9875259   9.8113527
  49.8700066  70.3343811   9.8627825  50.3029823  71.6700821  10.4279556
  16.0274544  30.5995502   8.6617546  16.2116089  30.9064789   9.5495129
  15.2517834  30.0465946   8.7555876  60.5465622  27.1078186  57.0314217
  60.0024414  27.7545509  56.5820885  60.8309402  26.5114059  56.3388519
  74.3812943  30.2767525  84.6959076  73.4619370  30.4577351  84.5002899
  74.8058853  31.1340923  84.6655960  58.2217064  51.3269157   8.1826363
  58.5415459  51.5984955   7.3222980  57.4401817  51.8604088   8.3269806
   0.5288904  34.1663933  25.0584965  -0.2881676  33.6684151  25.0842953
   0.7725731  34.2745819  25.9778156  70.6715240  69.5338058  88.7390976
  69.8291626  69.6455994  88.2984543  70.6570816  68.6314240  89.0580521
  53.4357033  53.7826576  83.5972824  54.2773743  53.3268929  83.5874176
  53.1610222  53.7982674  82.6804733  83.6347885  30.4864426  26.8814011
  83.9767227  29.6031609  26.7431164  82.6838303  30.3836002  26.8447704
  19.8704319  45.3063431  43.4634781  20.2462864  45.6164360  42.6395836
  19.2658005  46.0000343  43.7270012  64.3292389   6.0980105  67.8701630
  63.6639137   6.6977930  68.2075653  64.9151230   6.6543913  67.3569336
  -0.0450691  55.5266380  73.8758698   0.0281637  55.6727905  74.8190079
   0.8427057  55.6589851  73.5433426  50.7758217  24.6335678  63.1402283
  51.6025848  25.0620651  63.3617744  50.4436264  25.1271687  62.3904037
  61.0386696  30.5110931  68.5866241  60.7758865  31.4250431  68.6955948
  61.5872116  30.5114975  67.8021927  79.1482086  62.9282303  16.3523674
  79.2516251  63.3352432  15.4922047  78.3547821  62.3987045  16.2729473
  82.8244553   0.4400800  29.2959518  82.7630157  -0.4130035  28.8661785
  82.1569672   0.9739678  28.8650780  31.8245506  49.8219109  43.3982124
  31.6549435  50.2775459  44.2227478  31.4264297  48.9592972  43.5149498
  80.5511398  52.2257614  19.3871403  80.2511978  52.5610390  18.5422401
  79.7461319  52.0399246  19.8705177  64.1473160  52.2926064   3.1004190
  64.0540619  53.1875191   3.4270215  64.0194626  51.7413521   3.8724329
  42.4358749  43.3395157  14.8287888  41.6582565  43.4502296  15.3758593
  42.4888382  42.3960838  14.6759319  23.7017593   3.9415469  30.8064232
  22.8875980   4.4374480  30.8927708  24.0282745   3.8592851  31.7024422
  85.4065018  71.0621948  15.8104448  85.6046677  71.5051346  14.9853601
  84.5557404  70.6492844  15.6623030  85.6558380  30.6790562  57.7400551
  85.1853485  31.5067425  57.8390846  85.5834503  30.4724045  56.8082352
  15.2976446  41.8581390  80.1864471  15.0063772  42.4836197  80.8498993
  16.0705471  41.4441719  80.5704803  34.0085068   8.0384636  81.3523407
  33.5682602   8.5600557  82.0234299  34.2600479   7.2320476  81.8025055
  76.6743011  46.5780487  49.9043007  76.0387726  47.2916718  49.8488960
  77.1010666  46.7026634  50.7519875  54.8386154   5.9342704   7.4386253
  54.6302032   6.6175361   6.8014870  55.4532433   6.3500371   8.0432739
  69.7100830  63.7950478  84.9082336  69.5603638  64.1786346  84.0441284
  69.8784866  64.5458069  85.4776459  14.7602873  57.8645592  64.0145111
  14.2219677  58.3700409  63.4054718  14.2524986  57.0703278  64.1805801
  47.5365181  25.0539627   0.3953234  47.1061897  25.6089745  -0.2550682
  47.1784172  24.1801319   0.2390754  14.3460894  53.1299706  52.9022598
  13.7116747  53.4004593  53.5660248  13.8671284  53.1877785  52.0755272
  75.8484421  52.2223854  39.7516327  76.5774765  52.6441116  40.2064934
  75.8219299  52.6485748  38.8949585  19.5244961  69.0648346  23.1842918
  20.0426102  69.7844238  23.5448208  20.0594139  68.7190781  22.4697685
  38.9409561  47.5728912  79.6381760  38.5396919  48.1868935  80.2531738
  39.7762756  47.9783440  79.4056168  49.7094498  16.7878819  12.9953375
  49.8964653  16.5585461  12.0850286  49.5176010  17.7253571  12.9715939
  24.8450775   4.7107348   0.9214756  24.9403019   5.5929484   0.5625000
  23.9014473   4.5502520   0.9154145  72.9268112  42.3340340  43.2092934
  72.9976730  42.4927864  42.2680130  73.4555359  41.5505791  43.3605270
  65.6989212  45.9555893  12.7702971  65.0631027  46.6663437  12.8527088
  66.3179321  46.2635384  12.1083126   4.8638492  57.8062706  54.8761864
   4.1640191  58.3180161  54.4704933   4.4068074  57.1584930  55.4125900
   4.5752006  53.6958580   8.8262691   4.2518153  53.2650871   9.6175261
   4.0524116  53.3197708   8.1181154  69.9691086   4.7922969  26.7544212
  69.9423828   5.5785599  26.2091618  69.1258774   4.3659415  26.6014099
  14.4314852  62.8317299  51.2417564  13.5507374  62.5186424  51.4478951
  14.4037037  63.0251961  50.3047256  86.6889496  43.3642273  82.8998032
  86.5477524  43.9605675  82.1644974  86.2886810  42.5407753  82.6206284
  48.1070786  46.7855988  46.4611931  48.1046333  46.9907799  45.5262451
  47.2154655  46.4889984  46.6436462  14.7314110  30.9291439  87.1830215
  15.5647640  30.5712318  87.4890518  14.2651196  30.1752224  86.8218994
  73.7900620  31.5910034  59.3530846  74.3743668  31.4652519  60.1007500
  73.3532791  32.4245834  59.5279999  51.5629463  39.8245049  68.5811081
  51.5999374  40.5304756  67.9357605  52.3427048  39.9526863  69.1212769
  47.1199913   0.1995378   8.7939310  47.6406441   0.5269788   9.5273705
  46.4827843   0.8933030   8.6239586  85.5798416  69.4352112  85.4802094
  84.8194885  69.6942215  84.9596252  85.2181396  68.8856125  86.1754456
  18.9109497   1.2324913   1.2144514  18.3903980   1.4323932   0.4364441
  19.6815128   1.7952023   1.1381403  49.1031837  60.3077888  19.2306595
  48.5729179  60.9272118  18.7292938  48.4780655  59.8704376  19.8087463
  72.8108292   3.0853477  54.8296356  72.1206894   3.6252408  55.2149315
  73.6204910   3.4213123  55.2141037  79.0151825  42.8834419  74.7835007
  79.0311890  43.8397179  74.8224106  79.7517166  42.6091385  75.3298569
  22.2494659   8.3100777  15.0887756  22.2457237   9.2246342  15.3712711
  23.0173378   8.2376432  14.5218906  69.4079285  10.7722235   3.9247959
  70.1890869  10.6718750   4.4688115  68.6852570  10.8229465   4.5504208
  63.2681885  32.3879318  82.6477661  64.1495514  32.6585350  82.9050598
  62.7363625  33.1774330  82.7481689  41.5054398  56.3173790  72.3451004
  42.0675888  56.7553558  71.7060394  42.0219498  55.5696793  72.6457596
  43.1295738  46.7872047  59.7575111  43.5950813  46.6428909  60.5813522
  42.3061333  47.2005844  60.0169258  77.8608551  38.9246712  70.5081406
  78.0320663  39.6749153  71.0774002  76.9272232  38.9855232  70.3060074
  74.2426147  55.6083145  22.0820255  75.1065292  55.7080612  22.4819546
  73.7969513  54.9641228  22.6321449  86.1453171  38.6178474  50.6897354
  86.2951965  37.6967125  50.9025116  85.8086014  38.6049957  49.7938080
  30.6123905  69.7902603  24.5320148  30.8574123  70.5364838  23.9848919
  30.5193787  70.1579437  25.4108734  82.5444717  31.6226692  13.2016993
  82.8406448  32.0655060  12.4064589  83.0273361  32.0511589  13.9084320
  67.3655472  16.4379234  30.7428627  67.5734940  17.2388821  30.2617645
  68.2154236  16.0285263  30.9051533   5.4397545   5.6846490  68.4496384
   6.2374368   5.3983760  68.0046844   5.1701064   4.9270811  68.9688797
  28.0467834   0.7522432   7.8462353  28.6060352   1.3418374   7.3404217
  27.2142811   0.7477943   7.3738456  35.2155190  14.6239481  88.4005966
  35.5724869  13.9630041  87.8073349  34.9201355  14.1266870  89.1632919
   5.8944302  58.5071907  24.4274845   5.7309670  59.2284012  23.8197308
   6.1620455  57.7782822  23.8677483  69.0630646  66.8853378  33.5066948
  69.5061798  66.5256805  34.2751541  69.0230255  66.1547699  32.8895226
  33.7942047  27.7110252  13.9843950  34.4124832  28.0791817  14.6156034
  32.9612961  27.6800938  14.4550753  69.3388596  35.3233871  78.7471008
  68.6901016  35.0676880  79.4028168  69.0723495  36.2019730  78.4763870
  81.2927170  15.5476561   0.6333265  81.4830704  15.3306274  -0.2793050
  81.7419662  14.8705673   1.1392519  55.4939346   0.9482285  86.7332993
  55.0435371   0.5487318  85.9891357  55.1686630   1.8482039  86.7551041
  70.2857819  43.4504433  75.0957031  70.8930817  44.1842194  75.0008774
  70.3997650  43.1606369  76.0008316  49.6469841  32.3880196  72.7875366
  49.7864876  32.5004616  73.7278137  49.0956154  31.6086025  72.7187195
  33.5117035  49.5740013  58.4714394  33.0902557  48.7195702  58.3789253
  33.3617287  49.8173866  59.3849487  76.9846649   9.7818365  -0.0094460
  76.9357986   9.7032890   0.9432734  77.6990738   9.1968288  -0.2616723
  39.2346878  61.1519012  66.7449875  39.8450661  61.8206711  67.0554962
  38.9254951  61.4828224  65.9017105  17.3568115  43.5639458  44.6456223
  16.7599735  43.8332367  45.3438301  17.8380642  44.3604279  44.4214554
  44.6695976  59.5957870  62.6556473  43.8016930  59.8807755  62.9415703
  44.8573036  60.1342812  61.8868637  25.3622932  15.9900703   9.2366209
  26.2336998  15.9922848   9.6326971  24.7851696  15.6686106   9.9293146
  77.9119186  40.1350937  39.8289223  77.7137451  39.5312767  40.5447197
  77.1568985  40.7224922  39.7951088  30.4201183  53.3317451  35.6066856
  29.8082199  53.9952850  35.9253235  31.1802807  53.4104652  36.1830444
  62.3171577  18.6658020  42.2481003  62.1703720  19.0472431  43.1136589
  62.8774414  19.2989197  41.7992363   1.6087568  20.0510635  83.8015976
   1.4485903  20.3521996  84.6959610   0.8591319  19.4911880  83.5995255
  53.8631363  37.6013107   2.6039820  54.1279488  37.7620316   1.6982919
  52.9469795  37.3312035   2.5413094  79.8079529  19.4781876  56.0844269
  79.0477905  20.0537834  56.0003090  80.3394165  19.6687984  55.3114777
  86.5802612  17.2302704  63.7935524  86.9723511  17.0274868  64.6428909
  85.7219849  16.8072433  63.8188400  47.9136314  18.9696236  37.4665604
  48.3700600  19.7416592  37.8010216  47.9188766  19.0814018  36.5159225
  48.8136101  56.9261360  26.0980968  49.6058693  57.4623756  26.1297073
  48.5307312  56.9703751  25.1847210   9.6451368  60.5349998  50.5510979
   9.9550467  59.6891289  50.2275391   9.1360569  60.8969574  49.8257980
  67.5515137  62.3731461   5.9842677  67.3438416  62.6009560   6.8904724
  67.4142532  63.1847954   5.4957833  40.7951393  18.4755745  15.0836439
  40.4721832  19.3760910  15.1152143  40.1726074  18.0175209  14.5189552
  28.4032879  37.8257408   7.6248569  28.7941570  38.0332985   8.4736052
  27.6431293  37.2841873   7.8372459  35.6241837  58.4505844  49.4960175
  35.0701256  57.7577248  49.1365814  35.1190186  59.2531013  49.3655891
  33.6721878  70.3585510  25.7706108  33.5301666  71.3012619  25.8564091
  33.9859543  70.0842056  26.6323051  37.2445526  20.8995552  62.7561913
  36.3437042  20.9205017  63.0790863  37.4839325  21.8207169  62.6542702
  10.9533148   2.4929211  53.8415108  11.5996008   2.8108473  53.2110596
  10.5326090   1.7543063  53.4014130  78.6358871  66.8044891  53.2247238
  78.1843033  66.1563950  52.6840973  78.7495575  66.3727341  54.0714226
  49.6661949   6.4304318  22.0655727  50.0749741   7.0340128  21.4452324
  49.2561340   5.7629719  21.5155029  80.2036285  38.6505966  72.9293594
  79.7162781  38.2260437  72.2233353  79.8022690  39.5157547  73.0108871
  63.6771622  36.2496033  81.4473343  62.7203865  36.2755928  81.4355621
  63.9310112  36.3584633  80.5308533  11.8722391  40.6085815   7.6651864
  12.4106331  40.9477692   6.9501228  11.8911486  39.6585960   7.5494175
  48.9499741  55.2033958  28.3797073  49.4194603  55.7204018  29.0343189
  48.9553642  55.7499809  27.5939293  40.9706078   7.6071815  70.2215958
  40.1538124   8.0375004  69.9688034  41.4927750   7.5943298  69.4194641
  27.6201973  48.1227798  59.5004120  28.1727829  47.3427925  59.5504074
  26.7580147  47.7899208  59.2512589  27.2394447  38.4297905  86.7239227
  27.7609940  37.6701012  86.4649048  27.7593212  39.1835709  86.4450455
  39.2978668  22.0520859  86.2811279  39.9134789  21.4428329  86.6886368
  38.6764603  22.2659855  86.9770660  53.3029556  19.0950718  87.0199356
  53.7347603  18.8790054  87.8464279  53.2551422  20.0510731  87.0174484
  86.6193390  45.0660896  28.3618202  85.8403625  44.8645439  28.8802872
  87.2387695  45.4326782  28.9928093  60.9415398  61.3951759  88.5421677
  61.1063347  61.5363312  89.4744492  61.3522110  62.1441994  88.1102600
  31.5441780   4.0496435  14.2646751  31.4186211   4.8783813  13.8024406
  31.2906723   3.3801773  13.6292372  35.4338837  -0.0560815  38.7299194
  34.5826721   0.3645737  38.8512383  35.9117317   0.5339559  38.1470413
  42.0224228  60.5806007  59.4405708  41.5828018  60.1321869  58.7181511
  41.4016685  60.5294838  60.1674004  74.3923798   3.5189219   7.8656144
  74.0120239   4.0031691   7.1327682  75.3366241   3.6443722   7.7712693
  11.2570925  24.3378429  81.9218674  10.9898567  24.2867718  82.8395844
  10.6025410  23.8205070  81.4526596  16.6549244  49.8700752  46.0546188
  16.5505733  50.8190117  45.9849129  16.9386196  49.5956192  45.1825981
  57.5395432  70.9630356  75.6225891  56.8290253  70.9008713  76.2609711
  57.4449806  70.1788864  75.0818481  83.4226456  30.6097775  67.3338776
  83.8945084  30.7601852  66.5147552  82.9340591  31.4196339  67.4810104
  26.9697075  38.2554436  71.5377274  27.6043205  38.0434227  70.8532181
  26.1673431  38.4705429  71.0621490  66.0752106   2.0051608  40.8286095
  66.3131104   2.5801725  40.1012878  66.6767654   1.2642708  40.7548447
  42.4153175  17.4346771  85.8712616  41.9899406  16.7037601  85.4228745
  41.9864502  18.2143326  85.5185013  50.6098366  68.7045670  38.9690590
  50.5713272  68.0207520  38.3003654  49.9748535  68.4290543  39.6302147
  21.6367626  19.0441628  67.8854675  22.3276558  18.4991817  67.5087814
  22.1034279  19.6889057  68.4172211  62.6371689  35.1386642   3.8176296
  63.4710808  35.4756966   3.4901645  62.8833084  34.4930153   4.4800363
   5.2402687  52.7173691  20.7484818   4.3727412  52.4876289  21.0814209
   5.7919822  52.7635307  21.5293236  60.7981873  10.1000576   2.9717040
  61.6879692   9.9660234   3.2981396  60.8669014  10.8603868   2.3942876
  80.6979370  51.4905396  76.7853851  81.3614731  52.0637703  76.4015198
  81.1994247  50.8320961  77.2662201  19.2373714  55.5233688  39.2473412
  18.3770294  55.2454300  38.9330215  19.7880840  54.7456894  39.1570053
  79.8431702  67.3260269  86.6537933  80.4226837  66.6580276  87.0200882
  79.1662445  67.4470825  87.3196411   7.7937689  16.6574631  57.2934723
   7.9800892  16.4865437  56.3702698   7.3727145  17.5170727  57.2976799
  79.2999191  28.7785816  62.7346420  80.0856934  28.9880848  63.2395134
  79.5126343  27.9580708  62.2899551  81.1976318   2.3730330  69.5038147
  80.3134537   2.7396195  69.4957504  81.1958084   1.7593950  70.2384415
  50.7344933  53.4002953  56.0351334  50.3105011  54.2576027  56.0737343
  51.2719421  53.3630524  56.8263321  85.2555389  47.0559120   7.6728115
  85.2111130  46.5434303   8.4800415  85.0696716  47.9535294   7.9484391
  39.4979210  58.4912376  58.4168587  38.7270584  57.9698143  58.6407394
  39.9087486  58.0140228  57.6959457  60.5180016  15.4325867  66.8346100
  61.0940514  16.1753731  66.6538620  60.5245056  15.3509588  67.7882996
  46.8826523  61.6701241  41.0943604  46.0883255  61.1846771  41.3171196
  46.7834091  62.5102654  41.5421829  73.1654510  26.2092075  16.7251701
  72.3894501  26.7157516  16.4854546  73.8702164  26.5874500  16.1993694
  47.4270401  16.0796623  69.3456650  46.8050156  16.0855427  70.0731812
  47.0229645  15.5116863  68.6896439   9.4502125  34.8997002  61.6130028
  10.0474033  35.6477203  61.6051826   9.6450891  34.4462051  62.4331207
  55.6431160  10.9035330  27.5402336  55.2042046  10.0529194  27.5470428
  55.0243530  11.4888363  27.1034451  63.7542839  46.8003120  47.0955620
  63.0297966  46.3571701  46.6539993  63.5364685  47.7306480  47.0384789
  53.6227036  30.4260654  53.8588486  52.7645416  30.8300114  53.9877586
  53.5037498  29.5174923  54.1355705  35.4414139  62.0005951  82.9949493
  34.8680801  62.7642212  83.0612869  36.3262100  62.3582764  83.0686722
  32.0498199  71.0127411  82.2962646  31.4283810  70.9294052  81.5730133
  31.6557369  71.6637878  82.8768387  54.5944328  11.1658688   9.3254366
  55.5155640  11.2478085   9.5724878  54.1192398  11.6281719  10.0158710
  29.9569378   5.5542231  64.2949905  30.4543800   5.3807793  65.0941772
  29.2087002   4.9593306  64.3447495  61.7843246   8.0189114  59.4051018
  61.3558197   7.1787558  59.5686684  61.2267494   8.6615543  59.8436852
  36.3484154  13.4321785  71.9527512  36.6581306  12.5534859  71.7331924
  35.4087677  13.4070492  71.7720184  51.6970253   4.5822234  76.5054245
  52.4536247   5.1643262  76.4350891  51.0057335   5.1315455  76.8750076
  62.9105339  60.8016853  54.1255379  62.4589043  60.3891296  54.8617859
  63.2446823  61.6253700  54.4806671  69.9007797  22.3978844  65.9968109
  69.8333969  21.5433884  66.4228745  69.8033142  22.2085590  65.0635986
  36.3181114  45.4948196  63.6504631  36.8332634  44.7449722  63.3528442
  36.2020187  45.3482132  64.5892181  84.0384827   4.4020848  60.7794609
  84.5528793   3.9932444  61.4755096  83.1903763   3.9599059  60.8171310
  76.7618790  11.7380085  41.1576920  76.6772461  10.7852573  41.1211891
  76.8772583  11.9327564  42.0877419  39.1980209  34.4258690  19.2451630
  39.4571266  33.7822037  19.9045525  39.1007690  33.9178238  18.4397659
  67.0910187  49.8261185  50.9130478  66.2301483  50.0238419  51.2818718
  67.1214142  48.8701630  50.8748741  16.2785912  16.7303047   8.7901011
  16.4462986  17.3631134   8.0917740  15.3388720  16.5566349   8.7353468
  44.5539703  39.4799995  58.5965958  44.4827309  40.4077415  58.3719864
  44.3207474  39.4395180  59.5240669   4.7184858  50.1588974  45.5382881
   4.9590344  50.9867210  45.1222649   5.4209967  49.5557861  45.2954597
  78.3796005  65.4250717  20.4953194  79.2755127  65.5875244  20.7905846
  78.4684219  64.7539749  19.8185825  42.2752533  53.6573677  14.3827648
  42.1691628  52.7231140  14.2034702  42.3850098  54.0559769  13.5194597
  76.3093338  65.6176910  34.6018524  76.0232162  65.1277695  35.3727913
  76.4822693  64.9462280  33.9419518  66.4690704  17.2119350  20.3362350
  66.5383835  16.3301449  20.7021198  67.3679276  17.5409889  20.3323936
  25.3304863  65.5848999  52.2117996  24.4816341  65.6277771  51.7715263
  25.9301472  65.2522583  51.5439758  28.2833405  57.2529259  68.9826355
  28.2331829  58.0781250  68.5001755  29.0873528  57.3247375  69.4970627
  29.6973362  37.5159950  17.0043430  29.8355751  37.4568291  17.9496593
  29.8275394  36.6224213  16.6868534  48.2556686  67.4773636  20.5865173
  48.6217690  68.3608551  20.5459633  47.8455124  67.3485718  19.7312889
  77.5456009  28.5402851  29.2913723  78.4800262  28.7073402  29.1681614
  77.5053787  27.9448643  30.0397644   9.7978725  61.2021561  77.7253876
   8.9633541  61.4071617  78.1470337  10.4032869  61.8649635  78.0576324
  48.8323517  68.9604340  23.7671242  47.9556618  69.0773010  24.1331692
  49.0344467  68.0373154  23.9195633  26.3713169  52.0009117   0.6125409
  25.7121696  52.5076904   0.1382744  26.3141422  52.3177528   1.5139700
  55.0350189  21.5866432  18.3335381  55.9188538  21.5794525  18.7009850
  54.9695892  22.4288960  17.8834686  59.0759239  55.7137413  13.3360167
  59.4492645  54.9757156  13.8178549  59.8218956  56.1048660  12.8812943
  44.2885361  24.4970818  82.6568146  45.2379150  24.3750095  82.6533966
  44.0780640  24.7632961  81.7617874  70.6691971  61.5274773  16.5537415
  71.4892654  61.1069374  16.8123302  70.0910110  60.8013611  16.3199024
  64.4493942  55.2717247  47.1640205  65.0048294  54.6959457  46.6384735
  64.6088638  56.1467056  46.8101807  65.6295700  62.0796471  71.1910172
  65.7805939  62.5064697  70.3476639  66.2615128  61.3610229  71.2123260
  19.4129486  42.8526039  29.6177311  18.7016773  42.8233299  28.9778347
  19.8351364  43.6985207  29.4680309  77.5727844  61.7045975  30.6354027
  77.9102325  61.5214806  31.5122299  76.6400909  61.8739281  30.7682533
  67.1494370  51.1413841  44.0649910  67.9854813  50.9233818  44.4769897
  67.3818436  51.3974953  43.1724472  78.1684570  35.0824242  67.4643784
  78.8554993  35.2715263  66.8252792  77.3770370  35.4649582  67.0854874
  15.8235950  69.8775330  45.2066650  16.5703049  70.4763107  45.1954880
  15.3870268  70.0546341  46.0398979  69.9079437  26.8854065  80.1849060
  70.3738480  26.6897125  80.9978485  69.0084915  27.0617409  80.4608231
  52.1258659  57.7284508  54.3610115  51.9730110  58.3311539  53.6332664
  51.8585014  56.8733559  54.0240250  25.2752399  59.9211884  59.3479233
  26.0782318  59.9193916  58.8269310  25.5747547  59.8080521  60.2499886
  21.5239563  37.7718201  84.7066345  22.4574432  37.8013077  84.9163132
  21.3473988  36.8479271  84.5292053  24.5987682  18.0824051  70.7788010
  25.0938702  18.4652023  70.0545273  25.2312851  17.5264969  71.2339020
  75.5189209  18.7601833  39.0761452  76.1286316  19.4320774  39.3811722
  74.9557877  19.2144833  38.4494705  26.9733772  48.0166397  33.4788780
  26.3740025  47.5429726  32.9021454  26.8872585  48.9323654  33.2138138
  34.8114700  31.5804253  86.7853928  34.7399902  31.8942814  85.8839417
  34.5748672  30.6542435  86.7360153  55.5284691  30.0983982  80.7566910
  55.9283447  29.2868252  81.0692291  56.1828575  30.4773102  80.1698074
   7.8972874   4.2306590  72.8535690   8.2842321   3.3704081  72.6908569
   8.6287012   4.8422413  72.7685242  71.6943512  62.4955406  74.2881546
  71.8383026  63.4374046  74.1964874  71.9439621  62.1313210  73.4388733
  74.5147858  49.7482643   0.7119769  73.8764801  49.0349693   0.7096096
  75.0533066  49.5852013   1.4863428  74.6203918  14.4513407  58.0007095
  75.3390121  14.6112013  58.6124763  74.8088989  15.0217085  57.2554741
  26.9795113  64.9795456  33.2602196  26.5890141  65.7361221  33.6976433
  26.3120346  64.6922150  32.6372032  55.3590126  35.2284317  29.2165508
  54.8562317  35.8708076  28.7157593  54.7694664  34.9592743  29.9209824
  75.9791794  25.2214165  68.2342911  76.5553513  25.9832859  68.1725693
  75.3599777  25.3303032  67.5125122  48.5865402  28.4994183  25.4867153
  48.6315651  27.6250496  25.8736057  48.4225731  29.0814896  26.2286987
  82.3575134  15.2834129  40.9232788  82.8530121  16.0614433  41.1789780
  82.9794083  14.7581844  40.4196854  41.5238914  55.1172791  68.8993530
  42.3729630  55.5145607  68.7057800  41.5732079  54.2446442  68.5090866
  76.4213409  24.5064583  49.3367233  77.2124405  25.0328064  49.4522820
  76.7319183  23.6011429  49.3502121  15.5322800   7.2858410  83.4703903
  15.1774511   7.8258662  84.1765747  14.7681103   7.0425949  82.9477921
  66.4627380   5.9105692  24.2390709  67.0078964   6.4280224  23.6463833
  65.6971436   5.6742682  23.7153759  46.8330727  11.8018951  57.1906052
  46.8959846  11.9333210  58.1366501  45.9089470  11.6053419  57.0370293
  39.4426422  17.8970814   1.4992168  39.3309860  17.2233715   0.8284869
  40.1642036  18.4377365   1.1778501  79.8862381  64.9027939  40.2950859
  78.9528809  65.1108856  40.3371811  80.2047882  65.3843155  39.5316086
  17.5839214  36.6056786   8.5232544  16.7199993  36.8306274   8.8686085
  17.9401531  37.4367676   8.2092113  74.4358978  13.4475946  28.6306629
  73.8662796  13.9472733  29.2155457  74.3670502  12.5452471  28.9425297
  59.3322029  48.0325127   5.0577645  59.7191315  48.6723709   5.6553397
  60.0757980  47.6834793   4.5663657   9.8382969  68.9361496  14.5522814
   9.2933874  68.5116272  13.8896465  10.1051817  68.2248077  15.1345205
   1.2786727  10.6239872  24.4085484   2.0559292  10.7487125  24.9531097
   0.6065052  11.1649303  24.8230400  25.3445816  56.0331841  49.0253944
  25.1374722  56.0260048  49.9598923  25.7553291  55.1836853  48.8645668
  76.2159195  23.6070118  55.2039566  75.8864746  23.8562412  56.0674286
  75.4447098  23.2853928  54.7370300  84.1496506  49.8784294  44.4093628
  85.0891724  50.0461960  44.4827576  83.7499695  50.7481804  44.4139481
  27.1592808  31.7675972   1.3918364  27.2188911  31.1095905   2.0844450
  26.3762646  32.2735596   1.6089014  17.2615051  25.1572533   3.3160527
  17.2029495  25.5560360   2.4478502  18.1774445  24.8910065   3.3960495
  51.7777328   5.3935404  20.4453297  52.1446419   5.6059752  19.5871449
  51.6781311   6.2407227  20.8796024  64.4368591  25.0853691   8.9505110
  64.8438034  25.8208923   9.4083738  63.6464157  24.8962421   9.4561396
  13.0867958  36.8315811  87.5224380  12.1590748  36.6065598  87.4522171
  13.1377859  37.4004936  88.2905350  22.7387028   7.9957042  73.7815170
  23.0867500   7.9535270  74.6721954  21.8383560   8.3018808  73.8904343
   7.5223207  20.4537735  20.5398083   7.1305580  21.2574310  20.1979160
   8.0344353  20.7399197  21.2961750  63.8866119  64.4838257  84.4186630
  63.8662338  63.7708931  83.7802734  64.7943802  64.7873306  84.4098587
  52.0125618   2.7907546   5.9675460  51.3029289   3.1502278   6.4999309
  51.8840370   1.8429842   6.0055470   2.4378104  13.7132931  78.9054794
   2.7525504  14.3090096  79.5853958   2.8461895  12.8733587  79.1151657
  53.3629646  51.2312202  22.1494179  54.2556725  51.5765228  22.1410217
  53.1274071  51.1988068  23.0766144   9.0698814  56.6317139  60.1450005
   9.5553074  56.7771034  59.3329315   8.4040117  55.9842606  59.9133682
  22.0549107  10.2699556  79.0130081  21.9556065  10.9292212  79.6998444
  21.9277382  10.7534475  78.1967392  74.0704269  56.8467484  47.6360512
  73.2851791  56.7620659  48.1768341  74.7582397  57.1020660  48.2508354
  57.8415184  47.1201973  21.3130627  57.5642357  46.6796722  20.5097656
  58.6942635  47.4976082  21.0971413  72.8373413  48.2708702  51.4512253
  72.5289230  49.1748276  51.3881989  72.3293762  47.8940353  52.1696968
  84.9457474  56.3508224  20.5093632  85.4777069  56.8031540  21.1640778
  85.2195816  56.7304573  19.6744232  53.8657227  29.0368252  56.8587837
  53.2897682  28.2725258  56.8776779  53.3239136  29.7532520  57.1895523
  29.6101208  67.4283142  38.6601524  29.2916832  68.3045807  38.8768997
  30.0456429  67.1276627  39.4577484  30.0347481  38.9269562  73.1919556
  30.8934250  39.3042717  73.3831100  29.5995636  38.8785095  74.0431366
   1.9739351  55.8080063  38.0189705   2.5341866  56.2528419  37.3829880
   2.3898089  55.9774132  38.8642998  17.0135765  43.3297882  24.9966679
  17.6813793  43.7653046  24.4669552  16.3895130  44.0227585  25.2124653
  64.2113953  58.7317047  81.2491684  64.9266434  58.8455048  80.6233063
  63.4335518  59.0365181  80.7819595  78.1010132  26.9373531  34.3577499
  78.4123459  26.1937447  33.8416595  77.8579025  27.5956688  33.7067909
  59.1062012  39.1509094   0.2246682  59.4327278  38.2588844   0.1067552
  58.7719460  39.1670227   1.1214665  63.6814766   7.6519446  16.4739876
  64.1195831   7.8971868  17.2889442  63.0666504   6.9644566  16.7300739
  59.9612961  31.1086864  25.3478794  59.7236061  32.0185509  25.1693268
  59.1383171  30.6262608  25.2690964  80.0171585  25.8012733  51.6918106
  79.5494385  26.2468567  50.9854660  79.3587799  25.6802540  52.3760033
  65.9999771  21.2823734  68.8078079  65.9459457  21.9746094  69.4666901
  66.1362915  20.4809036  69.3130798   5.4764037  46.1229286  18.6113396
   5.7851396  46.6540642  17.8773041   5.9429526  45.2922592  18.5188446
  46.4170303  28.3413258   1.0000646  45.9475174  29.1457310   1.2207968
  47.3283806  28.6160069   0.8989315  43.7356987   3.8407390  81.3976288
  43.3068390   4.5355411  81.8971863  43.9528847   3.1753643  82.0505753
  13.4217281   7.5363350  81.7626190  13.6257038   8.4380369  81.5145111
  12.5162945   7.5717845  82.0711060  42.2643509  28.0654049  70.2444534
  41.3882675  28.2075062  69.8859558  42.8494797  28.5074310  69.6292496
  50.2869072  69.7525635  25.9674511  49.8025436  69.6314774  25.1507740
  50.6658630  70.6284409  25.8935547  76.3501358  22.9992733  18.1231918
  76.6415634  22.2798519  17.5630722  75.4005356  23.0248604  18.0055523
  71.0193710  48.0575905  62.1209869  71.0144958  48.7602310  62.7709923
  70.4768600  47.3701096  62.5073662  74.4938889  31.6064491  54.8517456
  74.6784897  31.7038059  55.7859192  75.1060944  30.9328728  54.5555534
   5.3790088   3.4992998  80.3059921   4.7192035   3.7480855  80.9532852
   5.0449247   3.8451564  79.4783401  26.5469189   3.0401628  11.2020407
  25.8709393   2.3735068  11.0801611  26.0605774   3.8426418  11.3910704
   6.8474431  37.8950272  13.6623001   6.0097713  37.6752815  14.0700359
   7.2805228  38.4655647  14.2972507   5.5768976  67.6923370  39.2726173
   5.7504740  66.7521362  39.2264862   4.7506604  67.7601700  39.7511177
  64.3488083  40.6006012  47.7957115  64.9584808  41.2530556  48.1404419
  64.7137985  39.7608147  48.0745964  67.0864792  52.2794724  20.1361580
  66.9735260  51.3440857  19.9672642  67.7749176  52.5510521  19.5290909
  77.8771973  52.3929024  17.3030796  78.2492905  51.8333893  16.6213722
  78.4197083  53.1813774  17.2883568  66.8562241  23.6000538  43.5142403
  67.2822189  24.1495438  42.8563499  67.2647018  22.7407494  43.4095039
   9.5143871  57.1241341  82.1666565   8.8152561  56.4911499  82.3302994
   9.0645504  57.8920822  81.8143387  37.3099136  10.1603937   7.6892290
  38.1339989   9.9217434   7.2647753  37.5672264  10.7521639   8.3962154
  76.3730240  60.0003624  48.8862839  75.8431091  60.6660194  48.4477348
  77.0768280  59.8080292  48.2666855  42.2925262  51.1090393  77.2798004
  42.9519768  51.7294426  76.9692230  42.6105003  50.8316193  78.1389694
  36.8935509  55.1974792  61.4153214  36.6566086  54.2752991  61.5136871
  36.4409218  55.6390343  62.1339226  24.7663479  46.8774986  12.3153410
  25.7141857  46.7523193  12.3618670  24.4892998  46.9506454  13.2286453
  36.2687645  66.5437393  27.8894444  36.1638412  67.2786026  28.4937572
  35.4268303  66.4826584  27.4381657  68.1358566  50.3511238  72.6721039
  67.4412842  49.7911758  72.3253098  68.9461136  49.9508858  72.3566208
  84.3029251   4.0816679  32.0845184  83.9996185   3.1834257  31.9526119
  85.2250595   4.0631232  31.8285007   1.4970076   5.5382352  27.0195560
   1.4606432   4.8798351  26.3257122   1.5242710   5.0303783  27.8304634
  76.5072937  68.3637543  26.5981483  77.3912964  68.6286850  26.8522873
  75.9409027  69.0502090  26.9505959   3.9121358   0.4738282  59.1161385
   4.7871304   0.6598617  59.4567375   3.9253755  -0.4631301  58.9207764
  42.7660713  29.8760147   0.7577778  43.2613640  29.9533329  -0.0576597
  43.3279381  29.3542290   1.3307297  56.8286705  20.1941261  30.0586777
  57.0643158  20.0082111  29.1497555  57.6362343  20.5238323  30.4528408
  82.2701492   0.5914343  71.9725189  81.4317398   0.2909885  72.3232956
  82.6115036  -0.1614585  71.4899597  15.0556812  45.7867622  35.9184952
  15.3871050  45.9159279  36.8071480  14.6754189  44.9084091  35.9299965
  25.5320473  26.8233356   3.9241879  24.8270588  27.4702148   3.9519172
  25.1063747  25.9954624   4.1470351   2.7348666  50.5305595  75.1051407
   2.1450849  51.2438011  74.8608551   2.7353337  50.5373421  76.0623169
  11.2538786  13.3376780  81.4363632  11.9796572  13.9459953  81.5757446
  11.1249352  12.9195757  82.2877121  56.6004906  30.5687866  72.6656113
  56.7088852  31.4606380  72.9958878  55.6842842  30.5243816  72.3920670
  65.8134384  46.2482338  84.5329895  66.5168533  46.8685951  84.3417206
  66.2637558  45.4216309  84.7067032  24.0193615   3.0945873  79.2093353
  24.6516533   2.9521263  78.5049591  23.6130867   2.2383018  79.3432999
  38.9211426  42.9756279  81.2590256  39.8599281  42.7925415  81.2217407
  38.5475578  42.4573936  80.5462189  61.0267220  25.3353462  74.5412064
  61.6340866  24.6231976  74.3407593  60.3853416  24.9434414  75.1338959
  61.3036232  44.5071182  29.7382374  62.0203438  44.3770676  30.3592319
  60.5226898  44.2169762  30.2096062  39.0475922  63.9730263  48.0760307
  39.4664497  64.3907242  47.3234901  39.2543030  64.5464859  48.8140335
  66.0612183   8.7855940  72.4716415  66.4949493   9.0645447  71.6652298
  66.0739059   9.5620050  73.0313339  64.7096252  47.8921318  43.1903076
  64.0576630  47.2636909  43.5005379  64.4324265  48.1045647  42.2990913
  45.6569061  43.0959167  65.5604401  44.9007645  42.5240326  65.6924667
  46.2032661  42.9528236  66.3332596  62.3889732  55.7846413  45.0604477
  63.0972023  56.4103966  45.2123642  61.6565971  56.1219368  45.5762901
  18.2383995  19.8486042  84.1498795  19.1690826  19.6522198  84.0426712
  18.2182255  20.5902252  84.7547150   6.6907396  69.7253113  53.5686951
   6.3597150  69.8300400  52.6766815   6.2222853  68.9636002  53.9101219
  15.6907587  61.1609573  85.7134857  16.0642433  60.3948135  85.2778702
  15.4301739  60.8418999  86.5775070  73.2384720  25.8062534  28.6597481
  72.3311462  26.0021267  28.4260426  73.7012177  26.6354485  28.5391788
  46.4377441  10.4247675  15.0027657  45.9279442   9.6156664  15.0439034
  45.8733253  11.0399408  14.5345488  20.0899277  58.7615089  24.2334194
  20.9725456  58.9482346  24.5533428  19.8082886  59.5766106  23.8180676
  17.2697144  54.8531685  72.1046600  17.7298031  55.4580917  71.5227432
  16.5541649  55.3719597  72.4721832  15.4609127  50.6820564  55.8960457
  14.8704433  50.6395874  56.6482277  15.1202860  51.4015236  55.3644753
  60.0747910  18.3917332  82.1493530  59.4854965  18.3305988  81.3975296
  59.6612473  17.8511486  82.8223877  47.2417107   4.6090178  69.2185593
  47.2848663   3.7433946  68.8122711  48.1026192   4.7285938  69.6195221
   3.0721650  49.9001389  77.8371506   3.4980001  50.6822433  78.1881638
   3.2509513  49.2187920  78.4852448   5.5287046  52.5687141  16.5352345
   5.9201884  52.8615417  17.3581696   5.3842959  53.3742218  16.0387135
  22.1054382  61.0193062  27.2152519  21.2664318  61.3433533  27.5428085
  22.4578476  60.4963455  27.9353580  54.3959694  41.6191330   2.8459938
  53.5392151  41.3739128   3.1953709  54.5510941  40.9981079   2.1343088
  16.4737682  68.3578415  35.9092407  17.2511902  67.8961411  35.5951042
  16.7792358  69.2472382  36.0878296  28.6128311  71.2862854  30.9917850
  28.7210331  72.0109253  31.6077595  28.0018387  70.6914749  31.4266663
  61.0473099  11.6670380  31.8534660  60.2714996  11.1200390  31.9764977
  61.7417450  11.0495853  31.6237946  63.4968758   1.0310647  78.3304901
  63.3412781   0.1200130  78.0814819  63.4842911   1.0232654  79.2875748
  37.9116707  34.8469696  54.8330040  38.8374405  34.8120766  54.5922432
  37.9061050  35.2363739  55.7073975  30.2938175  16.0019302  65.9973450
  30.0871601  15.5506554  66.8158035  31.2414341  16.1332874  66.0289230
  63.7611618  62.3105049  37.5162354  62.9445267  61.8157539  37.4486847
  63.6087646  62.9277420  38.2317963  86.3344345   0.5801580  64.5374451
  86.6073532   1.4835248  64.6976776  85.4625626   0.6584620  64.1502228
   4.6802645  36.6953735  87.2284393   5.4465280  36.6299057  87.7983398
   5.0417876  36.7153397  86.3423615  50.9997864  25.2680397  25.1843090
  51.0141411  24.3364487  24.9648514  51.9156342  25.4881210  25.3546524
  47.2543526  24.3983936  56.8114395  46.7752075  24.7799969  56.0758896
  47.5037994  23.5255699  56.5078125   4.6011772  40.6618538   7.3850508
   4.3603306  39.9308739   7.9541659   3.8831258  41.2873764   7.4817705
  67.9750595  63.8000298  67.0432281  68.6516571  63.4548531  66.4607315
  67.3770447  63.0648499  67.1778336  12.2275982  24.1977425  88.7331390
  12.6946363  24.2992516  89.5624771  11.5119123  24.8314781  88.7821655
  28.7936039  64.1941071  54.3491402  28.0055695  64.6804047  54.1067619
  28.4647655  63.3843155  54.7394447  76.2847443  45.7715416  74.9556122
  75.6109467  46.3778000  75.2633133  77.1099091  46.1701698  75.2320633
  33.3348007  70.6180115   4.9672928  32.8962708  71.4688416   4.9636855
  34.1394768  70.7611923   4.4690657  60.9319077  16.2582188  12.9810896
  60.9217491  15.4272423  13.4560690  60.6904678  16.9120655  13.6371565
  57.9639854   4.4736071   4.0641561  57.6573563   3.5736790   3.9530721
  58.6195946   4.4191532   4.7594590   9.9309683  38.5961456  80.0530930
   9.0337009  38.4665070  79.7459564   9.9816055  39.5298996  80.2574768
   5.0740747  32.1979675   7.6650701   5.3086820  33.0111923   8.1121216
   4.5196476  31.7319565   8.2909117  70.6333160  29.8916588  50.6164665
  71.5364151  29.6396713  50.8092270  70.7111359  30.7248554  50.1517525
  25.8686008  37.1703568  24.7515411  26.2314434  37.9693680  24.3692379
  25.0472870  37.0308495  24.2801476   3.1974597  45.7912102  39.8740005
   3.5741363  46.0210266  39.0245705   2.7826645  44.9406853  39.7298470
  19.7000771  62.7105789  36.2273445  20.5928936  62.3912811  36.3583488
  19.2976437  62.6590271  37.0943069  37.1323242  24.6664028  71.6376419
  37.2249832  25.6098709  71.5053024  37.6963005  24.4730568  72.3864899
  60.5622787  17.6068134  56.1701965  61.3853683  17.1245766  56.0914230
  59.9647751  17.1603947  55.5702553  78.0057678  69.8423462  51.4138412
  77.5495605  69.5179062  52.1902733  77.3892517  70.4545288  51.0121307
  25.2966404  69.1054840   1.0579752  25.2727509  68.1504364   0.9984647
  24.8474026  69.3056030   1.8791759  47.1186218  37.9171219  61.2795792
  48.0178871  37.7251587  61.5454788  46.7988815  38.5303001  61.9414024
  35.1624718  63.9236336  71.1915588  34.7654228  63.0844994  71.4248657
  34.5727730  64.2931366  70.5343246   9.8297281  26.9731312  57.8504257
  10.5773335  26.4971733  57.4887848  10.0023470  27.8896542  57.6349792
  40.8502922  36.5128822  42.3087578  40.0800705  35.9461174  42.3508301
  41.4236870  36.1897545  43.0037651   3.8614101  43.9266472  28.2752495
   3.1606984  43.6615601  27.6794624   4.6656346  43.6435242  27.8401680
  82.8396988  67.8225708  79.6004791  82.6811295  67.6828232  78.6669083
  83.3170166  68.6512833  79.6409302  75.9396515  16.8617496  77.8918686
  76.5476227  16.2667694  77.4530029  76.0717773  17.7036228  77.4559555
  45.7910957   8.2864609  87.9325180  45.9084549   8.1649389  88.8746948
  46.0276451   7.4411864  87.5506973  39.6429291  23.1595879   6.1648145
  40.3322754  22.5036144   6.0612369  40.1089630  23.9953899   6.1866121
  21.9213905  30.9333096   2.2829068  22.6885033  30.8198586   2.8440650
  21.5304642  30.0610390   2.2324109  32.8260651  44.3987999  49.2977982
  32.4163437  44.2624779  50.1520653  32.4188881  45.1971550  48.9615402
   9.4023180  51.2997017  68.6137466   9.7172604  50.5948219  69.1796036
   9.6531763  51.0282288  67.7307968  29.6339989  67.2422867  79.6584473
  30.3002472  67.9101181  79.8207703  29.8228455  66.5552444  80.2976151
  36.0132561  36.1993294  78.1949997  36.3940811  35.3223534  78.2409973
  35.5168571  36.2878723  79.0086212  13.7191286  14.1078262  86.4763870
  14.2989311  14.8533783  86.3207855  14.0635414  13.6981039  87.2699509
   1.4189752  70.5483627  65.7069702   1.0444821  69.6692734  65.6505051
   0.8954576  71.0711823  65.0996552  12.6812687  30.6934853  84.1668472
  11.7454195  30.7930527  84.3415070  13.0252571  30.2569962  84.9461899
  13.8543797  39.7783623  37.6416435  13.9443674  40.7176514  37.4808083
  13.6486435  39.7136803  38.5742340  35.6686516  52.6546478  88.4564209
  36.2875938  53.0360680  89.0790405  35.6304131  51.7281380  88.6938019
  42.4744415   0.3886991  44.4992294  41.5634460   0.1646491  44.3091774
  42.8334427  -0.3972050  44.9111824  36.8581429  71.0961151  29.3294106
  37.4564934  70.5000000  28.8790169  37.2547874  71.2282562  30.1904793
  13.4523392  62.3559380  13.7624044  13.7916012  62.5418129  14.6379519
  14.1322365  62.6755371  13.1692553  17.3278389  16.8210278   2.6271513
  17.8598156  17.2888165   1.9834081  16.6347446  16.4091263   2.1112132
  85.7479706   0.3097468  82.9196014  85.2630539  -0.3875294  83.3610687
  86.6681976   0.0967637  83.0746918  43.7472687  53.9427605   4.3736095
  42.9642181  54.4675941   4.5397801  43.8331718  53.3885117   5.1492782
  58.0988693  18.1403790  31.8918800  58.7972031  18.7513885  32.1268883
  57.6472664  18.5624180  31.1610107   1.0663843  60.7505264  83.2847519
   0.3925976  61.3083305  83.6734695   1.6686227  61.3621750  82.8611603
   3.6906707  13.6284094  49.4698639   3.1659720  14.3859835  49.2110100
   4.2087851  13.4190884  48.6927071  27.7295895  31.8905201  69.9560776
  27.0390186  31.7744865  70.6086731  27.4511757  31.3530178  69.2145844
  73.6736298  24.5205917   4.1143217  73.8896561  25.2279625   4.7219348
  73.9333420  24.8546791   3.2557368  13.5409088  41.5850334  32.0863152
  13.3695965  41.0389252  32.8535500  12.6781530  41.9048691  31.8225155
  78.6976166   7.2222767  64.6283875  77.7599106   7.1863003  64.8171692
  78.8430557   8.1116943  64.3058701  18.8660221  50.7302284  31.3438663
  19.3196526  51.4916306  30.9823170  18.3998718  51.0696449  32.1078911
  78.9760437  67.1560135  71.4535904  78.2140503  66.8490372  71.9448700
  79.3361816  66.3655014  71.0515671  75.0426636   4.2139645  55.8168488
  74.8700333   4.6625805  56.6446037  75.9974060   4.1780982  55.7584381
  23.7780933  54.9682198   5.9605646  23.4147396  55.7521439   5.5486550
  24.7187405  55.0232315   5.7920804  61.6348572  40.3776093  43.0242805
  60.7606087  40.2969856  43.4056206  61.8570671  39.4895096  42.7447472
  43.4018669  42.8453979  39.1551094  42.4664345  42.6873131  39.2824020
  43.4412384  43.5051727  38.4627342  74.9952316  14.1860266  84.4596786
  75.0177231  14.9574299  85.0259552  75.1391525  13.4489546  85.0531845
  84.1235886   6.2532048  78.1696320  83.6996460   5.5543451  77.6715317
  84.5495148   6.7958441  77.5060349  36.9211121  10.6750212  81.4462357
  37.0341263  10.4302673  82.3646927  36.6126900  11.5806856  81.4759216
  42.8754234  53.0019646  70.8742905  42.0445404  52.9381409  71.3452377
  43.5160980  53.2282944  71.5484848  76.3302689  65.5233002  39.5809746
  76.4697495  66.2745667  40.1574974  76.4789047  64.7610855  40.1405869
  36.3414879  61.4712181  51.1224365  35.8209381  61.7704620  51.8678970
  36.3428802  62.2133865  50.5179405  66.1786957  69.0670090  66.8639832
  67.0587997  68.8749771  67.1876678  65.8294678  69.7065659  67.4846573
  63.0658951  36.1360703  62.8933945  63.9075356  36.5071526  63.1582909
  63.2349892  35.7473831  62.0351639  63.6444016  30.8805161  45.4021416
  63.5266266  31.7078342  45.8689461  62.9336739  30.8638783  44.7611885
  47.5470657  19.0417728  48.9180222  46.7973671  19.3415585  49.4321327
  47.3309212  19.2817574  48.0169563  13.1037693  45.4056473  84.3651810
  12.7543354  44.9457016  83.6019135  12.8456354  46.3179932  84.2339478
  50.8864098  58.8477440  57.8855553  51.4222565  59.6338501  57.7800217
  49.9845238  59.1629677  57.8266792  63.1945152  69.5962601  79.1421127
  62.8833084  68.9065628  78.5558548  64.1485748  69.5525970  79.0780945
  38.2760086  43.4898796  83.7444839  38.9305611  43.2538948  84.4018250
  38.7384567  43.4181519  82.9094849  14.1237841   5.5610390  72.7432632
  14.4794512   4.9400434  72.1075821  14.3233404   5.1725917  73.5950394
  85.7430878  47.5572205  42.7600784  85.6549606  48.0130501  43.5971489
  86.1598129  48.1963196  42.1820450  58.2517548  36.1708946  87.3827438
  58.1666794  36.0889702  88.3326263  57.6575661  36.8842354  87.1496887
   2.8413932  70.1006927  56.1193848   2.2081809  70.8184891  56.1260872
   3.6936569  70.5325928  56.1771774  62.9085846  44.6582069  49.0327682
  63.1081390  45.2747040  49.7372856  62.9625397  45.1821976  48.2335472
  31.2168331  59.4458427  11.9465256  30.2804642  59.3131981  12.0943441
  31.5991287  58.5726395  12.0336924  74.9805069  50.3536415  36.8079720
  75.3790512  49.4899979  36.9152870  74.5140305  50.3001862  35.9738426
  84.5025406  10.6100063  74.1658020  84.0973358  10.5853930  75.0326538
  85.2917175  11.1383772  74.2852173  82.5682755  38.5902977  60.9206314
  82.6239471  39.5359993  61.0577011  81.6919022  38.4515076  60.5615540
   5.2870212  60.7259140   5.3814907   6.1735716  61.0866661   5.3924460
   5.3601341  59.8963928   5.8534842  40.7280617  68.3798752  25.5881329
  41.0176888  69.0377579  24.9560490  39.8221817  68.1932907  25.3415527
  35.4942627  44.0327644  71.4414597  35.8514214  43.8651772  72.3135757
  35.6970024  44.9528389  71.2723618  86.6466446  63.8655396  44.9775810
  86.9742432  64.7373199  45.1987457  86.0329437  63.6546593  45.6812363
  68.1030273  50.7316322  61.8986359  67.1527100  50.8125343  61.9797745
  68.3224106  49.9564133  62.4154892  26.4626808  56.0908127  58.0766068
  26.6208076  55.1522064  58.1778107  25.9515228  56.3322411  58.8490448
   7.8617206  16.2879868  66.9949799   8.7969503  16.4882545  66.9566422
   7.8193035  15.3327656  66.9504395  37.9433327   8.5973530   4.9529653
  37.7263451   9.2460642   4.2833972  38.7576332   8.9171982   5.3413558
  24.2634735  23.8239765   9.2837667  23.3889179  24.0352268   9.6105032
  24.1160488  23.5061417   8.3929920   0.7405537   3.5613542  60.9242592
   1.3283286   4.3123403  60.8419685   0.3016903   3.6916761  61.7648849
   6.3269687  31.4099560  15.1281576   6.0246062  30.7378845  15.7389994
   6.4372759  32.1924286  15.6683445  80.2435608  36.4395142  46.8858414
  80.7212982  37.2044678  46.5651436  79.5855026  36.2683372  46.2121239
   6.1583381   6.1992350  73.9794312   6.6188412   5.7565627  73.2665405
   6.8056479   6.8024602  74.3445892  40.3723145  40.7367096  45.5731888
  40.2784615  39.7911835  45.6889801  39.9825363  41.1144218  46.3616295
   6.2241731  30.8769302  55.2161789   5.5776157  31.2695484  54.6296234
   6.9033694  30.5392361  54.6323242  28.1971970   2.7819843  24.0128574
  27.4520950   3.0016894  24.5721283  28.1372414   1.8338999  23.8955002
  80.2720871  14.4428101  64.8646240  80.2247849  15.3606110  65.1322784
  79.6856079  14.3827028  64.1105270  22.8202477  54.2792664  15.0275936
  22.6213665  54.9692116  15.6605682  23.3550816  54.7118263  14.3619528
  70.3156738  37.7663689   8.0034618  69.6533813  37.8296013   8.6916456
  71.0879211  37.4140625   8.4458923  17.4608917  57.4372215  81.6909561
  17.1905136  56.5196075  81.6576233  18.2464237  57.4754257  81.1453247
  49.7948875   4.6517758  55.3977318  50.5038338   5.2721400  55.5673637
  49.0879135   4.9310746  55.9794655  54.8755531  22.4742470  30.5664501
  53.9780998  22.7718582  30.4173374  54.9199333  21.6212616  30.1343861
  18.6753979  56.7359505  49.7915344  19.2611370  57.1104660  49.1336021
  17.7967739  56.9627304  49.4868660  84.9304352   7.9629869  86.8707199
  84.0793076   7.9368005  87.3078995  84.9252396   7.2016406  86.2905807
  25.9167538  45.8734398  54.6131096  25.1377201  45.4534454  54.9777260
  25.5861740  46.4017792  53.8866043  18.2490826  20.8445873   7.8142276
  17.6624928  20.8543739   7.0578885  17.6972828  20.5570011   8.5415812
  69.9961929  57.0453873  62.6804199  70.1987381  57.1962547  63.6037025
  69.2740402  57.6449165  62.4925652  13.4373922  45.6075706  13.3347301
  14.2607422  45.1668854  13.5447855  12.7589922  44.9850273  13.5963564
   0.4119300  59.6338310  20.2749233   0.5818363  60.2980843  20.9428539
   0.1714263  58.8513565  20.7710304  37.1272736  35.1096764  57.7544250
  36.4200516  34.8113556  58.3263283  37.0451775  36.0633392  57.7494965
  59.8494186  70.9637909  77.2038879  59.4166985  71.1826248  78.0291748
  59.1330719  70.8645706  76.5768051   7.0612602  26.7843952  62.8024597
   6.4745917  27.4717178  62.4868011   7.1473985  26.9551029  63.7403679
  66.5077972  69.4856949  43.1231232  65.8158340  69.4111176  43.7802811
  66.9088135  68.6169205  43.0979156  68.2617188  15.3026781   2.6673164
  67.4654770  14.8211498   2.4429173  67.9997177  16.2230206   2.6437223
  50.4994888  67.1768875  54.0198250  50.5972748  66.5693359  53.2866440
  51.0023117  67.9488068  53.7599373  60.3400345  33.8129272  66.7391510
  61.1383286  34.2997475  66.5342941  60.2222481  33.9317322  67.6816177
  80.5018082  13.3243513  78.8523407  80.2553787  12.7387114  78.1364365
  80.7660904  12.7379961  79.5612717  46.0653954  19.6471214  76.4653473
  46.9717674  19.3402386  76.4420471  45.7226334  19.3187504  77.2965622
  40.0297737  67.8296127  35.4935417  39.1040840  67.8943710  35.7283516
  40.2241440  66.8935852  35.5415955  48.5253105  71.1976852  83.4708939
  47.7645226  71.6978531  83.7662964  48.8937263  70.8262634  84.2724838
  44.5795479  41.8061867  53.5137100  44.0360718  42.3737488  52.9671402
  45.4774742  42.0106735  53.2526588  57.6974106  46.3071823   6.9663172
  57.0200157  46.9044876   7.2834830  58.4056168  46.8813477   6.6747494
  58.5711899  50.3930931  47.9237289  58.5106087  50.9266281  48.7161331
  59.2509613  49.7485237  48.1203728  73.6639099  36.7935257  45.9655609
  74.4412994  37.3241920  46.1396217  72.9292221  37.3622551  46.1957741
  65.0460587  70.5317993  59.5231819  65.7307739  70.3792191  60.1744232
  65.4325562  71.1585693  58.9116173  61.0447807   8.2794085  48.8510399
  61.0939827   9.1081181  49.3275414  61.8759041   8.2246151  48.3793793
  71.9699173   9.4304771  26.3422108  71.8131256  10.3548470  26.5350552
  71.6308289   8.9653854  27.1070251  59.1773796  56.1713982  43.2581062
  59.5862503  56.3879013  42.4201393  59.5906410  55.3489571  43.5208473
  73.8390427  20.6550198  77.3066483  73.0942078  21.1870480  77.0266495
  74.5914307  21.0417061  76.8587418  60.6223335  53.1778030  22.9405499
  60.9890709  54.0597343  23.0033035  60.4103622  52.9417343  23.8436394
  63.2187805  43.9747963  64.3233719  62.5559540  43.6015625  64.9043961
  63.2155266  44.9102936  64.5260162  81.6975555  67.4513550  55.0692863
  81.6503906  68.1087570  54.3751488  80.8118362  67.0918732  55.1192894
  79.6119995  71.5276566  66.9574356  80.3348312  70.9124374  66.8339386
  79.5163422  71.5972443  67.9072952  65.2722549  33.1443634  34.9670029
  64.8387451  32.5810661  34.3259125  66.1617355  32.7962189  35.0290489
  55.1283836  36.2021408  75.7730408  54.9593315  36.1653061  74.8316116
  54.3144035  35.8981628  76.1746292  28.9820461  43.5159492  66.4478302
  29.2394238  43.3084679  65.5495300  29.6993141  43.1809692  66.9859238
  28.8586445  69.9509735  39.2053413  29.2883358  70.7830124  39.0071068
  28.0073948  70.2006912  39.5648460  81.6157455  28.6416359  66.5970764
  81.2111664  28.1558304  67.3157806  82.2967529  29.1673012  67.0167618
  67.7897110  48.0398788  67.3595428  66.8850632  48.1615753  67.6476898
  68.3181686  48.4093971  68.0669479  53.3669815  68.4011841  25.0212021
  52.6216583  67.8423996  24.8010063  52.9720001  69.2094116  25.3482971
  26.0225544  13.6281013  75.0412445  26.5730743  13.1135836  75.6315231
  26.4897957  13.6153030  74.2059250  15.1634188  70.9559097  84.8022232
  14.8762293  71.0539856  85.7100372  15.2864571  71.8529358  84.4916916
  76.8789597   1.5287422  22.0231476  77.2196808   1.2740564  22.8806286
  76.5273895   0.7182417  21.6547489  77.6218185  58.4901619  34.1493187
  78.0503159  59.2166443  33.6967163  77.0391541  58.1090240  33.4924583
  84.7584839  33.8316193  60.5917282  84.2126236  33.3699799  61.2282486
  84.5073242  34.7507820  60.6827927  76.3342743  50.6877708  22.6377888
  76.4421768  50.1376419  21.8619347  75.4881287  50.4263268  23.0009842
  10.3219004  18.2162647  86.6659775   9.8903618  17.4259605  86.3412857
  10.8755465  18.5025139  85.9394989  71.3788071  32.5727386   3.4712546
  71.0443802  33.0584412   4.2252336  71.2208939  31.6540890   3.6889274
  17.0192127  35.1410484  52.2410431  16.4732285  34.4091187  51.9539719
  17.7312737  34.7306557  52.7317352  73.0560379  60.4359550  13.8365221
  72.2635040  59.9076920  13.9317064  72.7476883  61.3409348  13.8830023
  67.1573105  66.4405365  19.3199673  66.7105179  65.6847305  19.7012329
  67.8948288  66.0652084  18.8389034  70.6551132   4.0017395  73.5316544
  69.7161789   3.8455632  73.6328430  71.0642853   3.4314606  74.1824951
  86.3670502  12.6575232   2.2725558  85.4817581  12.9728184   2.4544175
  86.2870865  12.1831989   1.4449967  67.4082336  62.7975121  28.8477669
  68.2990265  62.4543076  28.7774868  66.9621887  62.1874886  29.4352551
  11.9281321  58.2561493  38.3657074  11.3380680  58.9390297  38.6846657
  11.4878483  57.9005470  37.5937424  18.0776310   7.2797580  38.9147034
  18.3776932   6.8426304  39.7116432  17.3352661   6.7534437  38.6178513
  79.8062820   2.3299177  12.6609764  79.2351303   1.9373444  13.3212070
  80.2696915   3.0251615  13.1280098  49.6871948  28.3724079  75.9163437
  50.2120514  28.1095219  76.6724167  50.1318893  27.9766064  75.1668015
  68.5388565  69.6098099  19.2458820  67.8377304  69.4469910  18.6148949
  69.1492462  70.1836624  18.7829018  12.1299210  63.5819244   5.8435464
  12.3918571  64.1224442   5.0982547  12.9173918  63.5219193   6.3843975
  10.3015957  31.4128456  85.3425140  10.6842089  32.1962471  85.7376328
   9.9661322  30.9097786  86.0845566  68.7883453  28.1425858  32.8030357
  68.0425339  28.6544514  33.1160736  69.3324432  28.0124760  33.5797310
  76.5353241  16.3743401  30.5417900  76.6682281  15.8103638  29.7798843
  77.0810318  17.1417217  30.3698540  34.4847183  50.7888451  82.1379318
  34.7111092  51.6223984  81.7254181  34.0909729  51.0349770  82.9749603
  22.1764030  54.6852684  52.8665581  22.1922855  53.9870644  52.2119637
  21.6062794  54.3513336  53.5591431  43.0451202  70.8819427  23.6386318
  42.8901863  70.7068634  24.5668411  42.7991028  71.7998199  23.5237103
  66.2805099  20.7563114  87.2001190  66.7505417  19.9323692  87.0719833
  66.5452576  21.0500202  88.0718307  84.4708557  14.1772327   3.2053897
  84.3858261  14.8979273   3.8295701  83.6046524  14.1039419   2.8047087
  45.1300850  48.3857346  87.4076843  45.6946182  47.9685440  86.7569275
  44.2584381  48.3724327  87.0123596  76.9185791  58.6306953  54.6207962
  77.4473953  59.0906754  55.2727165  77.0200882  57.7045403  54.8402596
  16.7841167  35.1391792  71.5036163  15.9209681  34.8168259  71.7630234
  16.7655659  35.1299324  70.5466385  19.7688580  54.9916229  56.0602570
  20.5380325  54.5155258  56.3731956  19.6114330  54.6422768  55.1830978
  40.0820580   5.8658895  18.1773415  41.0078621   5.9902148  18.3863029
  39.9473839   4.9202523  18.2395077  71.7348404  54.8505478  27.2655182
  72.3313065  54.6579895  27.9889698  70.9912415  55.2895279  27.6785393
  61.1264191  17.8402367  31.0399895  61.1821899  18.6602020  31.5306816
  60.6105576  18.0599747  30.2642097  64.8171844  43.4032593  62.0222511
  64.4197540  43.7850533  61.2396164  64.2229156  43.6422653  62.7335548
  21.4256077  65.5990906  44.6479530  20.6639843  65.2111664  45.0788498
  21.0579529  66.2593155  44.0604401  60.9332314   4.1448812  78.8271942
  61.8602180   4.1617112  79.0651932  60.5792084   4.9589505  79.1852341
  29.8810768   1.1853423  39.4092026  30.7316341   1.3870617  39.7991943
  29.3789234   1.9954516  39.4975014  25.6231995  19.8959122   7.7070251
  25.1766529  19.0561714   7.5990148  26.3601418  19.8554420   7.0975099
  82.4900284  62.2428513  76.6465149  82.2404938  62.0227890  75.7490005
  82.8354340  63.1336098  76.5875168  63.4039040  33.3103180  46.3316193
  63.9709740  34.0630264  46.1640053  62.5833549  33.6930695  46.6421547
  84.8436661  15.3889103  34.5013466  85.5000610  14.8239031  34.0937462
  84.5351486  15.9497042  33.7896194  70.2147293  36.3737297  12.2236824
  69.8722305  35.6708260  12.7758198  70.9384995  36.7440720  12.7288895
  64.0386429  20.0394058  56.3346596  63.9883232  19.1227283  56.6055908
  64.0111160  20.5332317  57.1541786  82.7285080  30.3880558   3.4149730
  82.0684204  30.5143604   4.0965629  82.2656021  30.5686550   2.5968440
  28.8474426  37.8550835  10.7891817  28.8200493  36.9802170  11.1765919
  29.0692730  38.4333649  11.5189867  71.6166611   0.1365069  47.7708702
  71.8051758   0.9075149  48.3058853  70.6612320   0.1079605  47.7201424
  80.3330383   2.7161174  53.0642090  80.7543106   1.8876647  53.2931747
  80.1454544   3.1302664  53.9065399  10.5290890  59.3659973  20.9018726
  10.3951607  58.5238419  21.3366947   9.8294106  59.4131126  20.2503643
  44.0038795  40.8549805  32.4489555  44.2404938  41.6131363  31.9146862
  43.8192062  41.2200394  33.3143196  76.5075073  41.6052628  27.2124443
  75.6949692  42.0311432  27.4856663  77.1826706  42.2710037  27.3434887
  77.9767303  47.3837357  61.2427559  77.7506332  47.0543900  62.1126099
  77.5592651  46.7700424  60.6383247  23.7608147   2.7753103   8.3115358
  23.7426052   3.1499434   7.4308825  23.5902557   3.5176897   8.8912039
  25.0064316  43.2315712  17.2282829  25.0876522  43.2562408  16.2748547
  25.6803608  42.6130180  17.5101471  17.0712795  42.3820496  47.6695633
  16.8327065  41.7932434  48.3855438  16.8402805  41.8996964  46.8757095
  48.4042053  14.6196022  14.1294317  48.7805634  15.4763765  14.3307371
  48.6625023  14.0654984  14.8659678  26.3064804   6.7232728  81.9843521
  26.2167282   7.5724735  81.5518799  26.0081806   6.0895276  81.3319626
  63.3065376  57.3895340  68.5770340  63.3152008  57.9008522  67.7678909
  63.4822655  56.4918671  68.2949905   3.3968806  41.9959373  76.9114151
   3.4321322  41.8930969  75.9604111   2.4690619  41.9039726  77.1280365
  21.5043640  34.7144852  87.6014938  21.7353020  35.6371803  87.4941330
  20.8392429  34.5545807  86.9319611  66.3438950  54.9434319   2.2853401
  65.9087372  54.5230789   3.0270765  67.2723923  54.9380302   2.5179210
  62.9333839  59.8312149  66.6702042  63.4156532  59.4998322  65.9126816
  62.8161507  60.7639923  66.4901581   7.7146111  63.8557549  25.4053288
   8.5168295  63.9287148  24.8882656   7.1282177  64.5136490  25.0317669
  43.9724884   1.1668392  11.0304356  43.9249268   1.4353323  10.1128950
  43.9720688   0.2101119  11.0003624  67.4136429  12.5103092  88.8381348
  68.0112228  12.5243950  89.5857544  67.9857407  12.5703154  88.0730667
  55.2784462  47.1670799  40.5896797  56.0405121  46.6319122  40.8112221
  55.6034584  47.7886391  39.9383240  46.5522003  21.4913406  33.2774696
  46.7736588  21.5561790  32.3485031  45.6185760  21.2804184  33.2869720
  39.0277100  29.6449413  81.3043060  39.6274948  28.9248676  81.4991989
  39.3975182  30.0605221  80.5253525  20.9206791  10.9137688  69.2201843
  21.6556454  11.5120487  69.3547745  20.7912292  10.4978437  70.0725174
  20.9972591  68.1815109  32.9191666  21.6360397  68.5176849  32.2905350
  21.2619839  68.5623245  33.7565041  76.9857025  31.6298637  51.9198990
  77.7503510  32.1170959  51.6130600  76.2386017  32.1712227  51.6649246
  53.7185974  61.1083679  50.9613228  53.6918144  60.5697823  50.1704750
  53.7471542  62.0085678  50.6371918  24.5678616  53.0658684  65.1768417
  23.8754902  52.5957489  64.7122498  24.3847809  53.9900894  65.0079269
  73.7524643   9.4870663  15.7777023  74.4793854  10.0704823  15.9955158
  72.9895401  10.0630512  15.7285166  39.0192032  57.3400497  45.6310616
  38.9197159  57.8466187  46.4371109  39.9194069  57.0160942  45.6613388
  18.6347866  66.6565247  34.3505859  18.6714268  65.7021255  34.2872810
  19.1899624  66.9655380  33.6346817  61.4158974  66.4442520  57.5063705
  61.9104347  66.5546341  56.6942863  61.1071510  67.3246613  57.7203369
  70.8251343   1.3642662   7.9477181  70.1886673   1.5334510   8.6423559
  70.5296326   0.5472857   7.5459042  73.1427994  37.4058266  86.6863403
  73.3922501  36.7218094  86.0649490  72.2606201  37.6628876  86.4181900
  47.8039093  25.0764160  36.1259918  47.7194443  24.5233784  35.3493042
  47.8550072  25.9677887  35.7809143  23.0630245  70.3774643  23.2092628
  22.5620346  70.9810028  22.6606445  23.9780102  70.5923004  23.0279446
   2.5807469  43.2132568  39.4579659   2.0708609  42.4032516  39.4695587
   3.4925654  42.9221802  39.4483109   9.2315311  63.0662880  12.4508038
   9.0280294  62.5228767  11.6895418   8.5668240  62.8305130  13.0979567
  11.8250322  57.1408043   6.3017869  11.1304932  56.4878922   6.2148752
  12.6267242  56.6692390   6.0756269  86.0133820  44.0929260  18.7032433
  85.4111404  43.8119049  18.0143547  86.8794861  44.0446739  18.2985611
  38.3897209   9.0601301  59.8758545  38.7652664   9.3860950  60.6937447
  37.7467651   8.4066610  60.1512070  22.2091236  12.7809381   1.0363261
  21.7344170  13.5693731   0.7731620  22.6285801  13.0187092   1.8632201
  60.4703903   2.4768889  80.9093552  60.8060112   2.9859900  81.6471939
  60.5870285   3.0489800  80.1508408  19.9170895  67.1351471  13.2064409
  19.0469894  67.3914719  12.9007416  20.3951359  66.9111938  12.4079723
  29.6220074  59.5792046   0.4663341  30.5723515  59.6826935   0.4176947
  29.3591022  60.1260910   1.2066239  86.2010193  16.9406338  78.1067657
  85.4573898  16.8022823  78.6933746  86.9395447  17.1091976  78.6919174
  84.9221344  26.2598686  42.9799042  85.5677032  25.5533218  42.9637222
  84.6745605  26.3791428  42.0629997  68.5241394  18.1519279  16.1654415
  69.0664291  17.6084728  15.5937757  67.8283310  18.4791584  15.5953426
  26.0920658  44.2023468  58.5819397  25.9099083  44.0560455  59.5101891
  25.3945484  43.7331772  58.1241341  69.6598358  26.1833000  61.2130775
  70.3914185  26.6098976  60.7669411  69.8434219  26.3052044  62.1445656
  72.4211197  69.1971283  72.9963226  73.3156815  68.8659821  72.9166565
  71.8676147  68.4332504  72.8339691  66.2485123  50.2297440  57.8280029
  66.6756973  51.0861015  57.8479843  66.9269028  49.6170006  58.1118469
  57.2868919  53.0777206  26.2667561  57.7860832  53.5151329  26.9564724
  56.6989174  53.7542496  25.9308624  58.8511009  41.9902687  37.6609306
  57.9708519  42.3661728  37.6706238  59.0951309  41.9756737  36.7354774
  86.1366043  27.4544525  68.1126251  86.9294815  27.9044075  67.8208847
  86.2765961  26.5396729  67.8680573  76.5468521  31.0011578  16.4524841
  76.9369659  30.9504318  15.5798626  77.1353226  30.4899597  17.0080109
   5.2158785  51.6885452  66.7562866   4.3596826  51.2611885  66.7333679
   5.3717375  51.8629723  67.6844635   3.8451030  18.6527843  25.7518291
   3.1710920  19.0211315  26.3230228   4.6492386  19.1043358  26.0081482
  83.8079147  55.5275955  29.4154034  82.8776016  55.6639709  29.5946865
  84.2379837  55.6722908  30.2582188  33.2441597   3.9994636  67.8231354
  34.1080704   4.2248921  68.1682053  33.4065247   3.2634506  67.2330856
  47.8837700  30.5834427  18.6361866  48.7085609  30.9153881  18.9908218
  47.6380806  29.8717651  19.2272720  19.2328854  43.2840576   4.3227148
  19.1333790  43.1347847   5.2629533  18.9185085  42.4759407   3.9173164
  64.3788910  57.9750595  41.5831909  63.7036705  58.0430794  42.2582359
  64.5602188  57.0373573  41.5194321  75.9114990  54.0478439  74.7324142
  76.6472473  54.2971191  74.1731644  76.2766495  54.0352325  75.6171341
  10.8958282   5.0558810  81.0787735   9.9519329   4.8969560  81.0847931
  10.9780874   6.0075784  81.0176315  56.6688538   6.3606935  46.3934784
  56.9365463   7.2647953  46.2286377  55.9839516   6.4311457  47.0584450
  77.9685822  48.7327843  29.4438610  77.2616959  49.0327644  28.8724060
  78.7450027  48.7316895  28.8840427  79.3645630  22.1995735  41.9085159
  79.9386520  22.9599781  41.8166847  79.7193451  21.5561333  41.2950439
  83.1835175  37.0634537  24.8437767  83.2098007  36.9145050  23.8986015
  82.7572250  36.2828217  25.1974983  39.6081543  38.5031013  41.1719589
  39.8393745  39.2543259  41.7182426  39.9200897  37.7438393  41.6643524
  54.5473061  15.2138500   9.2754917  55.4845238  15.0511045   9.1688738
  54.4981995  16.0914135   9.6545753  23.8631821  64.0244370  59.2670593
  24.1195488  63.2362213  59.7458267  23.9831810  64.7361908  59.8957405
  37.2476959  61.6885719  55.5582924  36.5496445  62.0714798  56.0896492
  37.8701553  62.4041367  55.4289093  47.2450714  56.5110435   1.1926681
  47.1052704  55.6047096   0.9183549  46.9596481  57.0346375   0.4439268
  10.5210361  20.1400795   2.0245318  10.5795660  20.4080887   1.1074841
  10.6774759  20.9442711   2.5195425   6.8148913  59.5977669  52.1342659
   6.7958217  58.7236137  51.7447472   6.1010923  60.0677147  51.7031364
  15.1329165  11.0565977  70.0212097  15.1572866  11.9963245  69.8407898
  15.0589371  10.6488857  69.1583481  79.8500061  24.1385937  22.7847233
  79.9349060  24.2985249  23.7246418  80.7133179  24.3465939  22.4274349
  78.1447754  63.9128838  33.0598946  78.0335007  63.3129463  33.7974052
  77.6541367  63.5072708  32.3450584  26.2027397   8.1661196  25.5168171
  25.9625759   7.3726583  25.0383072  25.7467232   8.0877533  26.3547535
  45.0040207  15.9038477  79.3017273  44.0599251  15.8280830  79.1632385
  45.1321526  15.6583757  80.2180023   0.1916503   2.9833224  74.6637039
  -0.1705204   2.6058493  73.8620911   1.1183531   3.1198797  74.4667130
  61.0773964  53.3136063  64.0831985  60.6593056  52.7424545  63.4388199
  61.9088593  53.5620842  63.6792679   4.7448001  30.6416264  24.2479420
   4.0751910  29.9620934  24.1699028   4.7412124  30.8759632  25.1760063
  59.0724068  36.1660385  44.8586769  58.2010918  36.1678925  44.4623909
  59.6560555  35.8883667  44.1526451  34.2030869  28.6987915  45.2614174
  35.0579681  28.2829647  45.1496048  33.8095932  28.2413540  46.0044823
  69.6487732  19.0701847  28.2082996  70.3699036  18.4796333  27.9904690
  70.0493851  19.9392242  28.2309837  77.9946594  47.7723770  35.8862686
  77.6563492  48.1976318  35.0982742  77.2289810  47.6722488  36.4519043
  57.8723831  47.1007957  34.8992462  57.4472427  46.3869209  35.3745003
  57.8173103  46.8422775  33.9792633  61.3595009  58.2836342  38.1929016
  61.0755119  57.9699745  37.3343010  61.4313927  57.4915504  38.7255020
  17.0407677  52.9198074  52.9910049  16.1138935  52.8135071  53.2051048
  17.1110573  52.6310387  52.0811157  23.2616348  36.9248886  64.2897949
  23.4622211  37.1124573  63.3728333  22.9198551  36.0308189  64.2821655
  81.8299408  46.0863457  24.3580971  82.5896835  46.5593910  24.0186119
  81.9392548  45.1927452  24.0328884  22.8392010  10.6536713  17.8729324
  22.8288250   9.7477989  18.1819954  22.9452763  11.1766548  18.6675835
  41.9853210   5.8147354   8.8843880  41.1071701   5.7140684   8.5170383
  42.1713295   4.9704237   9.2952061  61.1746788  42.6724815  73.9926300
  60.6251335  42.5421257  74.7654419  61.1597366  41.8276711  73.5428543
  80.4219437  53.3055878  24.2354679  79.7700653  52.6332397  24.4335499
  80.2318192  53.5653267  23.3340130  49.1988983  19.1044636  58.7671051
  48.2830544  19.1455555  58.4918327  49.3977127  18.1686745  58.7988014
  11.2922516  48.2494202  51.8738785  11.0247984  48.5426674  51.0028419
  11.1396685  49.0068283  52.4389267  23.2109337  63.3995972  29.2019653
  23.7433262  63.3412437  28.4086285  22.3480492  63.0825844  28.9352016
   7.4410071  43.6524734  14.2486324   7.0089107  43.8038635  15.0892305
   7.0577793  44.3041573  13.6615381  26.1610107  12.2953882  24.1880760
  26.8666096  12.5350142  24.7888603  26.5260677  11.5844221  23.6613007
  11.5795107  37.6698227  36.9328537  11.6062336  38.6264496  36.9523849
  12.2983789  37.4219551  36.3514557  23.2732735  68.9756393  42.2620697
  23.8299503  69.6817627  41.9338379  22.4772339  69.4165421  42.5589828
  31.6027946   5.6248183  71.7050171  30.8655148   5.7479601  72.3029175
  32.1440086   6.4046330  71.8283386  79.1347046  50.4430351  68.2113037
  79.0954285  50.3554039  67.2589340  78.3353500  50.9166451  68.4414139
  49.7946014  49.5182076   4.4138613  49.9095078  48.5736389   4.5178671
  50.2073097  49.8966103   5.1902075  81.0689468   7.0595450  61.2568932
  80.9090805   6.3496852  61.8788033  80.1968307   7.3170152  60.9579544
  82.9301147  42.5051460  49.2756042  82.0957642  42.7733307  48.8906708
  82.7536240  42.4491539  50.2147255   2.4873517  38.1256104  83.7143250
   1.6572568  37.7187614  83.4660339   3.0761113  37.9332390  82.9845428
  57.4274292  34.7461700  61.2109604  56.7109451  35.1656189  60.7345734
  57.9335518  35.4740486  61.5718842  34.9111137  61.1021156  31.9772072
  34.6824417  60.6556778  32.7924576  35.7302170  60.6911888  31.7007217
  46.0187492  68.8201675  85.6141205  45.8974915  68.1242142  86.2600021
  46.5567284  68.4212112  84.9302750  57.7133713  44.9088783  87.3989182
  57.6036682  45.7753220  87.7906799  57.3890800  44.3022537  88.0645599
  45.6990433  46.8417244  82.9059601  46.4401436  46.2950478  83.1670151
  45.9121780  47.1255112  82.0169907  41.1377983  21.0834160   3.9392090
  41.8708229  21.6790676   3.7839556  40.4136124  21.4592705   3.4386878
  61.0489616  70.9947968  34.2959099  60.3273048  70.4709778  34.6438332
  61.1363678  71.7216415  34.9125862  11.7304468  26.7062130   4.9535413
  12.3725948  26.2572823   4.4036870  11.8832264  26.3590240   5.8323760
  63.0424805  48.7657623  52.3766022  63.5124130  49.5642548  52.1361771
  62.2564125  49.0765114  52.8257828  39.6104584  24.3904934  84.6918564
  39.3388557  23.8629074  85.4429321  40.4565239  24.0238380  84.4350128
  28.4953995  20.8966427  84.7255020  27.9854813  20.4275455  84.0650787
  29.1235771  21.4131908  84.2207260  71.1831512  37.5684853  64.7684708
  71.7299118  37.0674400  65.3736496  70.2860794  37.3327293  65.0049133
  54.6292953  10.6134205  24.0361958  54.0791588   9.8847361  24.3235970
  54.4606934  11.3069143  24.6740589  63.8847961  38.6098328  64.3048935
  63.1369514  38.6119347  63.7074356  63.9284973  39.5064812  64.6370773
  32.7802544  70.1283646  34.4809723  33.3208885  70.9001694  34.6490936
  32.1250572  70.1382828  35.1787186  57.3428726   3.8918872  16.1180611
  57.6320648   3.3101394  16.8210335  57.8935471   4.6695323  16.2089367
  65.1669006   9.2067280  25.0933285  65.3468246   8.9136906  24.2000275
  64.4307861   9.8119068  25.0031834  81.7138901  32.7666702  41.9946175
  82.5044022  32.2368889  42.0978622  81.8151932  33.4745712  42.6308937
  59.2249565  42.0491104  22.5445671  59.6867828  41.6319084  23.2718163
  59.7040138  41.7692490  21.7645588  30.4427280  62.3689423  59.4049263
  29.8970127  63.0725861  59.7560806  30.7060299  62.6796265  58.5386810
  15.5525141  57.3594818  31.3632774  15.2486534  57.0601425  32.2201881
  15.6812773  58.3018913  31.4705982  38.5071678  38.8300781  84.7059860
  39.1541634  38.4089279  84.1400681  39.0188599  39.1813469  85.4346924
  12.5008659  51.0646400  45.1608009  12.9634352  50.2272644  45.1281929
  11.6407499  50.8779449  44.7845345  31.4728756  33.7185478  76.7177505
  32.0520821  34.3987122  76.3740540  31.0246601  33.3730621  75.9457626
  25.2777443  54.9833565  25.7241478  25.0031357  55.5382423  24.9941311
  26.1697407  55.2698250  25.9203968  35.7186241  44.4948273  19.6470757
  34.8854370  44.7103462  19.2280426  36.2907600  44.2373619  18.9241619
  80.5576935  15.2514648  75.3940201  80.9627991  14.3888483  75.4835129
  79.9148941  15.2888451  76.1022873   3.9890416  60.6415367  73.8644562
   3.5080783  60.1241493  73.2185287   3.3292539  60.8894310  74.5121078
  58.4314003  37.8197937  41.6276474  57.9133606  38.5805855  41.3648529
  57.9402237  37.0688705  41.2943420  34.6114845  65.6814499  62.8889847
  33.7302017  65.3092346  62.8568802  34.6113243  66.2301254  63.6733246
  74.1012344  56.0632133  56.9913635  73.4578247  55.5558701  56.4965324
  74.0827103  56.9313774  56.5886459  70.8406677  58.0913506  42.8988495
  71.4568787  58.0737114  42.1665878  70.5250397  58.9946518  42.9245720
  39.1427574  43.0528717  20.1965981  39.6229134  42.2293282  20.2829895
  38.5978508  42.9319763  19.4189796  10.4908047  48.1238213  43.7026253
   9.7951574  48.7220688  43.9754028  10.1952858  47.2624855  43.9975777
  51.9140816  53.5249481  58.5601006  51.3304443  53.4042168  59.3091125
  52.7599030  53.1913490  58.8593140  31.2352219  17.9746170  82.0894928
  31.5951157  17.3845234  81.4272995  30.9116573  18.7250576  81.5911179
  21.9911671  69.2384491  78.0837708  22.6287956  68.6824493  78.5315704
  22.4884109  70.0155487  77.8286362  55.2294502   4.2741399  77.7825165
  56.0068359   3.7677045  77.5470886  54.4950180   3.6980622  77.5704422
  16.3293247  39.3122025  78.6273270  16.7886791  39.7942696  79.3149567
  15.8137856  39.9777145  78.1717529  58.0657082  63.8442841  22.9504452
  58.2960281  64.1577682  22.0758514  57.9522362  64.6412354  23.4683475
  51.1470032  15.0486822  50.2340012  51.4193497  15.9661417  50.2520752
  51.6704292  14.6299572  50.9173241  55.6421547  10.4837379  83.7293091
  55.0624809  10.2541189  84.4555893  56.3309441   9.8194933  83.7533875
  10.5903435  63.2899284  16.7652969  10.1839886  63.4301720  17.6205387
   9.8919020  62.9186478  16.2262592  53.7083435  37.5511093   5.2898908
  53.7634277  37.6061783   4.3358650  54.4255524  36.9677429   5.5379367
   4.9992194   3.8789630  56.3864250   4.4550595   4.6254301  56.6372414
   4.6642032   3.6156070  55.5293121  58.0508118  52.8422699   5.8825002
  58.1604614  52.1578140   5.2224026  57.7735672  53.6119995   5.3856258
   2.8846591  44.5358658  43.8908195   3.3558350  45.2111359  43.4027290
   1.9965963  44.8813972  43.9812851  74.7930450  59.1407242  60.7963219
  75.3196335  59.4835205  61.5184250  74.6664047  58.2163162  61.0100136
   6.5583277  71.5566559  75.6296158   7.3023462  70.9697189  75.7644424
   6.1764894  71.2724686  74.7991562  41.8426819   3.8163254  62.5258102
  42.1497078   4.2505946  61.7299614  42.2131424   4.3350854  63.2398682
  46.3335342  26.8677864  46.4857979  45.7007523  27.0451736  45.7898445
  46.7498741  26.0456104  46.2271042  77.0753479  31.6521225  83.4902725
  76.4780426  32.2921791  83.1032486  76.7684937  30.8077888  83.1598587
  60.1736259  46.1048584  88.7460098  60.1825562  45.1495476  88.8054886
  61.0976601  46.3507462  88.7020645  28.6676140   7.7369556  66.7502441
  28.6543026   6.9081202  67.2288742  27.7723484   7.8419795  66.4282150
  72.7565842  27.7360325  19.4132519  73.2777252  28.0598145  18.6785355
  72.7607956  26.7845402  19.3089695  75.7097321  50.6627350  79.0320435
  75.4609451  51.5705223  79.2059937  76.6545258  50.6977730  78.8824997
  31.3665962  26.2648983   3.7880223  30.6848125  25.6605358   3.4945135
  31.0694447  27.1244392   3.4894924  84.4178925  58.7556953  44.8160210
  84.2472839  58.1508331  44.0940323  84.7751923  58.2036667  45.5116043
  22.4358292  50.9527512  25.6323090  22.9830017  51.4014740  26.2768860
  21.9002304  51.6468353  25.2481060  27.1262131  68.8183975  64.4829330
  27.7971230  69.3621445  64.0700836  26.3001232  69.1460419  64.1273270
   3.4816065  41.1027832  60.7251472   3.7557731  41.9449539  60.3620911
   2.7288718  41.3137321  61.2775269  52.4366226  37.5686035  17.4781647
  53.0858841  38.1573334  17.8629780  52.9550934  36.8897972  17.0461426
  43.2249260  50.1435699  50.9276047  43.3677864  50.7825050  50.2293320
  42.2769547  50.0117035  50.9413261  40.4587479  28.6310081  64.8246613
  40.4558334  28.7602577  65.7730865  41.3670959  28.4134541  64.6153717
  11.6909819   1.1864446  62.2725105  11.7083864   0.2325836  62.1945496
  12.2808723   1.3779670  63.0016060  69.2483139   6.4947681  81.3421860
  69.0527878   7.2633305  80.8061676  68.3907089   6.1679449  81.6141129
   0.4449998  49.9731827  80.3304901  -0.3135797  50.1848488  79.7864456
   0.2385213  49.1176834  80.7069473  34.4701347  56.8489265  24.7135563
  34.0995445  57.7270393  24.6251545  35.1907730  56.9544983  25.3346577
  46.6459999   5.4539251  12.3748951  47.1330948   4.7497559  12.8028164
  47.1361275   6.2480283  12.5879803  66.6329422  50.4542542  54.7531395
  67.2982864  49.8609390  55.1017494  66.1414490  50.7416115  55.5226097
  77.0012283  57.2613297  20.8009453  77.1033478  56.7687988  21.6153278
  76.2675781  56.8378029  20.3552837  85.5929413   6.2769074  73.4780731
  85.5973969   6.8482413  74.2460556  86.4662247   6.3778577  73.0993805
  81.8758240  31.0766430  29.5942478  81.4039459  30.2750759  29.3682976
  81.7176437  31.1916504  30.5312557  67.0376282  28.0661907   3.8316710
  67.2036285  28.9315300   4.2056532  66.1952515  28.1554756   3.3859529
  78.0442810  19.8587551  32.4657936  78.0002365  20.7510490  32.1221352
  78.8766174  19.8244801  32.9372482  30.5244656  54.3104630  48.0783195
  30.1159725  54.1898842  47.2210999  31.3221760  54.8070183  47.8957825
  81.3767471  70.7662201  82.0191422  81.1218185  70.5601883  81.1198196
  80.8530960  70.1734924  82.5583038  14.5641012  48.1484261  54.3703728
  13.6833715  48.4085159  54.6403732  15.1405449  48.7932281  54.7804604
  37.8492355   5.6360803  22.7380772  37.3089485   5.8911166  23.4859276
  38.5467415   5.1016507  23.1176853  37.7343750  22.0915775   9.2908716
  37.4254913  22.4342079   8.4521666  37.0544090  22.3411999   9.9166222
  62.0537338   9.2815018  14.4301968  62.6664124   8.7986803  14.9849424
  62.2090912   8.9411640  13.5491362  26.0173855  53.9687691  55.1807518
  26.9477749  54.1599045  55.2993965  25.9372749  53.0358696  55.3795280
  27.4250984  45.8659477   2.9109304  26.6290913  45.4441299   2.5873978
  27.3165054  45.8850975   3.8617578  60.8000145   2.1140091   1.9771924
  60.6694183   1.1680883   2.0435987  60.3649864   2.3591075   1.1605467
  83.1609955  16.5071354  24.3855743  83.5164413  15.6183949  24.3909893
  82.2403183  16.3983269  24.6237965   2.6657505  30.1062622  39.1525307
   3.1864159  30.9094505  39.1578674   1.8477583  30.3539486  38.7215195
  14.6176376  36.6359673   9.9683437  14.2558355  37.5209007  10.0154743
  14.3357019  36.2182846  10.7821531  53.7571144  57.3046646   0.0714047
  54.2200317  56.5833702  -0.3548201  54.1574211  57.3669586   0.9386452
  16.9412708  45.1744576  63.1733437  17.7398548  45.5351143  62.7880859
  16.5937099  44.5893440  62.5002365  30.6104145   1.3091960  66.0935898
  29.7570782   0.8881530  65.9898148  30.7292233   1.8115805  65.2875366
   6.7188396  33.4734459  68.8331528   6.8775539  33.8719444  67.9774399
   6.7438779  32.5311317  68.6668854  67.2123413  39.7715912  18.3160572
  67.1766891  39.5958214  17.3758087  67.4315262  40.7013130  18.3777733
   6.9383383  23.3556995  75.9775543   6.7791486  22.8832932  75.1604080
   6.2311964  23.9991550  76.0238876  72.3787918  48.1667557   0.7289974
  71.7729416  48.7776527   0.3095033  72.0155182  48.0322647   1.6043129
  15.0648375  53.9493561  68.2392120  14.8424339  53.3406029  68.9436188
  14.5110331  54.7135010  68.3992691   0.6220120  62.3248062  18.8678322
   0.0529814  61.5910988  19.1004543   0.0192493  63.0372772  18.6550140
  47.2841988  29.9014893  38.1311111  47.6585579  30.6535435  37.6723061
  46.5992622  29.5799370  37.5448532  59.5125427  63.3390350  84.0518723
  60.1145096  62.7551384  84.5133209  59.2480125  63.9802475  84.7114944
  63.5055275  24.2303467  81.2866211  63.4764328  23.8423271  82.1611633
  64.3617172  24.6559753  81.2417984  86.2939224  49.7808228  62.5714951
  86.3784485  49.9344826  61.6304970  86.6924438  50.5510330  62.9766998
  33.1981468  66.2418900  52.0334358  32.7013130  66.9735260  51.6672363
  32.5410652  65.5664368  52.2014618   3.7194991  31.3451252  46.6207962
   4.5319414  31.6332512  46.2046814   3.0351171  31.5677776  45.9897041
   0.1716112  30.9981880   1.0295414   0.9925160  31.4885616   1.0729216
  -0.4033829  31.5409527   0.4900783  80.0010681   1.1430842  62.0361671
  79.4537964   1.1358262  62.8214531  80.5177155   0.3395726  62.0968437
  49.8531342  59.6832008  44.3148308  50.0747566  60.5037117  44.7551460
  50.0785751  59.8353882  43.3970909  21.1863194  59.4654617  40.0630569
  21.2352734  59.0165901  39.2190514  22.0676785  59.3861961  40.4279671
  41.9715691   2.7383263  27.0797310  41.6883202   3.6220899  27.3141727
  41.1769562   2.2081110  27.1405182  22.2712440  42.4367065  73.5668716
  22.4278049  43.3709602  73.7042999  22.7539539  42.0065918  74.2727203
  50.9611473  56.4024429  59.3362007  51.6570358  56.0798111  59.9088097
  51.3013878  57.2258682  58.9862862   1.7113359  48.8347015  45.8412590
   2.2672057  49.2205544  45.1642380   2.1831100  48.0498428  46.1199303
  54.9373817  28.4327106  59.4186897  55.0743713  28.4905739  60.3642654
  55.8102951  28.2738686  59.0594902  10.0279036  39.4287720  54.3356628
   9.8845749  40.3697014  54.2339935   9.2219629  39.0272598  54.0108871
  51.6360130  36.2104301  26.4730167  51.0321198  36.8681526  26.8178978
  52.4389572  36.3336105  26.9793205  82.9277267   2.1358879  67.2619019
  82.2976761   2.1109679  67.9820709  83.4142685   1.3153530  67.3408279
  67.9410400   4.1284299  86.9950333  67.8875427   4.4970174  87.8768005
  68.8558426   4.2486920  86.7402649   8.9318972  59.2626572  12.3047400
   9.3108196  58.6683502  12.9523878   9.6851082  59.6010933  11.8206263
  53.6315384  68.8307266  57.4460449  53.4873161  68.2410736  58.1861382
  52.7557068  69.1346664  57.2077599  28.4375134  45.0088921  25.9493084
  27.5615330  45.1212654  25.5801716  28.4951572  45.6733780  26.6358719
   7.4718490  26.2936745   7.4895329   7.3888369  26.7566719   8.3231831
   6.5844231  25.9936924   7.2927642  14.9638624  44.4175758  58.0379181
  15.1344957  44.8658943  57.2095909  15.8077497  44.0382042  58.2832031
  64.2945099  20.3173599  41.0497131  64.6307297  19.8892708  40.2623596
  64.7584381  21.1539097  41.0841675  83.8373413  41.5832672  80.2203293
  84.7350159  41.3783340  79.9587784  83.8540878  41.5544395  81.1769485
  56.8949928  24.2749672  67.1024551  56.6059227  25.0573540  66.6328354
  57.5747986  24.5905037  67.6978760  77.0593033  35.6028404  82.3331909
  78.0093460  35.4869576  82.3183441  76.8740082  35.9503250  83.2056351
  41.0428047  23.7732868  65.8060532  41.0530396  24.6450539  66.2012177
  40.7456093  23.1952648  66.5087662  74.4588013  37.7052345  31.6466885
  73.5948792  37.4374695  31.9600029  75.0709763  37.3196030  32.2733917
  70.0016403  49.1017075  48.1381073  70.6863480  48.9146805  48.7803154
  69.7114639  48.2398148  47.8394890  54.5124550  18.7133999  69.1877213
  54.5993233  19.4947376  68.6416473  55.4125214  18.4752102  69.4099274
  73.8136597  21.3404045  81.0174713  74.1874008  21.7640572  81.7901764
  73.4821396  22.0632896  80.4847794  12.4562311  41.5093803  13.4054346
  11.6046028  41.1761971  13.1226835  13.0582685  41.2508202  12.7076302
  82.3339615  51.0405121  38.5827293  81.5355301  50.5223770  38.6841087
  82.0236816  51.9388733  38.4691010  71.1271591  26.0344410  23.9842701
  71.6526337  26.7325954  24.3750210  70.4743042  25.8238087  24.6518364
  60.2352142  51.7995300  36.6373711  60.1049500  51.1035004  35.9933205
  60.5897751  52.5306778  36.1314697  64.3449783   1.2846282  88.3222351
  63.4142113   1.0643562  88.3594437  64.5549011   1.5876032  89.2056198
  26.5905285  58.4394722  40.1693916  26.3576527  57.5551033  40.4520378
  26.4702206  58.9799347  40.9501991  16.2625885  64.5235519  55.9158287
  16.6289253  65.4056702  55.8534088  15.7169590  64.4349518  55.1343765
  67.8209076  15.7050238  63.4302406  67.7873459  15.9035397  62.4944534
  67.7086105  16.5533161  63.8592186   7.2010174  70.2078171  16.1078205
   6.8248086  70.2380981  15.2281713   7.7420974  69.4182205  16.1098518
  81.9562683  25.2714233  64.9122849  81.6770782  24.8763962  65.7382660
  82.8167877  25.6442738  65.1039047  17.8553333  53.9814529  12.2173595
  17.1631031  53.3706894  12.4703703  18.5924702  53.7565269  12.7850475
  68.8623886  11.1475258  31.1168556  69.1574478  10.7771492  30.2849941
  67.9325943  11.3301582  30.9813461  75.5261688  33.5628967  48.1431885
  75.5034943  33.7071266  49.0891876  76.1480026  34.2132034  47.8166008
  70.2318802  -0.1970234  21.3030453  69.4216919  -0.2031565  20.7933464
  70.5662994   0.6950751  21.2105408  48.0084305  45.2195206  55.4813766
  47.2011299  45.1295319  54.9750214  48.3575058  46.0733871  55.2258492
  47.3026237  51.8421860  50.0335121  46.9849777  51.4230385  50.8332901
  47.2629929  51.1533165  49.3700943  27.0688648  52.1224709  29.7833328
  26.4386349  51.4328117  29.5749741  27.8731461  51.8541374  29.3390789
   2.8311985  33.6683655  11.1438904   1.9372272  33.9689789  11.3072290
   2.8252387  32.7470207  11.4033499  46.3191833  27.5339336  68.2488022
  45.9648170  27.5304089  69.1379852  47.1664619  27.0954647  68.3268967
  52.7126732  46.2646446  72.1790237  53.6283035  46.0613022  71.9879456
  52.3547897  46.5654716  71.3437653  30.5978813  33.0417061  13.8926659
  30.0888920  33.6488686  13.3555298  29.9407063  32.5386925  14.3736362
  50.4514465  32.7736969   7.7409148  49.6689529  32.8111305   7.1908813
  50.1157532  32.7984886   8.6369781  61.5223656  37.8451195  46.2986069
  62.1845932  37.2731972  45.9105415  60.8171959  37.8683815  45.6517448
  11.7887774   9.5516739  86.5350800  11.5540848  10.2793331  87.1109772
  12.1145058   9.9717016  85.7390213  31.7639980  23.7155304  66.6221161
  32.3684883  23.5272236  65.9042282  32.3290215  23.8392296  67.3847961
   1.3793981   3.4509885   3.1250014   0.6255143   3.6712158   3.6721675
   1.8366359   4.2827582   3.0012095  49.2637062  37.4536934  47.7160149
  48.3354950  37.3203545  47.9080391  49.2704811  38.0640106  46.9786530
  66.9948273  46.3613510  45.7613182  67.3099213  46.7927589  44.9670639
  66.0769653  46.1615753  45.5773315  20.4656219  55.6497231  71.7604141
  20.6771774  54.8204613  71.3316956  21.0823002  55.7061615  72.4903183
  31.0542660  20.4335270  61.4985695  31.5701427  20.5583134  60.7019958
  30.6564884  19.5692711  61.3933830  77.9028549  49.4475632  85.0167770
  78.0999222  48.7106285  84.4385681  77.3209229  50.0068130  84.5021744
  66.2814713  52.9640007  60.3482857  66.1303329  52.1657524  60.8544388
  65.6061249  52.9490509  59.6701126  63.9960365   2.4680557  24.9483967
  63.8954010   3.0233185  24.1752281  63.2272758   1.8979064  24.9355183
  17.0651970  36.3314896  22.2198391  17.1958904  35.5107231  22.6947041
  16.2047501  36.6388588  22.5051270  18.6263275  21.6127796  80.0774384
  18.8456821  22.5401402  79.9873505  19.2533855  21.1622772  79.5116882
  15.1599131  67.4652863  64.8906784  15.5403662  67.1014175  64.0912476
  15.4778309  66.8931885  65.5891495  80.0163193  66.5416946  83.5767365
  79.1564407  66.8270493  83.2678528  79.9419250  66.5470734  84.5310287
   0.2146213  10.4125471  70.3654251   0.4810739  10.0879288  69.5052719
   0.9931239  10.3082247  70.9124908  68.7797623  23.5816402  54.7030067
  68.9918213  23.9171581  53.8319778  67.8421249  23.7469940  54.8016319
  79.3239746  63.0289459  84.0015869  78.6488037  63.5796661  83.6052551
  78.8587799  62.5202942  84.6657410  68.4266281  12.4037304  15.9073410
  67.6697617  12.8707333  15.5533676  69.1791000  12.9349861  15.6469831
  48.4689293  42.7109833   0.6286284  49.4255638  42.7075958   0.6613784
  48.2446480  41.9449234   0.1003481   1.3510134  29.4873619  47.5968590
   0.8210288  29.9887047  48.2165375   1.4345021  30.0603943  46.8346939
  60.4169731  56.3810806  46.8917694  59.6738701  55.7934952  46.7547569
  60.1041870  57.0167274  47.5354729  47.7926407  68.9833603  81.4814835
  47.5947266  68.7820816  82.3961182  48.2446327  69.8264847  81.5141754
   4.2720766  37.0137787  49.3037224   3.7570248  37.7709274  49.0250130
   5.1323466  37.3749161  49.5176086  65.8894882  69.4240341  81.7792206
  65.9821320  69.2247238  82.7108459  65.1712036  68.8640518  81.4847565
  82.9356842  57.3559151  22.0216904  82.9569778  56.8368683  21.2177200
  83.5420532  56.9083900  22.6118355   4.2047830  23.8827095  52.5099754
   4.6353660  23.0278244  52.5116653   4.5549173  24.3287659  53.2811241
  63.9670715  71.0791168  67.7985535  64.0904617  70.2313309  68.2254791
  64.3590622  71.7104263  68.4019089  30.4018021  69.0796738   7.3305597
  30.9628334  68.8311386   8.0652046  30.9366951  69.6823120   6.8138843
  66.2458725   0.2882457  45.7574730  65.4082870   0.6687365  46.0218773
  66.5886307   0.8957388  45.1019554  18.3267345  34.9477997  15.9917536
  17.6385441  35.4570122  15.5635881  17.8570232  34.3616714  16.5850945
  38.2438431   9.3346977  83.5400543  38.0867119   9.1388865  84.4637451
  39.1967735   9.3839636  83.4644012  71.9633484  33.9939957   7.6856461
  71.6467743  34.2775536   6.8279696  71.1792068  33.9687271   8.2340250
  66.8948746  66.6122360  79.7629166  67.0416641  67.5514450  79.6508102
  67.7544937  66.2165909  79.6188812  21.1543865   4.3692670  11.1882544
  21.2609577   5.2436242  10.8135881  20.7324429   3.8615003  10.4951677
  35.3073578  26.7368183  87.8847427  34.8347549  25.9091148  87.7965088
  34.8232079  27.3492794  87.3309174  75.0634384  61.7867661  28.3581238
  74.8393173  62.6744385  28.6374702  76.0135651  61.8045044  28.2433472
  25.2518196  35.5026970  54.6453094  24.7830963  35.9892921  53.9672546
  24.8863678  34.6190720  54.6019363  76.9573898  16.1693478  33.3724442
  76.2902145  16.7257557  33.7743301  76.8028183  16.2516747  32.4314003
   5.6136494  18.7037010   2.1672640   4.9768724  18.0637531   2.4854052
   5.7475505  18.4718494   1.2482718   1.2510059  56.1782570   0.6330726
   1.9264038  55.6005936   0.9885623   1.1295905  55.8787193  -0.2679086
   3.3866992  60.3491135  84.6801147   3.9669864  59.8724022  84.0866165
   2.5074904  60.1833839  84.3398895  28.6634293  44.4133263  78.2266617
  29.3418331  44.7628326  78.8044586  28.1059666  43.8889847  78.8015823
  25.1918163   9.6179457  86.1179581  24.9213543  10.1743650  85.3875580
  25.0536995   8.7248068  85.8025894  62.0747833  55.8268280  39.0527077
  61.2468224  55.3472137  39.0266075  62.5997581  55.4365997  38.3538857
  32.4156113  68.9866562  12.8992434  32.1891594  69.1960068  13.8054018
  31.7213707  69.3914413  12.3792295  31.4240589  35.7401466  81.1278839
  31.7442646  35.8437271  82.0239716  32.0412636  35.1315269  80.7218399
  61.6926994  12.7950306  61.6309242  62.1193504  13.3506289  60.9786148
  60.7563515  12.9206724  61.4769707  69.1174011  28.8035965  76.6660843
  68.3091965  28.4141979  76.9998703  69.0086060  29.7433186  76.8120880
  52.9511223  53.5383835  36.8844299  53.4692802  53.2729836  36.1246223
  52.1229439  53.0687561  36.7854195  43.0438614  46.8530807  38.1176491
  42.3757324  46.9947243  37.4470024  43.3807335  45.9752159  37.9384880
  42.9177513  48.5600166  63.1147804  43.2424126  49.1852493  62.4667778
  42.8604889  49.0642433  63.9263916  21.8379078  26.3949203   4.6181622
  21.4536591  26.0350246   3.8187494  21.0886250  26.7123470   5.1221938
  44.6202927   6.7520466   8.3574324  44.2518158   6.6116061   7.4852319
  43.8580055   6.8845134   8.9209967  81.8535919  51.3566742  70.6389160
  81.0951538  51.1385918  71.1806183  82.1923370  52.1683044  71.0167160
  84.4027557  38.2927284  54.0459938  84.9306946  38.8740005  54.5933838
  83.8540421  38.8830185  53.5295563  24.8110600  26.5790901  66.2748108
  25.1333313  25.7513390  65.9181519  24.6946259  27.1408672  65.5085983
   8.5861006  52.0559311  89.0373840   7.6468015  52.1367760  88.8718185
   8.8542547  51.2914886  88.5275269  34.2494926  24.4272976  84.6660385
  35.1669655  24.6910114  84.5958252  33.9706688  24.7555962  85.5208511
  83.8921280  40.9080772  83.9313278  83.2248459  40.3919716  83.4790039
  84.7235184  40.5551949  83.6143265  58.9683304  21.0208664  31.5502586
  59.1183281  20.9660740  32.4940453  59.8375893  21.1687756  31.1777782
  65.5756760  50.6358452  85.8390427  65.5716705  51.5752487  85.6553650
  65.6272659  50.2234268  84.9767914  82.9433975  41.1260948  62.1432915
  82.1897812  41.5565758  61.7395821  83.6818008  41.3580208  61.5800858
  45.2969475  34.5027504  88.4393158  44.4630394  34.2729225  88.0294342
  45.9342613  34.4591904  87.7264557  36.9252548  13.8226900   6.5907750
  37.8033028  13.6401930   6.9253755  36.3381691  13.5394716   7.2917385
  38.9548759  44.5745811  75.8010330  38.4250679  44.7596092  75.0255966
  38.5675201  43.7818451  76.1721878  14.1532001  49.0776749  13.6743860
  14.8314743  48.5567284  13.2445135  14.3969936  49.0713882  14.5999975
  81.8210983  42.3701019   2.3280418  81.8045654  43.3124466   2.4952137
  81.3365784  42.2635345   1.5094365  68.1161880  59.2378807   0.4826213
  68.8894730  58.7453041   0.2076134  67.6141434  58.6190681   1.0129517
  80.1174927  24.9891853  57.3799286  79.8430481  25.7425270  57.9027939
  79.5475922  24.2765560  57.6690750  40.4759331  35.1267014  54.2321396
  41.1775284  35.1763802  54.8813858  40.8767548  34.6925201  53.4791031
  40.0931892  47.0717087  33.5948334  39.4882736  47.6856956  33.1785011
  39.7986145  46.2093925  33.3018036  83.4857025  31.8135662  61.4932976
  84.3141937  31.3636723  61.3276482  83.1163101  31.3632298  62.2528877
  69.5328369  49.4533653  44.9385147  69.6291580  48.8133087  45.6436958
  69.9806290  50.2351494  45.2618256  10.8873777  43.2298584  87.4212723
  10.3556900  42.7073250  88.0216904  10.6709461  42.8907967  86.5526962
  20.2303448  12.6656885  42.8256226  20.6134624  12.1788054  42.0959663
  20.2285004  12.0441618  43.5535889  73.8282471  41.3609924   1.2303388
  73.1518707  40.8426476   1.6663022  74.2556305  40.7450562   0.6351907
   9.9448233  69.3499374  70.9237595   9.2251978  69.5694504  71.5155258
   9.5141478  69.0821533  70.1119461  73.0343094  33.4310760  87.0485229
  72.4699860  33.5104828  87.8175888  73.8399887  33.0365181  87.3823547
  60.2212715  21.4538269  44.0454292  60.6055298  22.2174454  44.4760818
  59.4415321  21.2538700  44.5633621  62.6124496   9.2425966  31.9332561
  62.4361229   8.3715887  32.2889061  63.4194107   9.5196314  32.3671913
   3.0294564  23.3977661  14.3869944   3.4009745  23.9962387  13.7388906
   3.3192282  22.5299892  14.1055222  61.5875969  20.9486294  60.7177505
  62.2887917  20.7750683  60.0897102  61.1923332  21.7663422  60.4155159
   1.8641721  12.9601183  70.3534317   1.9975046  12.5002060  69.5246124
   1.4393287  12.3155584  70.9193649  50.9758263  69.6401215  60.8882866
  50.3119278  68.9916763  60.6537819  51.7999878  69.1534042  60.8785286
  18.7400818   0.0003382  87.3132172  19.6687393  -0.0890440  87.5273209
  18.6858654   0.8183193  86.8190536  77.3434753  56.3168716  46.2791138
  76.4390945  56.1889153  45.9928322  77.4177933  57.2601967  46.4235153
  82.7357941  22.0179520  10.8491516  83.5002441  22.3455200  11.3230095
  82.2013855  21.5939236  11.5205965  67.0477982  34.3271637  16.8284187
  66.4521027  34.4524002  17.5671291  66.5004272  33.9475365  16.1410294
   2.9497941  61.5353737  34.2070580   2.8138931  62.4465485  33.9472122
   3.1513591  61.5803719  35.1417122  53.7963028  12.5531006  47.7734451
  53.4133377  11.6921949  47.9420052  54.4728546  12.3897810  47.1163025
  26.7039433  26.2041683  18.1704426  26.4154987  25.9079494  17.3071442
  27.4982681  26.7094231  17.9972420  37.9519157  45.8619232  68.1912155
  37.9798927  46.1040916  69.1168518  37.6076889  46.6388779  67.7506638
  43.8204918  44.6348572  37.0847015  43.3745995  44.5996170  36.2384338
  44.6212692  44.1267967  36.9548454  43.5192261  28.4299355  75.5817261
  43.4014740  28.1023026  76.4733658  42.7771988  28.0713539  75.0948486
  12.2912350  47.5618095  62.0091553  13.1586084  47.6682739  61.6185646
  12.3689976  46.7798080  62.5556526  35.2323036  11.0558500   1.3273430
  34.6768265  10.3229227   1.0618360  35.6553764  10.7564850   2.1320922
  43.1144447  38.7301521  12.7304525  42.5088158  38.0872078  12.3615799
  43.4222031  39.2304497  11.9746628  64.4622879  37.2461319  48.5617752
  63.6100807  37.5434952  48.8804512  64.9598160  37.0501938  49.3556938
  23.3773994   8.5257111  76.6795731  24.0497341   9.1782770  76.4837189
  22.7187366   9.0041208  77.1830826  60.5814972  20.1371746   0.2413782
  60.6858406  19.6663971  -0.5854923  61.4486008  20.1063347   0.6456186
  86.0249176   8.4599047  33.5968513  85.9384918   9.3083372  34.0315094
  86.3587723   8.6704435  32.7248154  32.8452682  67.9145050   8.5169258
  32.3365669  67.2732697   9.0131884  33.4107018  68.3282089   9.1691227
  46.4183426  58.6688728  34.3835793  46.2590065  58.8571548  35.3084564
  46.4281998  57.7131157  34.3319664  85.5645294   8.2794628   0.3954712
  85.5151062   8.1819534  -0.5554659  84.7669525   7.8620305   0.7208139
  31.2105503  41.1745186  86.0264359  32.1463623  41.3735809  85.9970703
  31.0771580  40.7768326  86.8868332  48.3354836  61.3070869  70.2157135
  47.5139389  61.2829552  70.7063446  48.9463005  60.7953644  70.7460632
  18.0059032  33.3404465  37.1437988  17.5854683  33.1372948  37.9793777
  18.9415512  33.2311440  37.3136330  62.7289276  52.3070374  76.4940567
  62.6274033  53.2364807  76.6991425  63.1596718  52.2960205  75.6393204
  41.8557663   1.6332071  58.2201500  41.5736198   2.3774862  57.6884804
  41.7919655   1.9456911  59.1226578  84.5594025  53.3190460  13.7554741
  84.5145340  54.2401123  13.4988575  84.6806335  52.8465843  12.9318752
  71.4791412  67.7503357  55.9629288  71.1762161  68.4286728  55.3593330
  71.4288254  66.9394836  55.4567490  30.9410744  43.6348534  33.6555099
  31.1564274  43.9073715  32.7635536  30.8362350  42.6852074  33.5970840
   1.1891630  43.2245293   2.7961383   1.8251327  42.9459343   3.4550462
   1.2767131  42.5820274   2.0920382  63.9014168  27.8322735  36.4848671
  63.2299805  27.6200504  37.1332283  64.0309525  27.0178814  35.9988441
  37.3260422  22.5914364  18.0388336  37.2722740  21.9881954  17.2975922
  38.2044601  22.9669514  17.9788036  61.3578568  34.9163933  52.3717041
  62.2966499  34.7298698  52.3615036  61.1398506  34.9974937  53.3002129
  75.6929779  65.4317169  17.7855377  76.5875092  65.6842957  17.5569706
  75.1909256  66.2441788  17.7215347  74.0183182  43.1056786  68.0516891
  74.4569702  42.3070602  67.7584000  74.5928726  43.8145409  67.7625046
  33.1963196  48.1185951  11.0853834  33.2169800  48.8572273  10.4769239
  33.8280334  47.4951973  10.7268562  50.4262199  38.2516556  28.0310917
  49.5402908  38.6042252  28.1150723  50.8748894  38.5394249  28.8261471
  77.8032074   5.1540012  43.1214867  76.8576355   5.0234509  43.0501709
  77.9851227   5.9027529  42.5535889  62.4504013  35.8074684  78.1840057
  62.9869118  36.5893784  78.0535812  62.8103523  35.1652412  77.5722809
  15.0036287  69.1346664  31.5824718  15.7282429  68.8755722  31.0132275
  15.0815563  70.0861969  31.6513271  64.1739578  20.4629879  74.9376984
  64.9309769  19.9776669  74.6096497  63.4567337  19.8293705  74.9188461
  42.0765228  48.0066605  40.4851685  42.2837029  47.4929085  39.7045517
  42.8462715  48.5596046  40.6192398   4.4379621  58.2117615  37.3501816
   4.6390471  57.9554405  36.4501266   3.6280994  58.7171669  37.2800331
  13.2894669  37.3484573  28.2412128  12.5143080  36.8168221  28.0603104
  12.9407854  38.1719284  28.5825996   6.0266571  25.4684544  77.9053192
   5.4601240  26.0360622  78.4279022   5.5098577  25.2669353  77.1252289
  69.4097290  16.0833206  14.5394049  69.9162750  15.3311710  14.2329512
  68.8047943  16.2729301  13.8222313  60.7306213   2.8727775  32.0825882
  61.3174934   2.1233335  31.9818516  59.8538551   2.4892821  32.1036377
  75.9543228  24.8348370  60.0950127  75.0224533  25.0046768  60.2328453
  76.3983002  25.4337444  60.6953697  59.9406204  66.2906494  21.5553226
  60.7179832  66.6072159  21.0951843  59.5655060  65.6342468  20.9682503
  84.5523376  40.8993340  25.0200653  84.0056534  40.3373299  25.5691757
  85.2912598  41.1361237  25.5805588  67.4869690  39.1525841  74.4182434
  67.0264130  39.8321190  73.9259491  68.3937454  39.2118683  74.1174545
  40.6670990  37.8311996  23.4977684  40.5473328  37.3656998  24.3255348
  41.2452011  37.2652473  22.9861794  49.4752274  14.8471994  72.2371292
  49.5803566  15.6778316  71.7732086  48.7291374  14.9907961  72.8193359
  49.3348808  47.6720924  64.5671692  50.2201080  47.3420792  64.4132233
  49.3171120  47.8837395  65.5005035  58.4367599  13.3247862  45.1297646
  58.4981766  14.1730604  45.5689545  59.1055107  13.3601990  44.4458427
  16.0209122   3.6030023  78.6649323  15.6646585   4.4105082  79.0354004
  16.5215492   3.8902824  77.9013443  15.0935049  16.5096359  49.4223404
  14.3334551  17.0072594  49.1207962  15.1593294  16.7146282  50.3550110
  11.2281256   3.5289135  65.9824905  10.4189262   4.0083537  65.8048248
  11.0633945   3.0799675  66.8116760  45.9346581  14.7669249  66.1433868
  46.3799973  14.8510323  65.3002777  46.3753853  14.0350666  66.5750961
  15.2642374  63.1778183  88.4009247  14.4610968  62.8974152  87.9620972
  15.6631355  63.8018608  87.7945557  62.8117905  17.5674591   0.8132136
  62.5638466  17.4579372  -0.1048066  63.6653442  17.1399651   0.8834153
  70.9628906  25.2316456  21.3760376  71.7880325  24.9446602  20.9848633
  71.2233276  25.6914310  22.1741619  79.4016342  29.5470123   4.7708492
  79.4657669  29.4724312   5.7229815  79.7934494  30.3969936   4.5702496
  19.0282536  47.5844955  25.4715672  18.6305027  48.2699394  26.0084019
  18.5454121  47.6166573  24.6456966  37.1611557  53.8224564  84.1058197
  37.2404594  52.9215698  84.4194183  38.0648422  54.1229515  84.0094757
  70.9933243  68.7142792  21.3379955  70.4025803  67.9635086  21.3979874
  70.4233551  69.4763565  21.4409847  14.0710077  53.1906853   5.2325306
  14.6165552  53.1477013   4.4471884  14.6851759  53.0744553   5.9574566
  62.5884781   2.2479215  40.0713959  62.6069832   3.1694746  40.3295212
  61.7519531   2.1428969  39.6181526  51.7968636  47.6834259  83.2077408
  51.3523026  46.8725853  82.9604797  51.9943504  47.5742264  84.1379623
  63.4647331  40.2901802  20.5056896  63.3705292  41.2070885  20.2475433
  63.6910820  39.8350487  19.6946087   6.0755391  60.3479424  19.3435631
   6.0602570  59.7260208  18.6160965   5.2971635  60.8893394  19.2122154
  47.0418549  56.1093521  80.6967163  47.9344444  55.8245964  80.8927536
  46.5339432  55.2987480  80.6623993  18.4964733  55.7664337  65.1584167
  18.0455894  56.1073761  64.3859558  19.4078083  55.6716652  64.8814392
   6.5954471   2.5918813  61.5050850   5.6861186   2.5832062  61.8038788
   6.5828824   3.1324790  60.7152557  64.9166183   2.5397611   2.2511172
  65.8067245   2.7358716   1.9587339  65.0336227   2.0750048   3.0796964
  73.5637054  54.5196533  30.1347294  73.4467468  55.0919151  30.8930626
  74.4373627  54.7324333  29.8065872  49.4416351  18.4374199  64.2667160
  49.1462860  18.3713055  63.3586197  49.0524445  19.2513599  64.5865021
   7.4094186  69.7126541   3.4015133   8.2602177  69.7305145   2.9632740
   6.9528079  70.4857254   3.0697031  57.0692329  66.8576202  59.1744385
  56.6239090  67.1965790  58.3978920  56.7651443  67.4177933  59.8885651
   7.1294694  44.6582184  65.5856934   7.4875817  45.0989723  64.8151550
   7.8916998  44.4841156  66.1378937  60.0857811  45.1306839  73.0292435
  59.8990822  44.1981468  73.1376572  59.2849312  45.4927826  72.6500854
  20.1374264  10.6122198  84.3488617  19.4332504  10.0428276  84.0387573
  20.8653889  10.0170469  84.5279465  60.1292572  33.6657028  49.7577133
  60.5118179  34.2469978  50.4149628  59.7787323  32.9316139  50.2621727
  50.2890282  17.0975456   0.8843312  49.5195694  17.6661816   0.8556860
  49.9713211  16.2842159   1.2764871  40.2382317  40.5415611  20.0487957
  40.0455551  39.6918983  20.4452553  40.5497055  40.3301086  19.1687355
  76.9794235  32.1444244   3.3874674  76.4341812  32.4172935   2.6495733
  76.4132233  31.5716248   3.9047184  60.8126526   6.6216822  82.9314346
  59.9511223   6.8218818  82.5654907  61.4283752   7.0782194  82.3581238
  27.1900616  56.1334419  43.3904343  26.4319839  56.4178276  42.8798676
  27.9391251  56.2934189  42.8163757  39.0348282  26.4804955   2.0605185
  39.9230156  26.7424831   1.8182096  38.6373444  26.1928139   1.2386432
  74.0345535  60.7398033  79.5410004  73.3864899  60.1289101  79.8917847
  73.5877991  61.1705742  78.8122482  61.3266220   1.5740558  54.4300156
  61.8760605   2.0870960  53.8374443  60.5896072   1.2912297  53.8886719
  21.8700943  50.2125931  87.0992508  22.6873035  50.4721832  86.6737900
  21.1911106  50.6967201  86.6293259  69.8208160  58.3143425   3.5678213
  69.0114365  58.8173218   3.4775367  69.6565552  57.7265854   4.3052449
  15.7861376  66.3463593  47.7846756  16.5121536  66.9695511  47.7571182
  15.6321583  66.1991196  48.7178650  61.4426956  15.6375837  32.9534225
  61.0686150  16.2182064  32.2907219  61.7493019  16.2268715  33.6426010
  33.6329422  47.8163528  14.0677834  33.4940643  47.9574203  13.1312771
  34.4540672  48.2695541  14.2590876  83.4788437   5.0290070  87.7066727
  82.9620514   4.2353687  87.8455811  83.0635071   5.4573269  86.9581604
  75.9458771  57.5195236   5.7953043  76.1549454  58.4534149   5.8146186
  76.6933899  57.0979233   6.2192249   6.1316090  18.8395100  77.2160568
   6.2921472  18.5564919  78.1162567   6.9970632  18.8398094  76.8071289
  77.4875031  24.2648239  77.4035110  76.8542862  24.9812832  77.4477158
  77.1817169  23.7192764  76.6788712  85.5943069  12.2829275  77.9593277
  85.7840652  13.0572891  77.4296188  86.4400177  12.0353012  78.3330841
  54.3872223  67.4783401  49.5751457  53.6991844  66.8157349  49.5136147
  55.1402550  67.0831985  49.1357880  37.6577721  29.4113369  66.8453522
  37.2448807  28.6770782  67.2998962  38.3815041  29.0158424  66.3595276
  77.8217239  58.6557961   8.0610237  78.3563995  58.7104263   8.8530922
  77.7344284  57.7171097   7.8952522  59.0688667  21.3362331  85.8655930
  58.3680000  20.6877384  85.9324722  59.0058517  21.8414612  86.6761475
  61.5690002  47.8113365  67.8484955  61.6622124  46.9252129  68.1982498
  61.5808945  48.3762665  68.6211243   0.1460405  22.5765343  78.9240036
  -0.7306772  22.9514980  78.8403397   0.7239528  23.2275333  78.5259476
   0.6448933  71.6495972  48.3076553   0.4490300  70.7152557  48.3774109
  -0.1472196  72.0845795  48.6232262  64.1673889  69.2837219  44.6292648
  64.3038712  68.3882294  44.9386253  64.4181137  69.8342209  45.3710976
   9.8282776  63.2710266  20.0583210   9.7037716  64.2009964  19.8688793
   9.1152058  62.8341599  19.5925884  50.5860023   7.5326357  73.3445206
  50.0351257   7.2767844  74.0843277  50.2697029   8.4023066  73.0998688
  48.8134613  28.3895855  60.2417984  49.1509628  28.4147186  61.1371727
  48.5974541  27.4690228  60.0930099  20.0058594  24.3009872  77.1000290
  19.5042381  25.0953865  76.9168930  19.8831940  24.1510315  78.0374222
  54.1175957  24.1727123  25.1224861  53.6150818  23.3582764  25.1427307
  54.2774773  24.3324394  24.1923485   0.3939484  33.7253151  64.6205444
   1.2342066  34.1794319  64.5574646  -0.2188827  34.2887840  64.1481323
  59.5809631   4.1281395  73.3735886  59.1314049   3.3575594  73.7204819
  59.2556458   4.8547139  73.9050827   9.7615089  36.0566750  81.2142181
   9.8027134  36.9890938  81.0017853  10.1732082  35.6223946  80.4671326
  58.1056709  70.2504959   0.6803702  57.8725624  70.8948364   0.0119989
  57.3605385  70.2483597   1.2812064  82.6947708  37.2090797  43.8958702
  83.4965363  37.3771210  43.4007225  82.7068634  37.8585701  44.5988922
  50.9838600  54.6627159  63.6012535  50.5408096  55.4922600  63.4229431
  51.4368515  54.8068657  64.4320679  27.7442265  38.6090889  47.8894882
  28.6348934  38.3967705  47.6104507  27.8426208  38.9180145  48.7901077
  48.8505440  33.9804382  41.7641487  48.3340378  34.7003098  41.4018822
  49.6312332  34.4025536  42.1227226   5.0513234   2.0994031   5.3781929
   4.4017563   2.5365202   5.9288497   5.3906498   2.7925289   4.8119187
  61.9811478  25.5204582  21.8668041  62.6059761  26.1256027  21.4672756
  61.6545830  25.9868183  22.6362820   7.3880181  29.2381783   6.4518857
   7.6577678  28.4888554   6.9829063   6.8683605  28.8559246   5.7447295
   3.5033774   8.1967649  88.5641785   3.8773046   9.0770226  88.5247269
   2.7922487   8.2096910  87.9235840  10.5719576  65.3608704  14.4566479
  10.0085154  65.6292191  15.1824274  10.1374922  64.5918198  14.0878210
  16.5318203  34.1850586  66.0318451  17.0492477  33.7048569  65.3853836
  15.6809130  33.7466660  66.0310593   5.4489775  43.5836029  55.7431908
   5.1089382  42.9082260  55.1562729   6.2380204  43.1963692  56.1222610
  64.1607742  24.7975636  16.6827259  63.6056862  24.6914997  15.9101629
  64.0682526  23.9725647  17.1592216   0.5869503  54.0244484  55.5848503
  -0.2934154  53.6632919  55.6885490   0.4455372  54.9019241  55.2295074
   9.4611168  45.1522865  50.9182091   9.2709627  44.4740105  50.2701225
   9.1024752  44.8089104  51.7365608  19.5318356  58.8041420  62.6970711
  19.1127434  59.2426376  61.9565887  18.8688793  58.8135300  63.3874588
  64.3058548  54.4908485  43.5089455  63.4938698  54.8115463  43.9014587
  64.9695358  54.6293526  44.1846504  81.2911758   1.7607267  33.3091316
  81.0316544   2.6785309  33.3898582  82.2254333   1.7932036  33.1033897
  32.4695930   9.5327320  11.4020882  32.7855492   9.6443529  12.2987165
  33.1715088   9.0566931  10.9583139  43.4004898  19.6318798  87.5446167
  43.1313972  18.8753586  87.0235596  43.6808167  20.2801743  86.8985748
  70.5793915  32.8138847  27.6233673  69.9733505  33.3113403  27.0742893
  71.0254364  32.2247925  27.0148849  74.0910416  12.5289135  74.0977249
  73.7756271  11.9965801  73.3674088  73.3058701  12.7219467  74.6100464
  73.6194687  45.9915428  14.4297180  73.5186462  45.4486542  13.6478376
  73.7072525  45.3641205  15.1472597  22.7917461  62.8660316  80.8074417
  22.6728020  62.0821571  80.2711411  21.9611092  63.3357811  80.7325516
  21.5242558  27.3931179  68.5194855  21.3571968  27.8501568  67.6951981
  20.9129810  26.6565495  68.5130997   7.8183231   1.2672943  88.2869339
   8.6052980   1.1023519  88.8062515   7.3547277   1.9540845  88.7661285
  69.3463593  67.0168686  46.6219559  68.7413559  67.3903198  47.2628479
  70.0396423  66.6204834  47.1496658  62.8182564   1.7781614  56.6399155
  62.2248230   1.7482076  55.8894653  63.6165123   1.3494810  56.3312836
  76.8541489  49.0478706  47.1755409  77.1340485  48.1915741  46.8520508
  75.9165878  48.9470253  47.3399696  53.7222519  30.7702866  66.7669525
  52.9557800  30.4497242  66.2915649  54.4584274  30.2932243  66.3839493
  24.6556702  45.6306114  46.6659355  24.2285767  46.1010284  45.9500237
  25.0881329  44.8897171  46.2413445   0.6704556  71.5042343   8.0416117
   0.0512146  71.0722046   8.6299372   1.2393461  72.0098953   8.6220388
   0.8499072  63.7392082   1.2716680   1.1031091  63.9058838   0.3637363
   1.0402510  64.5589600   1.7277471  86.0247574  64.1758118  59.0273285
  86.8245697  63.6628151  58.9117126  86.2618103  65.0572586  58.7390823
  80.7195129  68.5194168  15.9394531  80.8955383  67.6834564  16.3712158
  80.0282593  68.3217316  15.3075304  33.5984764  62.5122681  68.1245041
  33.7059975  62.2006493  69.0231476  33.6517639  63.4654846  68.1935577
  59.7585411  53.8848915  38.3315392  59.2468452  53.8538895  39.1398964
  59.9842110  52.9714355  38.1557426  44.8560448   4.3830948   3.1596234
  44.8095970   4.0939226   4.0709157  44.2578621   5.1289821   3.1142423
   4.5808811  29.8988934  65.4059372   5.2735248  29.5917015  65.9908371
   3.8964889  30.2199955  65.9930801  42.5492744  61.4523010  42.7916527
  43.0501709  61.2211952  42.0093956  41.6611786  61.1471252  42.6062202
  47.4751511   7.9598818   9.0959692  46.5691071   8.1075726   8.8248549
  47.8853531   8.8229771   9.0409012  25.0922699  11.1527014  16.0954571
  25.6766548  10.4491911  16.3779449  24.3444557  11.0962448  16.6902828
   7.2046399  54.6529655  40.1981926   7.6203365  54.8915863  41.0267372
   6.6870294  55.4220123  39.9596977  81.3846283   6.2561154  48.2641602
  82.2624969   6.4565187  48.5888405  80.8870697   6.0222211  49.0477142
  29.8022594  48.2818222  33.8491135  28.8699512  48.0870934  33.7536278
  29.8654118  48.7480621  34.6826973  52.5654907  61.8926620  78.8588333
  52.5930824  62.2729416  77.9808502  52.4540405  62.6436806  79.4417419
  76.7486420  63.3605309  76.7833405  77.0605545  63.2421913  77.6805191
  77.5412979  63.5318527  76.2748260   2.2063632  47.8636093  49.9805984
   1.7408139  47.1257935  49.5867462   1.9675043  48.6148758  49.4376640
  39.1379089  65.6953735  27.8188515  38.5232773  65.2399826  28.3942413
  38.5953636  66.0271606  27.1034546  28.5938816  22.3515034  80.9007187
  29.4875736  22.1974392  81.2070007  28.0386581  21.9640350  81.5773468
  57.0975647  17.4541245  49.4261627  57.3692131  17.9501247  48.6538773
  56.5653801  18.0691872  49.9308510  14.7679319  52.0614700  37.3704300
  15.6019764  52.1387024  36.9071426  14.9166555  51.3726196  38.0181923
  78.4918137  60.4603844  63.1146049  77.5769501  60.1804199  63.0851212
  78.7011948  60.6903992  62.2093544  27.6769352  30.3963070  54.5277824
  27.0244656  30.8018036  53.9567451  27.9930592  31.1134624  55.0773163
   6.8606229   0.1226728  85.9947128   7.7271156   0.1544761  85.5892410
   7.0041714   0.4271633  86.8907700  77.8240356  32.5741806  45.7886925
  77.4150620  32.4007072  44.9408226  78.5171967  31.9178181  45.8590355
  84.4553452  40.7604866  51.5989761  85.0448380  41.1867790  52.2210693
  84.9148254  39.9607239  51.3430786  69.3436661   8.6162949  50.9916306
  69.3032227   7.6652946  50.8906631  68.5609970   8.8370457  51.4965363
  80.6682053  13.0149937  11.1148844  81.4808655  12.5096254  11.1353378
  80.9286652  13.8740292  10.7825432  59.9018402  24.5255260  20.0482025
  60.0857162  24.6407738  20.9804783  60.5805054  23.9235268  19.7428493
  62.5337257  30.3221855  80.4005585  62.7938614  29.5797462  80.9458542
  62.5431595  31.0715981  80.9959793  47.7699852  27.8909588  39.8768654
  47.5111465  27.0360508  39.5328217  47.5078888  28.5119801  39.1972542
  73.1593323  55.7869987  74.3394928  73.8983765  55.2095528  74.5308075
  72.3966141  55.2086487  74.3418732  54.6825638  28.8234291  22.0896282
  54.0436363  28.1211586  22.2113628  55.2954178  28.4796429  21.4396667
  53.9125404  68.6398087  76.7680588  54.5382462  69.3429108  76.9423141
  53.5585556  68.8433151  75.9023209  60.1340942  26.5261211  84.1353149
  60.8278313  26.8104343  84.7304001  60.4091568  25.6565151  83.8448639
  44.5712242  19.6532135  74.3141937  44.8881340  20.4157581  73.8301163
  45.0263748  19.6972237  75.1551056  72.2318573  46.1440582  43.9947128
  72.6795654  46.5489159  44.7375984  71.5343628  45.6218834  44.3910294
  82.9304657  17.1051235  59.3033867  83.3513031  17.2138290  58.4505577
  81.9928665  17.1419601  59.1142387  10.5447226  42.9267654  48.5162201
  11.4058056  42.8077202  48.9169617  10.1304770  42.0660973  48.5785561
  58.7858467  26.2463131   8.6449432  59.5463524  25.7108536   8.8710995
  58.1359863  26.0345116   9.3150558  38.6022453  61.3388596  57.9555435
  38.2833900  61.3566246  57.0531883  38.9081459  60.4409752  58.0838432
  28.8403740  59.1576042  19.5293694  29.6720161  59.4844360  19.8725681
  29.0902710  58.4805717  18.9005527  78.6917648  48.0485878  78.9898148
  79.1872177  48.2197914  79.7907257  78.5855408  47.0974579  78.9725952
  74.6060333  67.5043106  79.7077866  73.8332825  67.4961472  80.2726059
  75.3322220  67.7046967  80.2983170  11.6586895  49.5717545  86.6287231
  11.9114895  50.1947174  87.3100815  12.3997860  48.9689522  86.5684280
  46.3997116  18.4005375  64.2145462  46.7620850  17.6990681  63.6733856
  46.5530510  18.1123886  65.1143723  11.9538069  49.3183479  78.6653595
  11.8261395  48.7261276  77.9242706  12.8136768  49.0835304  79.0142365
  79.5087433  33.1762390  50.5691643  80.4583054  33.1093597  50.6696548
  79.3815231  33.4204407  49.6524239   3.5115566   6.3344488  66.1974487
   4.3987288   6.6602030  66.0456543   3.5580032   5.9013481  67.0497971
  53.6538277   6.3526673  46.4384422  53.9475517   6.8705430  47.1879501
  53.2898941   5.5563846  46.8253784  83.2503510  63.3521194  52.4959259
  82.3564377  63.1084480  52.2555542  83.1558762  63.8224754  53.3242188
  73.6715088  53.5939407  71.8163834  74.1791611  52.8243370  71.5590286
  74.0634232  54.3150635  71.3238220   0.9651144  16.1385193  69.4552917
   1.1813737  15.2763538  69.1001434   1.6512585  16.3109474  70.1000519
  38.4803505  70.9013290  36.2419281  38.7942467  70.4940414  35.4345779
  38.7783051  70.3151016  36.9374771  27.3316650  65.7266541  86.1859589
  27.5833111  65.0642242  86.8294525  26.8908863  66.4038315  86.6991577
  36.1026993  44.8176079  66.6380157  36.8869362  45.0172501  67.1492386
  35.3766747  44.9767036  67.2411804  65.3163834  50.9091873  62.1907120
  64.8859711  50.1876945  61.7319946  64.9555511  50.8788567  63.0767746
  64.1453934   7.3034639  36.0628738  64.3250732   7.8156977  35.2744789
  63.2372780   7.0183835  35.9614830  64.3280106  39.2206078  25.3100262
  63.8694649  39.5796776  24.5503998  64.2402267  38.2720451  25.2164459
  43.7354279  43.2847786  68.8255234  43.5284119  44.0419617  69.3732910
  44.6841736  43.3277855  68.7060928  74.5841980  64.1595993  29.2435055
  75.1116409  64.7063065  28.6611404  74.0834885  64.7833710  29.7692680
  75.6619186  38.5300713  86.3188629  74.7980270  38.2659416  86.6353378
  75.5771637  39.4676285  86.1455688  74.8338242   5.2776184  58.2427330
  75.5644073   5.2448888  58.8603172  74.0706100   5.4769721  58.7849388
  84.0780945  56.1747246  12.5749941  84.9188843  56.2138481  12.1191664
  83.8957596  57.0820312  12.8194942   0.7577363   1.7366319  15.0281563
   1.1808612   1.8900319  15.8729429   0.0726847   2.4033425  14.9788275
  19.5334663   7.6922641  63.8599930  20.3197212   7.5107951  64.3748779
  19.2649117   8.5692348  64.1339111  58.0236435  11.0335350  75.1345291
  57.1679344  11.1531811  75.5464478  58.5259056  10.5230322  75.7696304
  49.5959549  31.1135960  75.3883591  48.7135620  31.4530067  75.2386322
  49.4762001  30.1686726  75.4832916  78.2752686  40.8772583  87.1932297
  78.9397583  41.1935997  86.5811691  78.7037506  40.1619453  87.6632919
  85.9951553   1.6260478  23.8449745  86.6821213   1.7000299  23.1825275
  86.0373306   2.4519293  24.3270245  61.9502182  71.5391312  88.2412186
  61.5064850  71.2202377  89.0271225  61.8254890  70.8427048  87.5964966
  76.1692429  29.2189674  75.9018707  76.8955841  29.8115978  75.7083588
  75.4906464  29.4576225  75.2703857  50.6877060   4.2718477  41.2177773
  50.0557175   3.6967251  41.6491165  50.2920418   4.4684153  40.3686333
  45.3080673  11.8701839  80.3398285  45.6224709  12.5890417  79.7915344
  46.0940399  11.3636742  80.5445862  73.8604279   4.9158430  46.3253822
  73.0018234   5.3346920  46.3852615  74.4291382   5.4558334  46.8742142
  45.6896744  56.5188446  46.0922813  45.4317703  56.9825058  45.2955780
  46.5824242  56.8178177  46.2650375  33.5038948  58.7642174   2.9335864
  33.6468658  58.0815582   2.2780190  34.1147766  59.4603043   2.6916726
  42.5416489  24.2234211  61.2267952  42.6313820  23.2722378  61.1682167
  41.9853477  24.3647900  61.9928093  15.6407900  26.5296078  60.7685509
  14.9893532  26.1090832  60.2072830  16.4819870  26.2936497  60.3774681
  67.2545929  54.5700264  75.7137680  67.5468292  54.1104851  74.9265900
  66.5156479  55.1026878  75.4197235  55.4861145  24.0232124  75.2010956
  55.5402489  23.7875671  74.2749405  54.6285782  23.7022991  75.4801636
  53.7075691   1.3975166  57.8427505  53.0983467   2.1354296  57.8665009
  53.8955917   1.2124451  58.7628746   7.2409930   4.8698583  86.9971313
   6.8745842   5.2144794  86.1827545   6.4897146   4.7968121  87.5857544
  11.4493275  68.9526520  58.3548737  11.0473557  68.9836655  57.4867210
  12.1598682  68.3172913  58.2672653  39.6249886  36.2412262  70.1463242
  39.4977226  37.1607513  70.3797913  39.2851028  36.1713600  69.2542343
  73.3148422  15.7126875  38.6286278  72.9461899  15.4080486  39.4577980
  74.2610092  15.7147541  38.7735596  80.5044479  57.4129677   5.6380873
  81.3680267  57.0234146   5.7748661  80.6875381  58.3143806   5.3732071
   4.7757249  51.6651115  84.9111710   4.6307006  52.5980759  84.7537613
   5.1941285  51.3492889  84.1102829  42.0265312  63.8112144  75.8912430
  42.3568382  63.2396278  75.1981201  41.0879707  63.8813934  75.7168655
  52.4325600  56.8075485  70.9375839  52.4868011  57.6276436  71.4282303
  51.5350609  56.7860184  70.6055222  49.2683678  15.2086859   8.2687407
  49.9665451  15.2394085   7.6146460  49.6392632  15.6452045   9.0356312
  48.5513344  18.8788128  68.1769943  47.9520912  19.3144779  68.7830811
  48.7179298  19.5299149  67.4954224   0.8734451  66.6565704  41.8483467
   0.8794014  67.3143082  42.5437469   0.0674750  66.8296661  41.3618469
  52.3023453  13.5214443  68.5645218  52.5287743  12.6750822  68.1789932
  51.4967461  13.7805634  68.1171951  86.0498734  34.8450699  15.8884926
  86.8471222  34.3153419  15.8858004  85.7992477  34.8959770  16.8108959
  74.1352005  68.2084122  11.9763708  74.4530258  67.6305466  12.6701212
  73.8391953  68.9941330  12.4359922  60.7738342  39.1970291   2.5893095
  61.2120247  39.3661270   3.4233527  60.6305809  40.0656700   2.2135825
  50.9674454   6.7706399   6.0738745  51.3433189   6.3192048   6.8296232
  51.0626869   7.7007918   6.2787619   6.6413279  51.5728760  54.4749947
   5.6943808  51.4596138  54.5568199   6.8451567  51.2569618  53.5947189
  72.0595856  51.2807541  24.5484943  71.8124084  52.0615196  24.0529766
  71.5767593  51.3565941  25.3715115  49.4300270  66.2969894  68.5919647
  48.9191589  65.5984573  69.0009918  48.7948532  66.7803574  68.0636215
  40.4390335  58.1094513  15.4651871  39.7704315  58.1871529  16.1457462
  41.2183228  58.5125351  15.8478928  54.7651863  41.0408974  21.4061794
  54.9241562  41.2249756  20.4803963  54.1393509  41.7115288  21.6797009
  70.4219360  39.1727066  76.5180435  71.3039093  39.0106354  76.8528366
  70.5085068  39.0955925  75.5678864  73.4824905   7.1508694  22.7098141
  73.0559311   7.7634273  23.3090248  73.3021927   7.5034876  21.8383884
  74.9462967  36.6015091  69.1602631  75.1726837  36.5310364  70.0876312
  75.7270432  36.2948494  68.6991501   9.0792017  42.0001411  63.6625404
   8.6278172  42.2891121  62.8694611   8.5726013  42.3822556  64.3791809
  81.9024506  57.9089203  59.5160789  82.2420883  57.0415955  59.2955704
  82.1709290  58.0474625  60.4243507  26.9938068  53.2907448  35.0940208
  27.7714443  53.0771103  34.5783958  26.3913479  53.6882858  34.4653435
   0.8421367  59.3764153  14.8513193   0.3208782  60.1789780  14.8308334
   0.9589626  59.1904144  15.7829771  71.2955246  64.9637451  68.6897049
  70.8686295  64.8189468  69.5341110  70.5729523  65.0566483  68.0688248
  48.0532646  57.5645027  78.5684204  47.7764244  57.0341187  79.3155975
  48.8991547  57.1961060  78.3134918  45.3415527  62.8958168  14.8570795
  45.2337761  62.5129585  13.9864273  44.5226402  62.6948929  15.3101215
  76.8647079  14.4197206  28.1730785  77.4877777  13.8349895  27.7416840
  76.2386703  13.8323298  28.5964966  62.4054718  61.0671349  51.4762573
  61.6961861  60.5752487  51.0625114  62.3976784  60.7771759  52.3884506
  68.3098373  25.7154160  85.0287781  68.0034943  24.8363323  85.2514954
  67.5354767  26.2700539  85.1235123  63.7237320  45.3915634  79.1193771
  64.2530746  45.4514503  79.9146423  64.0429840  46.1035652  78.5649719
  64.8016357   2.1962626   9.2681665  65.1712189   3.0581181   9.4601135
  64.0765305   2.3745763   8.6692848  52.7306557  37.8083572  13.5353889
  53.4415741  38.1949501  14.0466375  52.2172012  38.5579224  13.2341413
  55.7486191  42.6915398  49.0671844  56.0058746  42.3103828  48.2276764
  54.8742332  43.0480766  48.9104576  19.6694756   9.1544285  71.9401398
  18.7470188   9.4079218  71.9077835  20.0096588   9.5878620  72.7228622
   3.3558600  58.7439537  59.5432472   3.6400845  59.2692719  60.2912369
   2.6464183  58.2013092  59.8874283  69.2620010  49.5107460  11.1555586
  68.9020309  49.0171852  11.8924770  69.3808212  50.3973198  11.4962883
  70.6441269  62.1721916  20.6377525  70.0207825  62.8774452  20.8117790
  71.2885513  62.2429199  21.3419914  56.3302155  53.4299660   9.0874844
  56.5830574  53.7706184   8.2294283  56.7093811  54.0484505   9.7119379
   2.4268470  25.0257530  16.3598728   3.0071599  24.8204670  17.0928974
   2.7203467  24.4502182  15.6535788  19.5549870  60.6935616  73.0297241
  19.3446083  60.6886024  73.9635010  20.4597607  60.3841438  72.9864044
  19.8867455  37.3663330   5.1585712  19.1202412  37.5281639   5.7085848
  19.5384922  36.9164734   4.3887792  73.8280716  34.2606049   3.3447428
  72.9573364  33.8649025   3.3831825  74.3008194  33.7368698   2.6978741
  53.5684280  28.8495121  77.6263199  54.4015121  28.5919762  78.0211334
  53.3898201  29.7173233  77.9885864  77.8489532  39.2659950  26.7726841
  77.4921112  40.1529846  26.7264309  77.1115341  38.6990738  26.5467701
  25.3913593  24.3162193  84.5977554  24.5230255  24.4454937  84.2162933
  25.4147377  24.9112358  85.3471832  34.9700775   6.7581353  62.5516739
  34.4507027   7.0339060  63.3069420  34.9778595   5.8023162  62.6024704
  40.9519119  13.7714109  12.6910419  40.9235229  14.0942411  13.5917120
  41.8845978  13.6646156  12.5041752  55.6588516  27.1696453  55.1459579
  55.2649422  26.7046471  54.4078217  54.9356842  27.6651611  55.5303154
  12.8439951  51.7026863  82.7369995  12.2982187  52.2538872  83.2978363
  12.2192240  51.1914597  82.2226715  64.9485779  50.0554390  14.4353676
  65.1940613  49.6766396  15.2794523  64.5437927  50.8938484  14.6577368
  55.8837624   4.2969174  53.3558731  55.2525673   5.0044751  53.2247734
  55.4235115   3.5088356  53.0672073  70.4534302  53.4795685  66.9295731
  70.4929504  54.2743568  67.4615326  70.7134018  53.7645264  66.0535355
  41.3561516  59.3463974  79.1185150  41.6372643  59.0141220  79.9710464
  41.8021355  58.7854881  78.4839249  51.6209106  64.3344040  11.1605616
  52.0524940  64.4366302  10.3123188  50.9102058  63.7150612  10.9945917
  58.9296227  58.7280350  59.2411194  59.4595680  59.5249100  59.2216454
  58.0450058  59.0335388  59.4420013  66.8589706  65.0126724  27.0534039
  67.0804520  64.1817093  27.4737453  66.7574615  64.7930374  26.1272888
  38.4407082  65.6173248  41.6165543  37.5757370  65.3510361  41.3048706
  38.7772179  64.8477859  42.0756912  57.9053726  35.9838219  14.3547277
  57.2928276  35.9982643  15.0901289  58.6756020  36.4530754  14.6753149
  18.7904243  62.6658630  16.1565723  19.5153122  63.1847076  16.5052376
  18.3559971  63.2491417  15.5342484  44.9260063  25.3866272  20.7145576
  44.9789429  25.0783710  21.6192150  44.8525505  24.5873203  20.1930752
  22.4367828  31.6209431  68.2354507  22.8170071  32.4175072  68.6057816
  21.5245152  31.8507137  68.0587921  58.7872810  49.6888885  35.3461723
  58.4424477  48.8017769  35.2444038  58.0289726  50.2574539  35.2122612
  47.1570091   5.4891825  59.5499344  47.6168213   4.6537690  59.6329193
  46.6878090   5.5876570  60.3784180  34.4892311   7.6516457  70.8921738
  35.0477867   8.4271622  70.8390732  35.0089264   7.0153480  71.3833694
   3.1728711  18.6508904  66.4129410   2.7508242  17.7927494  66.3716583
   4.0606894  18.4666500  66.7196426  54.7899895  60.8831329  71.3592834
  54.3192787  61.6404686  71.7072830  54.2232590  60.5472717  70.6648407
  37.0506973  26.5783501  64.0680161  37.7978897  26.0118885  64.2605209
  36.2982559  26.1160564  64.4372787  26.1230736  49.7404022  66.7655487
  25.7919064  49.8546562  67.6563416  25.3409290  49.7647057  66.2142868
   3.3728764  23.0839653  35.8403893   3.3696606  22.5920372  35.0192757
   3.7427206  22.4771729  36.4816780  16.7279053  69.4862061  87.5835724
  16.0305672  70.1156387  87.3998184  17.5360928  69.9912567  87.4941940
  68.1557846   0.5966915  52.7292366  69.1025620   0.7256045  52.6724854
  68.0158920  -0.2948321  52.4100990  33.7414818  40.2192955  18.2673016
  33.8266449  39.3528824  17.8694267  34.6086311  40.4032936  18.6284523
  66.9124451  30.7251701  40.2495613  67.4545441  30.5558186  41.0200653
  67.4499817  31.2944736  39.6989441  74.7272263  11.4461517  18.4572296
  74.7896194  10.5704584  18.8386765  75.0685120  12.0280685  19.1362972
  73.5211563  35.7471008  18.7923489  72.8123703  35.5405540  18.1830940
  74.3212204  35.5595932  18.3014545  17.1654472  64.2707062  23.0248680
  17.7874374  63.9666290  22.3638859  17.6153164  64.9933701  23.4625969
  33.0855675  -0.0259332  21.9853268  33.1518784   0.7724040  22.5092468
  32.2272034  -0.3870910  22.2067013  41.7565384  41.5055199  71.4163437
  41.0874748  42.1899261  71.4295425  42.5610924  41.9618111  71.1699219
  23.4354897  60.2951164  57.0688782  24.0865231  60.1315994  57.7512627
  23.7009773  59.7291603  56.3440018  62.0857201  69.9741516  65.0051498
  62.7207642  69.3181992  65.2926941  62.2943611  70.1212463  64.0826187
  19.2074566  46.7224312  66.2853241  19.1584377  45.8114967  66.5751953
  18.5850220  47.1859131  66.8456726  39.3397865  29.3504925  75.5619431
  40.1561203  29.6892166  75.1943893  38.8267326  29.0827808  74.7994919
  77.0150986  65.0828476   0.2430380  77.2289810  65.7204590  -0.4380937
  76.1265640  65.3122025   0.5153157  64.9078445   3.5646348  27.4083691
  64.8796921   3.0764291  26.5855122  64.0293961   3.4660096  27.7755566
  74.1522675  49.7890968  59.0753021  74.3021317  49.5029945  58.1742363
  73.3957748  49.2795601  59.3656960  17.6785240  50.8832474  18.6374645
  17.4733467  51.7248650  18.2302589  18.4917049  51.0411491  19.1170883
  28.7801743  42.1972656  81.6788254  29.0046711  42.1221390  82.6062851
  29.5526752  41.8698120  81.2181244  24.3749332   7.1063447  12.8971062
  24.7977028   7.9593191  12.9967690  24.0085087   7.1224871  12.0129652
  75.8487854  41.2163200  51.4116783  75.0475159  41.2535477  50.8893623
  75.7136688  41.8633461  52.1040115  21.4630966  53.6208076  38.2524261
  21.1766167  53.4690056  37.3518028  21.6322460  52.7454224  38.6007271
  59.3763199  39.1880074  44.2047653  59.4707222  38.2783356  43.9222527
  58.6349144  39.5202751  43.6986542   6.0728188  47.1623497  79.1948395
   5.1325817  47.3031540  79.3060150   6.2998786  47.6670189  78.4138184
  19.3204288   5.6073022  87.7392578  18.7106018   5.6209512  87.0015869
  20.0218468   6.2053671  87.4812546  80.8960571  34.5734177  14.2801609
  81.7869568  34.8874931  14.4347172  80.7977524  33.8297348  14.8747253
  56.1228104   9.8312035  58.1312294  55.8855515  10.1862316  58.9879074
  55.4720955   9.1488867  57.9661674  42.6319160  50.3485680  35.9735374
  41.8775749  50.6951485  35.4970016  42.4282379  49.4223480  36.1034164
  72.0187073  29.5910091  38.4549294  72.3542023  30.1599655  39.1477242
  72.7987137  29.1747036  38.0881691  40.5239677  58.5120964  54.5634346
  39.5725365  58.4826241  54.6641617  40.6927261  59.3463631  54.1255417
  66.0630722  25.0108929  51.9628868  65.7500305  24.1219349  52.1301994
  65.5212097  25.3232231  51.2382736  48.8390160  37.5795708  71.8081894
  48.0569878  37.2978706  71.3335190  49.5633163  37.1508942  71.3522720
  82.7955933  39.1649361  31.3573685  82.9411011  39.5929298  30.5136375
  82.3766861  38.3334694  31.1350746  77.9489365   1.5228559   5.2117410
  77.2588882   0.8801272   5.3759284  78.4850845   1.5064563   6.0045300
   2.3343334  32.3154869  41.4996147   2.8937461  32.4581757  40.7361183
   1.5282378  32.7906990  41.2980804  43.9034691  18.0265369  82.4918594
  44.6419868  18.2128658  83.0716095  44.1974297  17.2873230  81.9595261
  13.4717607  53.6301117  12.9101067  13.3584299  54.5779037  12.8388271
  13.5296936  53.3270073  12.0040150  84.4472656   4.1495333  46.8947525
  85.0900803   3.9466019  46.2151680  83.6782608   3.6302667  46.6597633
  59.7377739  43.5604782  56.4240456  59.6912842  43.0745506  57.2474174
  59.0843163  43.1433983  55.8625603   3.1691549   7.5801172  23.0114079
   3.9557111   8.1000967  23.1762810   2.6064596   7.7509065  23.7666817
  55.5492096   9.3871927  81.3311310  55.7430687   8.4942789  81.6163635
  55.6393280   9.9166193  82.1234818  32.7695885  55.6257210  26.6678810
  32.4991722  54.7452278  26.9283352  33.0267982  55.5356789  25.7502937
  63.4543915  23.8588161  25.6270351  63.3629684  24.7479687  25.9694996
  64.1597290  23.4733181  26.1467686  48.9593544  47.3295517  74.0879517
  48.3230057  47.3466148  74.8027954  49.5977440  48.0041695  74.3194275
  43.4949875  36.0233269  36.0823555  44.1538887  35.4968491  36.5350189
  43.1520691  36.6095581  36.7568703   3.0484977  61.9268646  50.4191589
   3.8097744  62.4510994  50.6678925   2.3115177  62.3513832  50.8583336
  40.9546432  56.9377213  60.5455399  40.2831841  57.6003609  60.7076759
  40.5263634  56.2965393  59.9783554  35.5978699  23.0646019  10.5851774
  35.5579605  24.0078754  10.7428980  34.6970024  22.8185654  10.3750944
  52.1018028  55.7029152  76.6660385  52.4797668  55.8019257  75.7922134
  52.6652832  56.2306442  77.2319260  65.5869675  15.9766712   6.9291048
  65.3538361  16.2342587   7.8210297  66.5392380  16.0673828   6.8947730
  42.9034805   6.4562855  77.9364319  42.5442924   7.1468964  78.4934540
  43.7098618   6.1883106  78.3770752  19.2761459  33.3261337  10.8635244
  18.4540386  33.4803734  11.3289070  19.0084763  32.9726868  10.0151958
  62.9205208  68.9320679  33.5279808  62.0806732  69.3705750  33.6643715
  63.5289497  69.3955154  34.1035271  78.6990356  40.3545647  36.0454063
  77.9135056  40.0447502  36.4961624  78.6003571  40.0382233  35.1473961
  38.8017921  39.6755638  24.3628254  39.3687515  39.1423225  23.8056545
  39.2183914  39.6484375  25.2241840  59.2573433  19.6715374  21.2501183
  59.0655289  19.1794930  20.4517879  60.2076874  19.6102905  21.3467064
  22.2242107  56.3772659  58.9937630  21.8534946  56.6870804  59.8200874
  23.1660500  56.3280373  59.1573143  34.9985695  62.9545479  64.3154144
  35.4973412  62.1787949  64.0591660  34.9716988  63.4938774  63.5250778
  69.9854126  48.6874695  69.1304016  70.4749756  49.5066986  69.0567169
  69.8764877  48.5574455  70.0724487  75.7563858  14.7773142  73.5653305
  75.4879990  13.8729334  73.4031754  74.9883347  15.1874409  73.9629898
  74.6669769  44.6652222  42.6879463  74.5887909  45.3657455  42.0403442
  73.7930756  44.2766266  42.7271080  13.2937250  61.5110512  11.1945648
  13.3051434  61.7944527  12.1087780  14.0998411  61.0055161  11.0904360
  13.7287540  48.0461998  75.0131836  14.3484888  47.4990387  75.4956512
  13.0071526  47.4561005  74.7956772  21.9294491  39.1635933  56.4814682
  21.4832687  38.3770370  56.7952881  22.8520947  38.9130478  56.4347496
  29.0132294  46.8139534  76.6083603  28.1313896  47.0315857  76.9104004
  29.2197914  45.9886627  77.0470581   6.1699033  67.9424133  47.9902077
   5.8884172  67.5143738  47.1816406   6.9285517  68.4660797  47.7324219
   4.9715509  38.9008789  60.7177849   4.2395945  39.5149879  60.7755852
   5.4159722  39.1339798  59.9026871   3.2656479   9.6293230  66.6271362
   2.7755344   9.3446121  65.8558044   3.9426434   8.9621868  66.7404404
  54.5503387  60.9674759  46.5000801  55.4496880  60.6448822  46.5578194
  54.5386124  61.7452888  47.0578461  50.3961334  11.9900398  52.1217766
  49.4867210  11.7280493  52.2651787  50.8924255  11.1735287  52.1786461
  68.9474411   0.9344760  37.5299873  68.7209930   0.9523708  36.6001320
  68.1727753   1.2820991  37.9718895  51.2472153  24.3545971   1.3983152
  50.5638580  23.6892052   1.3176450  51.1873627  24.8589783   0.5869893
  27.5148392  60.0153313  68.6070557  27.4464455  59.7100296  69.5116806
  28.0205154  60.8259544  68.6654358  86.5792542  54.0807076  46.8734016
  86.2478714  53.2563438  47.2295456  86.9619217  53.8404312  46.0295677
  10.3394833  58.4099045  79.1147461   9.4100914  58.4828568  79.3318634
  10.5137949  59.1640282  78.5515900  75.5621567  35.6358528  71.7875061
  76.0015106  34.8087730  71.9853439  75.9324188  36.2592163  72.4124527
  38.8835182  49.3953247  35.7419701  38.8763733  49.7152519  36.6440926
  38.2817726  49.9765930  35.2769279  56.9167061  20.9661999   0.5951545
  56.5857315  20.1037197   0.3445276  56.2994728  21.2763271   1.2577823
  73.8202515  48.8077049  56.4769707  74.4707336  48.8515778  55.7761269
  73.8177414  47.8885727  56.7442169  71.5605774  28.4170456  15.8698368
  70.7739563  28.6442966  16.3656292  71.9483337  29.2603931  15.6360712
   6.8122725  65.1254883  58.0170708   7.6703563  65.2941666  57.6278725
   6.5121589  64.3202515  57.5954628  70.5980911  44.4458275  28.6625919
  70.3951492  45.3783264  28.5884819  70.3727417  44.2227020  29.5657330
  13.8224220  50.3193207  63.8717461  14.6893616  50.5062637  64.2318802
  13.2812700  51.0561752  64.1553421  80.2651596  41.1206551  29.3733788
  80.8838196  41.7994881  29.1037922  79.8088913  41.4975319  30.1257153
  53.9140282  60.8620529  55.1800613  53.8699265  59.9197464  55.0177307
  54.7602730  60.9920082  55.6080894   2.2551017  50.1235657  13.3168259
   1.9266665  49.8824577  14.1829834   3.1050234  50.5294800  13.4874096
  27.3790894  60.0388222  65.8055115  26.7045059  60.7083893  65.6921463
  27.4662399  59.9448318  66.7540894  27.1080990  45.0450783  75.3359756
  27.7150307  45.5594444  74.8037186  27.6657658  44.6056442  75.9779510
   9.2049599  36.5914154  20.1900997   8.9861965  36.1776428  21.0250645
  10.0621462  36.9908752  20.3380642  56.6866837  58.9334030  31.6561832
  56.1886520  59.6747055  31.3116932  57.1731682  58.6005135  30.9020309
   3.2203014  51.5458183  18.6295319   2.8509986  52.4279251  18.5879116
   4.1170230  51.6758957  18.9380798  62.7685394  34.7251472  38.4390411
  62.4958839  34.7002335  37.5218353  62.8788033  33.8056717  38.6811943
  63.6118011   8.4503698  47.4611855  64.4938812   8.7518644  47.6785927
  63.6194954   7.5164013  47.6706505  59.2577515  49.1088867  66.5663147
  59.2913857  48.9635429  65.6208115  59.9582520  48.5595703  66.9181442
  57.9143906  31.1097565   9.1037550  58.1505928  31.3422546   8.2057648
  58.4542847  31.6818180   9.6491823  37.3655205   4.1630764  18.4770279
  36.5641670   3.6898096  18.7008171  38.0531845   3.4979706  18.5084343
  71.8856659  63.5442734  11.7566061  72.2282867  63.4879341  12.6486092
  71.7222977  64.4776764  11.6212921  19.0465317  68.3511505  53.3559303
  18.3111038  68.8553391  53.7040253  19.6520329  68.2708206  54.0929146
  43.0159798  38.3531647  42.3714600  42.3217239  37.7048340  42.2535172
  42.5661964  39.1264839  42.7119102  41.2340240  14.7628212   2.1346297
  40.4941902  15.1533318   2.5997958  41.4756126  15.4158430   1.4777976
  47.5597420  51.2704620  27.7058983  47.3751259  51.2407646  26.7671413
  46.7634239  51.6316833  28.0952930  24.6806602   4.0065999  83.8445663
  24.9541702   3.4844394  83.0903931  23.8226719   4.3521132  83.5981750
  36.0006332  29.0986156  75.4651947  36.1463127  28.3414249  76.0323563
  36.5181847  28.9139137  74.6814499  41.0366096  25.0097847  56.2258072
  41.7707863  24.4009590  56.3067284  41.3999023  25.8581848  56.4797096
  77.9046173   5.2134881  25.1374168  78.2134705   4.3240719  25.3099823
  78.6999054   5.7461224  25.1307106  76.2640686  29.5572586  81.9307022
  76.1157150  29.9379330  81.0650787  75.5608521  28.9161415  82.0341263
  76.7162399  60.2426949  18.3340225  75.9658356  60.1999474  18.9267292
  77.4793167  60.1911774  18.9096012   3.7490401  49.3807831  58.8575249
   4.6843085  49.1793289  58.8271675   3.4374115  49.2058563  57.9695358
  48.2201614  20.1701126  86.4476700  48.5403404  19.7030563  87.2194061
  48.9945717  20.2802258  85.8959503  29.9628544  24.7870255  61.4418869
  30.2526169  24.4524174  60.5931778  30.5923634  24.4293003  62.0679741
  66.2886429  28.1143303  85.4352875  65.8667145  27.2815361  85.6466370
  65.5956116  28.7666454  85.5373993  83.5135727   2.9460452  40.6469688
  83.1784897   2.5251060  39.8552818  83.9398117   2.2393632  41.1318932
  50.6663818  67.8654480  11.9688768  50.3626938  68.2560959  12.7882681
  50.0669098  68.2056656  11.3047066  56.4693146  35.6295547  25.6545086
  55.5889816  35.2852440  25.8051777  56.9053841  34.9534912  25.1358433
  61.9189911  53.2553902  34.8015900  61.9710388  52.4923248  34.2260399
  61.1265945  53.7133102  34.5211525  55.1834145  28.5407028   6.5687089
  54.2454109  28.4347610   6.7273211  55.5750694  28.5446606   7.4421062
  83.4832306  57.2181435  78.3370590  83.5186234  58.0675278  77.8971405
  83.0082550  57.3892174  79.1502991  79.5710449  47.1651688  86.4188919
  78.7888412  47.4658623  85.9563141  79.3123322  47.1471939  87.3402939
  67.8352737  55.9395905  51.5118065  68.1923141  56.0203018  52.3962517
  66.9245453  55.6764145  51.6442566   6.1219168   1.2508382  46.8442764
   6.1556091   0.5162269  47.4570084   6.9128270   1.1564345  46.3134460
   2.1889126  33.0563126   0.5189922   1.8400316  33.1529579  -0.3671080
   2.5280521  33.9240036   0.7388314  25.8969078  27.2529984  74.7424164
  25.8109894  27.7232971  73.9131622  25.2574387  26.5432549  74.6826172
  23.7819748  38.4203072  71.0117264  23.1628380  37.9211464  71.5443954
  24.0174351  39.1703300  71.5578537  72.8883438   3.0996337  52.1331787
  73.0380859   2.9949570  53.0727844  73.3098679   3.9307597  51.9146004
  81.6470642  31.8360157  78.2806015  82.3589478  32.1664658  78.8285599
  81.0302505  31.4449787  78.8993683   3.6824794  66.3269119  49.1541023
   4.3061066  65.6049271  49.0763283   2.8828201  65.9180756  49.4851990
  83.0299911  33.3404236  11.0196295  83.4039001  32.9118805  10.2497110
  82.2212143  33.7414665  10.7013960  65.8667374  68.2762451  55.2852821
  66.6862411  67.7864609  55.3542099  66.1110382  69.0914307  54.8470802
  47.1304779  44.1613770  26.6674118  46.4796600  44.3072243  25.9808292
  47.5333481  43.3230286  26.4413548  64.3473892  10.3528728  76.0677414
  63.7222633   9.8754463  76.6131897  65.1942291  10.2053661  76.4888535
   4.6006589  30.3956070  75.3332901   4.1035047  30.9601898  74.7414169
   5.5022044  30.7093945  75.2626877  60.0666542  44.1616058  64.0952759
  60.9434891  44.5386276  64.0228424  60.1865158  43.2348938  63.8877525
  48.1776047  25.5535698  68.4881439  49.0391655  25.3335686  68.1338196
  47.6333046  24.7931633  68.2838211  74.9416122  15.1880722  54.5066872
  75.3499451  16.0528717  54.5469513  74.3038254  15.2571926  53.7962837
   7.0554771  43.5433693  51.7433739   7.2050114  42.9584465  51.0005836
   6.5126472  44.2473297  51.3884010  58.2760201  41.6508904  55.2492409
  57.7391281  40.8766708  55.4182434  59.1059151  41.3007927  54.9252968
  73.9289093  47.7142220  68.9913940  74.1993713  48.2243385  68.2279358
  74.7349701  47.3014565  69.3014374  82.2729340  29.5389919  45.8531532
  82.9191055  30.2440510  45.8930321  82.3897552  29.0603485  46.6738129
   7.7703214  34.1177025  42.5337791   8.6384516  33.7161751  42.5706482
   7.5615816  34.3210907  43.4455299   0.3555240  51.8264160  12.3656416
   0.6686776  51.9459686  11.4690514   0.9069187  51.1293297  12.7209797
  84.1186066   0.1963221  24.9105396  84.2614441  -0.7480475  24.8473206
  84.8672867   0.5827359  24.4562302  68.7635880  54.7379494  69.2517395
  68.2687531  53.9966736  68.9026260  69.4760208  54.3371124  69.7497253
  69.3811417   2.2580383  61.0774651  69.2571640   1.3561077  61.3730698
  69.0146332   2.2728357  60.1933365  34.0435753  33.1280327   0.1624341
  34.3607178  32.6086731  -0.5764281  33.2506676  32.6756744   0.4503559
  67.7020721  58.1492615  26.2360115  68.4743118  57.5856323  26.2829323
  67.5993805  58.4893150  27.1248589  46.7569046  65.4970856  33.0104408
  46.4392357  65.3336105  32.1224136  47.3502998  66.2425842  32.9190979
   9.6290569  28.8896141  79.1260834   9.2539692  28.0483036  78.8658142
   9.9204149  29.2862072  78.3050766  42.2654114  70.4761200  73.1320419
  42.9568214  71.0922318  73.3741074  41.4962845  71.0259247  72.9824142
  59.2611847  71.4099808  17.8025684  60.0172119  71.1087341  17.2986755
  58.5162849  71.2851715  17.2145386  68.6135712  39.9929504  52.2312126
  68.8237381  39.1595535  51.8098946  68.5255661  39.7765656  53.1594734
  77.5605850  32.8981705  14.2498016  78.2667618  32.9092903  13.6037188
  77.3148804  33.8176460  14.3519220  29.2649651  49.9691544  58.4593506
  29.0314426  49.0665894  58.6763191  29.8445263  50.2440071  59.1698418
  43.4342117  68.4540710  71.4038162  43.7383118  69.0188904  70.6933670
  43.1453209  69.0609512  72.0853424  57.5329552  17.2278805  34.4562454
  57.6991920  17.9671783  35.0410881  57.6399307  17.5896473  33.5765228
  39.7694740  63.1523247  59.5953751  39.0690498  63.6614265  60.0033646
  39.3155556  62.5490952  59.0069008  61.4624672  71.0721817  10.0824041
  61.6442947  70.4835663   9.3498030  62.1683769  70.9031219  10.7063780
   3.1226001  55.9433594  17.4206257   3.3056846  56.8555222  17.6457386
   3.7757030  55.4407692  17.9075432  26.8134651  53.5830116  42.8903198
  26.9937820  54.4798279  43.1721649  27.2816410  53.4941330  42.0601730
  27.6388588  62.2544899  51.6327972  28.4882870  62.6450119  51.4273796
  27.0264912  62.6859512  51.0369110  70.4292679  11.9485035  46.0580902
  69.6070709  11.6021223  45.7113228  71.1030426  11.5884399  45.4813652
  17.0035667  70.1271286  74.8692627  17.4182510  69.5127182  75.4748840
  16.0892429  69.8463287  74.8319016  53.0949974  11.4714966   6.9566493
  53.7174034  11.2912302   7.6611695  52.6277618  12.2556973   7.2446661
   7.6693053  40.3594589  78.5348740   7.1573710  39.5769730  78.7395020
   7.9879503  40.6659966  79.3838272  52.0326538  13.9979382  23.0405960
  52.5776024  14.4316444  23.6972256  51.1343956  14.1798277  23.3167877
   8.1501284  54.4981232  17.8984566   8.0738125  55.0024376  18.7084408
   9.0349607  54.1340179  17.9254818   3.5088117  22.7743149  78.9554138
   3.6045468  22.2011986  79.7160721   3.8775244  22.2717648  78.2289658
  19.8934669  66.9326019  74.3251266  19.9274368  67.7815704  73.8843002
  19.5033283  66.3430710  73.6797791   9.3178711  47.5854683  40.8574944
   8.8333616  46.7700653  40.7286377  10.0018244  47.3605499  41.4882469
  11.9729776  18.0613651  79.9510574  11.6857605  18.2777920  79.0639877
  11.7757092  18.8447495  80.4645081  12.3305864   2.6952300   9.6265774
  11.5379152   2.6659770  10.1623468  12.6612740   3.5867305   9.7365961
  62.4277496  29.1298103  16.0956535  62.7331200  28.3846722  15.5782080
  61.4730453  29.0779057  16.0500450  33.2978783  43.9890366  21.5355740
  33.5028114  44.7460136  20.9867439  33.9279480  43.3205490  21.2665577
   9.3334732  66.9748154  16.6920757   9.5969019  67.7636566  17.1659641
   9.3748283  66.2773361  17.3463287   3.1172323  64.8909912  38.3482285
   2.9511647  65.8291473  38.4404678   4.0613647  64.8279419  38.2037621
  32.5179939  49.5819855  61.4941673  32.7042885  50.0093994  62.3301353
  31.9962463  50.2214241  61.0092621  48.9829521   8.9807663  42.0095787
  48.8448448   9.7389250  41.4418182  49.8927994   8.7274837  41.8538399
  76.9047394  39.4130135  63.2127647  76.2513580  38.7189140  63.1259117
  76.4699173  40.0873184  63.7347527  29.5219707  59.5460091  41.3408241
  29.5708294  59.0070724  42.1303749  28.6000309  59.7955971  41.2778740
  78.0607605  22.7019100   5.4674397  78.4710846  22.7730598   6.3292999
  78.0705795  21.7644806   5.2741475  65.8691788  32.3581924   8.0766649
  65.3955460  33.1899719   8.0698290  66.6132278  32.5110283   8.6591272
  62.8559189   5.7472034  30.2232380  62.8456726   4.9538851  29.6877251
  62.1748123   5.6017447  30.8798714  25.6022644  48.1919975   2.7446353
  25.2246456  47.3124428   2.7398982  25.5625954  48.4746056   1.8309665
  66.7457657  23.1524429  48.4117393  66.2590103  23.9761600  48.3836746
  66.5609970  22.7362480  47.5697899  63.2590714   3.0060647  68.1080017
  62.5583076   2.4112086  67.8409653  63.5189934   3.4481030  67.2997513
  72.9448318  31.4017715  34.7085609  73.0884247  31.7921333  33.8464508
  72.4036407  30.6314373  34.5355453   5.6542177  58.7841110  41.5592308
   6.2279682  59.3147011  41.0064964   5.2208657  59.4170647  42.1317749
  41.1413956  33.8233528  84.2269058  40.5111618  34.4957161  84.4856796
  40.6596909  33.2661247  83.6156006  28.7779980  31.5884228  15.6082973
  28.6432495  31.4559116  16.5466557  28.4243603  30.7974224  15.2014923
  71.6980438  69.7359619  83.6888580  71.5051956  68.8362122  83.9524536
  71.0481644  70.2654419  84.1509628  39.9936981  63.7918205   6.8268423
  39.6477127  63.1632309   6.1932807  39.5502014  63.5742798   7.6467304
  17.5706463  48.3063889  17.3380318  17.7603912  47.5449257  17.8861275
  17.3987103  49.0127869  17.9606609  84.4698029  32.3853531  24.0793247
  83.8783112  31.6486359  23.9256687  84.5425644  32.4393845  25.0322247
  43.8808327  54.6407890  48.5703735  44.7989655  54.3805466  48.4959259
  43.6197319  54.8566856  47.6751404  21.8305264  39.6372948   8.3202715
  21.0356464  39.4376373   8.8147774  22.4389591  38.9353790   8.5512676
  31.2408733   9.7445221  15.3407192  31.5129051  10.3040047  16.0681877
  30.6903133  10.3085909  14.7976351  24.3093548  53.7211342  45.7377357
  24.5602722  53.8782120  46.6480103  23.3525085  53.7002602  45.7532349
  12.6751490   9.1230831   9.6935883  13.4444427   8.8470469  10.1918077
  12.3558216   9.8980436  10.1558628  65.7005615   6.7922964  20.6822319
  65.3335114   5.9239135  20.5166454  65.2142029   7.3733931  20.0974102
  83.6859207  46.4383087  40.6269722  84.1097794  46.4818077  39.7698364
  84.3358078  46.7927589  41.2338028  76.8530045  13.6363373  37.2872658
  76.4227295  13.0262547  36.6881905  76.3089142  13.6226587  38.0746727
  37.2548752  52.4763832  24.4839725  37.3953476  52.4741440  23.5371380
  36.3832893  52.8559113  24.5958996  78.9053497  10.5521107  37.1924057
  79.3941879  11.3161402  37.4982262  78.2569656  10.9096966  36.5858040
  51.9905281  68.3208847  22.0597820  51.8866882  67.5578690  21.4912243
  52.1271172  67.9523926  22.9325886   1.0774789   1.2050506  30.7582188
   0.8319963   0.3890352  31.1942120   0.3212728   1.4222015  30.2130318
  15.3747931  67.1216507  75.4554291  14.6049995  67.2159576  76.0164566
  16.0376091  66.7275162  76.0224915  43.5928230  34.4782410  54.7545738
  43.3290062  33.8299522  55.4075356  43.9641838  33.9609528  54.0399170
  81.1780167  31.1307125   8.0570726  80.4649811  30.4992886   7.9616113
  81.8203430  30.6849556   8.6092911  47.9569817   3.1644220  13.3406048
  47.5754547   2.2969286  13.2059832  47.8334999   3.3381979  14.2737637
  40.7873154  36.5790520  19.3286781  40.2212486  37.0949478  19.9028320
  40.2947197  35.7744865  19.1666412  26.9678631  29.2214108  56.8135567
  27.4031696  29.4521465  55.9928856  26.0794621  29.5647526  56.7182159
  40.9022064  17.9699917  62.6348152  39.9473953  17.9821510  62.7012672
  41.1867332  17.4295521  63.3718376  73.2090225  16.1266212  48.4603615
  72.8604584  15.7526932  47.6510963  74.1170654  16.3456936  48.2513275
  77.4416122  70.3568420  23.4635372  77.1318283  69.9236298  22.6681805
  78.3848190  70.4531631  23.3319492  39.7256927  41.8632431  75.4896393
  39.5648842  42.2065697  76.3685608  40.5255432  42.3040237  75.2029648
  64.6625977  53.9982758  23.8256245  64.0568848  54.7246513  23.6782341
  64.1688004  53.3802299  24.3645267  47.1706772  56.1508904  21.9408092
  46.8410950  55.5011101  21.3200111  47.5055771  55.6338806  22.6734581
  19.3780689  44.7257156  39.7569160  18.6119061  45.2939224  39.6771164
  19.0257149  43.8901749  40.0634232  50.3529053  44.5610199  33.4872131
  51.1528816  44.3159103  33.0222435  50.6145134  44.6055527  34.4068947
  44.7195511  43.2126503  31.2472496  44.0208778  43.8554459  31.1251793
  45.5274353  43.7221603  31.1843700  74.0528717  34.1054688  54.2217445
  74.8701935  34.6011925  54.1720467  74.3304825  33.1915359  54.2841301
  28.2416153  22.1736298  65.2732544  28.8364315  21.9412899  64.5601959
  28.4695797  21.5711346  65.9812546  53.0731125  21.5777569  25.2657242
  52.6683769  20.7322197  25.4593449  53.9255295  21.3551674  24.8914623
  17.0995216  29.8410816  18.0275269  16.7275906  28.9764061  17.8536415
  18.0420780  29.7248478  17.9079056   4.6854563  62.9529800  22.7607841
   5.6411576  62.9621544  22.8135376   4.4082646  63.6871109  23.3089142
  42.7454262  26.9374466  14.0425663  43.3968201  27.4071198  14.5634546
  41.9264793  27.0498714  14.5251865  46.3506355  48.3581810  84.9260101
  45.9437714  47.8986168  84.1915131  46.7790718  49.1154556  84.5270004
  38.6522408   0.8538409  38.8091888  38.8395233  -0.0792712  38.7069206
  38.6847115   1.2036403  37.9187851  82.5586014  10.6927872   0.7684785
  82.0045013  11.2527990   0.2248008  81.9574585  10.0441656   1.1347332
  74.9344711   6.1941690  43.9475136  75.7125473   6.6707253  44.2368736
  74.5973587   5.7808790  44.7423592  69.8593292  26.6556206  63.9840698
  70.1940079  27.5521336  63.9619637  70.5521774  26.1517773  64.4110794
  64.5469131  51.1652718  22.5948658  64.8801727  51.7832642  21.9442863
  64.7581406  50.3031693  22.2365456  74.3249893  16.6109924  79.8255997
  74.8954163  16.3782558  80.5581818  74.9258423  16.8001556  79.1048889
  79.9267349  28.3843975  54.8581467  80.7144470  28.8898640  55.0587769
  80.2432632  27.4912071  54.7230301  81.3400574  23.2103958  80.2329025
  80.8948669  22.5573120  80.7728271  80.7946243  23.2859631  79.4499435
  40.5963402  51.3921776  39.0573311  40.2266464  52.0240250  39.6740379
  40.3903008  50.5380592  39.4371529  56.6006050   9.1095943   4.8109312
  56.4580498  10.0349274   4.6117630  56.0051498   8.9265203   5.5376692
  71.8909073  42.3325386  63.6181564  72.8316956  42.2711754  63.7836151
  71.8183670  42.9123802  62.8600311  43.6353340  36.1326828  16.8497677
  42.8689117  35.5652657  16.9326229  44.1925545  35.8921623  17.5899620
  82.6586838  35.5105247  21.8540134  83.5592728  35.1909332  21.7988911
  82.6560974  36.3110962  21.3293152  61.9009361  67.6994629  77.7297058
  61.4002075  68.0894852  77.0131989  61.2428093  67.4754868  78.3876877
   4.5596476   1.3423061  64.9106445   3.9033275   1.9776818  64.6246796
   4.3425660   0.5420270  64.4324570  51.7389488  42.9533081  13.9991179
  52.2207756  43.3869820  14.7033901  51.2615166  43.6602402  13.5649109
  19.1491585  60.9521484  22.7546253  18.5428505  60.5945168  22.1059952
  19.7413578  61.5079613  22.2480640  35.6754417  29.8638725  80.5758820
  35.5730438  29.8499107  79.6242752  35.8846245  28.9589977  80.8075714
  43.6294212  55.9606018  14.9543848  43.8792229  55.7332764  15.8500156
  43.1875458  55.1787453  14.6232033   9.6724529  54.3973007  22.5057468
   9.3519440  54.9813576  21.8184433  10.5266905  54.7562065  22.7459488
  12.5441494  53.1762199  36.2506218  12.7148352  53.5019951  35.3668976
  13.3919640  52.8517265  36.5541763  37.9438705  61.5816345  61.6838913
  37.4000359  60.8458328  61.4026947  37.5505180  62.3453102  61.2616272
  24.6634083   0.4538713  18.3193588  24.3660507  -0.0679228  17.5740128
  24.5663242  -0.1280960  19.0730972  59.2712364  62.0700569  54.0515556
  58.3472824  62.2792625  54.1885796  59.2851028  61.1221619  53.9191399
  24.4543095  42.5774269  56.7648315  24.3692303  42.1115074  55.9330215
  24.3474064  41.8988838  57.4314537  35.9039917  51.2952652  16.6877670
  35.0503731  51.4123383  16.2707996  35.8249931  51.7491989  17.5267754
  76.3524628  11.5676270  67.8869324  76.9838486  12.2775068  68.0037537
  75.5365982  12.0091496  67.6510086  39.8868523   9.7613621   6.7465653
  40.4771118   9.0815668   7.0716872  40.4686508  10.4411592   6.4065380
   8.7824831  29.6436729  87.8943710   8.9753323  30.5505333  88.1323700
   7.9134316  29.4795837  88.2605057   7.4251356  39.0099373  16.6053467
   6.5499415  39.1731720  16.9569435   7.6236625  38.1103096  16.8651314
  68.6115036  41.6525841  70.3136978  69.2010117  41.5341187  69.5689240
  68.5151062  40.7755013  70.6847305  78.1067734  36.2158661  28.5284061
  78.1347198  36.4191017  27.5934467  77.1912231  36.3473129  28.7748241
  63.4960670  45.8553047  58.2318649  64.4341507  46.0016708  58.1101685
  63.1057892  46.7258873  58.1543732  33.1643562  44.9424515  78.2951202
  33.9406662  44.4305153  78.5220490  33.0949593  45.5942535  78.9926682
   8.3374949  40.2727127  59.9470558   8.1450195  39.4350510  60.3683701
   8.1650419  40.1188354  59.0181770  75.3438644   2.4791827  42.1528053
  75.3354492   1.5645874  41.8705368  74.6293869   2.8873537  41.6637726
  78.1191330  28.1397800   9.2284794  77.1954041  28.3871918   9.2702532
  78.1101227  27.1828232   9.2088556  84.1204910  61.7758636  59.0174484
  84.6624069  62.5647125  59.0007782  83.9170914  61.6055298  58.0977478
  47.5334473  39.6794586  58.6339035  47.0716286  39.3025017  59.3828087
  46.8499336  40.1174278  58.1267281  54.1021652  17.3375130  30.8017616
  54.1352997  16.5212555  31.3006191  54.5581436  17.1373024  29.9843082
  21.3861790   1.9514364  18.0608673  21.7648849   2.5004580  17.3742905
  20.4801254   2.2511775  18.1347084  19.1389084  59.2049561  53.5933609
  19.6929111  59.1162605  54.3688927  19.4421844  58.5158386  53.0022850
  60.0342216  54.4003372  83.0564194  60.5059929  54.5762787  82.2423477
  60.5407181  53.7085838  83.4820557  27.8499908  63.9414749  88.2632370
  27.7150536  64.3806152  89.1029892  27.6867332  63.0165138  88.4477005
  26.8431797  41.4746094  26.5371876  26.5579185  42.1698914  27.1300068
  26.1861324  41.4687691  25.8411369  56.3001518  39.9594040  57.7494202
  56.0092697  40.8467140  57.9599037  56.4524536  39.5490265  58.6006699
  74.3636703   9.9740334  55.9664078  74.4383621  10.6946468  55.3408127
  74.0337830   9.2400656  55.4480438  19.1498203  62.6914825  59.2503700
  19.6973095  62.2681274  58.5891151  19.7700653  63.0133858  59.9045181
  18.8835506  26.5285988   9.2761259  18.4789429  27.3489037   9.5582991
  18.2151470  25.8632050   9.4395914  34.6713028  37.7452774  53.1713142
  33.7345810  37.6344719  53.3341217  35.0892067  37.4897919  53.9936981
  74.8936157   4.5255213  32.0470085  74.2486954   4.1574450  32.6510201
  74.4161758   5.2058964  31.5722771  19.8576202  58.5500412  67.6626282
  18.9724636  58.7152252  67.3379135  19.7281437  58.0395317  68.4619064
  22.0499573  49.8276291  68.7553101  22.8280525  50.3514938  68.5646210
  21.3580761  50.2252121  68.2266693  26.0786915  52.1692009  71.6593399
  25.3722496  52.7584610  71.9238129  26.8000183  52.7517014  71.4214020
  80.0403061  67.9139252  64.4322586  80.2718430  66.9920578  64.3191910
  79.1813126  67.8951187  64.8541641  82.0975800  66.5034180  13.0079079
  81.5846252  66.7360306  12.2339592  82.9959869  66.4286041  12.6861982
  76.8829880  70.5396194  15.9711504  77.5935211  70.0646057  16.4021149
  76.2100601  70.6280518  16.6461163  39.9633713  15.3698311  64.4621124
  39.1754761  15.8719273  64.6703110  40.1442108  14.8675470  65.2566223
  48.7087822  60.8036880  84.0234070  48.6360855  60.6332321  84.9624939
  47.8923416  60.4663277  83.6548386  15.7939930  19.4214935  65.3032532
  16.3109131  19.9479389  65.9130783  16.2253494  19.5423336  64.4573441
  68.0088196  15.4364491  87.4087677  67.2532578  15.1014490  87.8916092
  68.1282730  14.8155680  86.6901093   7.2307086  50.0586243  51.8415031
   8.0010099  50.3237648  51.3389435   6.5322709  49.9894028  51.1906395
  71.8718262  61.4231186  36.3577080  71.2359314  61.4276543  35.6422729
  71.8000793  62.2944336  36.7474442  69.0048676   4.8376470  29.7651196
  68.7012634   5.6592894  29.3791656  68.2682343   4.2359428  29.6576500
  82.0085831   5.0548201  73.0629654  82.8594131   4.6294012  72.9565201
  82.1379089   5.9385352  72.7186508  78.9292755  35.6584969  30.9722137
  78.6801605  35.5211563  30.0582619  79.6740341  36.2583160  30.9299240
  69.8998260  16.9594021  78.8374557  70.2607422  16.4799213  79.5831604
  70.6605759  17.3681278  78.4246216  65.5189590  27.6798553  41.5186157
  65.8559647  28.2309971  40.8122864  64.9980621  27.0116196  41.0732422
  76.0417252  20.5457859  63.7706070  75.9954910  21.4617634  64.0446091
  76.2070847  20.0618076  64.5797119  82.6609573  56.0278015  18.7502708
  83.3161697  55.7585678  19.3940411  83.1173553  55.9812546  17.9101715
  39.2735977  61.0148201  75.3222122  39.1901207  60.1171646  75.6438904
  38.4149780  61.2168579  74.9504852  43.3572083  48.0906258   0.5333167
  44.0020103  48.3713493  -0.1160335  43.5526543  47.1652069   0.6803836
  71.7802887  24.9534912  70.7767258  70.8686523  24.9622459  71.0683899
  71.9530869  25.8545189  70.5037384  48.1917191   4.2520752  88.0160904
  48.2583046   4.7112217  88.8533325  49.0694008   3.9013336  87.8648071
  78.4723282  46.6144371  19.6316166  78.0591965  45.8192749  19.2950497
  79.1305695  46.8391190  18.9739895  17.6991863   3.2293525  66.6953964
  17.7387524   3.2981601  67.6492996  18.5109711   3.6358337  66.3920670
  36.1477051  56.6014214  37.9380646  35.4119530  56.7646561  37.3479309
  36.3259430  57.4518661  38.3395691  76.0480499   5.0491734  76.1070251
  75.7804489   5.6935558  75.4517441  75.9497757   5.5034924  76.9437866
  14.2394934  59.0131912  39.8734665  13.8448963  58.2937698  39.3805580
  14.3932714  58.6499672  40.7456207  73.2641449  25.2412930  77.2454376
  72.4224167  25.6888962  77.3313293  73.9030914  25.9481583  77.1542511
  21.2744064  41.5862083  57.4444733  21.6779537  41.6075630  58.3121834
  21.5819874  40.7665825  57.0573807  18.9053078  47.6407661  44.6920128
  18.0026169  47.3714142  44.8618050  18.8401089  48.5690269  44.4677086
  47.2361832  39.6332817  45.2568779  46.6072121  38.9129295  45.2982674
  46.8264198  40.3381424  45.7583771  41.3235893  32.0113297  88.7637863
  41.6666603  31.2410088  89.2167053  41.0335274  31.6800518  87.9138794
  32.4770851   2.4478788  23.2462940  31.7908535   2.8933470  23.7431602
  32.2371445   2.5856652  22.3299561  83.2294769  22.3144875  23.6778069
  82.3663025  22.0300312  23.9782219  83.7851334  22.2550602  24.4549465
  57.4052734  69.4839935  46.3439674  57.9256554  70.1852875  45.9520264
  56.7910385  69.2282639  45.6558189  30.7685642  63.9812241  21.6227589
  30.3573647  64.5583649  20.9792862  30.0889111  63.8327866  22.2802296
  25.9683571  25.9569893  86.6539612  25.8134937  25.9335842  87.5982666
  26.9197693  25.8997917  86.5657959  27.7277241  45.4014816   5.8094263
  27.0475445  44.7286377   5.8388777  27.8889828  45.6193810   6.7274389
  82.5504608  19.7730484  27.3761387  81.6299210  19.8305321  27.6321468
  82.5701599  20.1022243  26.4775372  80.8728485   3.6776645  65.3770142
  81.7931519   3.6016824  65.6290054  80.3907166   3.5775998  66.1978455
  18.6103611  30.3732738  71.4809647  18.8780308  31.2922859  71.4798660
  19.3571739  29.9058456  71.1067810  15.8323460  25.0709972  78.6580200
  16.6046696  25.2862663  78.1351395  15.1365557  25.6184464  78.2941437
  42.0689659  63.7835312  61.0341034  42.5489273  63.8988609  60.2140007
  41.1930122  63.5094032  60.7624550  49.6753883  69.6084900  34.4853630
  49.5907478  69.9406662  33.5916481  49.4587479  70.3573837  35.0407524
   7.4246583  41.2727127  37.2944260   6.9953189  41.2171822  36.4407158
   8.3132362  41.5687256  37.0968399  63.9850235  62.0249138  83.0076828
  64.4962006  62.1918678  82.2158127  63.4713097  61.2441444  82.8009720
  19.7258682  40.5704536  78.2100525  20.5666065  40.2854652  77.8520432
  19.5390034  41.3927116  77.7570572  83.2220688  52.9499969  36.2473412
  82.3996277  52.4777756  36.3770943  83.1474152  53.3243103  35.3695335
  80.6731796  66.2616348  37.9515572  80.0960846  66.9197159  38.3390274
  80.4851227  66.3004761  37.0138168  44.3826294  63.0447998  12.2099857
  44.8795357  62.6949348  11.4704514  43.5874367  62.5126839  12.2374306
  52.8977203   8.6941128   1.1924936  53.5157013   7.9886098   1.3838017
  52.1123276   8.4659748   1.6898268  53.8376732  11.9113588  75.0545120
  54.5108681  11.6500692  75.6828156  54.1083145  12.7814922  74.7615051
  37.1787186  54.4826050  53.5861282  36.3336906  54.6286316  54.0113792
  36.9917793  53.8495636  52.8929138  57.2721634  32.4146538  20.4066334
  56.5247879  32.7031136  20.9305153  57.9464645  32.1977081  21.0504360
  28.4601917  54.4033890  24.7957134  28.7795506  55.2719994  24.5512638
  28.9016495  54.2098732  25.6226940  73.8952560  25.7454109  11.4017115
  73.7650146  26.6060829  11.7998457  73.1486206  25.2271442  11.7019920
  86.7807465  63.3856926  31.7646294  85.9342270  63.0159798  31.5137444
  86.5657196  64.2319031  32.1569595  52.2599640  40.2847061  88.9567642
  52.9471588  39.8350487  88.4650269  51.9877586  39.6518364  89.6212997
  35.6005821  29.3206043   1.1290140  36.0243454  28.5483208   1.5034927
  34.6753807  29.0819778   1.0716503  11.1322880  58.4322891  57.5656929
  12.0816193  58.4116592  57.4449577  10.9917059  59.0899811  58.2468033
  76.0419846  32.4800911  65.4696121  75.4995041  32.4117279  64.6839447
  76.8767014  32.8271103  65.1548767  36.9338303   7.5689769  81.6484909
  37.3770981   8.2272873  82.1836243  36.1620445   8.0193405  81.3053360
  69.0921707  39.4585800  14.9156075  68.2732162  39.8156281  14.5719862
  69.7476120  39.6847763  14.2557135  38.6089363  32.7019501  17.1503563
  38.5597153  31.8657894  17.6136551  39.3768349  32.6177559  16.5851383
  54.5363579  51.2472534  12.5911808  55.1443024  51.7296600  13.1514673
  54.2772598  51.8783569  11.9197550   8.7524691   6.0990648  10.6797266
   9.4194059   5.6000986  11.1513834   9.2501516   6.6774421  10.1017790
  79.4674988  35.9971542  40.2665176  79.0409012  35.9721985  39.4099960
  79.3482971  35.1153336  40.6192398  81.0507431  18.8735104  42.6932335
  81.2843399  19.4212856  43.4426346  80.1276855  19.0690670  42.5320930
  54.5514526   6.7595434  52.9680367  54.2767868   7.5320163  53.4620781
  55.5046272   6.8326459  52.9196091  52.1339340  24.3656979  12.2873344
  51.2722130  24.6673450  12.5748758  52.7351151  25.0557461  12.5677748
  79.0758820  67.3256760  28.6888390  78.2541962  66.8359070  28.7233849
  79.7528305  66.6529007  28.6156864   7.6083903  38.4700775  24.3609066
   6.9092464  39.0375633  24.6855469   7.9669719  38.0581512  25.1470165
  49.6965103  23.7474232  10.4940329  50.5379753  23.7636986  10.9499989
  49.1178627  24.2795849  11.0401096  16.5334396  30.4650249  58.3199768
  15.8348351  29.8865242  58.0141678  16.9159927  30.8228588  57.5188293
  51.3710213  53.7237930  86.2060852  51.8125610  53.6996193  85.3571472
  50.7464523  52.9992371  86.1719284  63.6298866   6.7928405  86.2342377
  63.8130798   5.8878694  86.4866257  64.1807022   6.9434285  85.4660187
  45.9582901   3.3255157  56.3750305  46.5969925   3.9998443  56.1435814
  46.2148933   3.0438743  57.2531319  82.0422516  71.1312027   2.9623578
  81.7930222  71.9123917   3.4561701  82.9739914  71.0167389   3.1494296
  50.3590088  59.8285789  71.4287643  50.1981049  59.0461273  70.9013977
  51.2957001  59.9974365  71.3271561   5.5303679  40.5328331  85.1028671
   4.9141946  40.2461510  85.7769470   6.3239603  40.0251465  85.2722626
  18.4307709  16.6038132  74.9055328  19.2992382  16.6495056  75.3054123
  17.8497314  17.0118752  75.5474854   6.1952615   1.0619010  79.5591125
   5.8570752   1.9393238  79.7379684   6.8456860   1.1919844  78.8689957
  10.9729795  13.4188585  21.8471298  11.0225039  14.3297949  21.5573444
  10.1174822  13.3484325  22.2706833  31.6753540  51.3044968  18.3048573
  32.0871658  52.1469269  18.1126175  31.4174767  51.3682671  19.2244568
   5.4336162  65.9493942  45.7100677   4.7630444  65.8736801  45.0312195
   6.0037308  65.1935654  45.5689163  49.3242836  29.5946960  23.1766472
  49.2177124  29.0510559  23.9572411  49.4445610  30.4812870  23.5168285
  12.6645670  68.7430496  50.0896873  13.5115519  68.8537979  50.5216370
  12.1706152  68.1686478  50.6747513  82.2979431   8.8665648  21.3757877
  83.1089783   9.1164598  21.8185139  82.4187164   7.9422259  21.1584339
  26.0592690  14.3036947   3.8494756  26.5638371  14.6862297   3.1316237
  26.5259571  13.4967365   4.0668545  47.9278030  10.9825191  81.3739777
  48.5073624  11.4634752  80.7832031  48.4999886  10.3499975  81.8084335
  27.1291256   0.9973880  78.9053268  27.0286617   1.0216680  77.9537277
  27.3279114   1.9016356  79.1483383   6.4486742  48.9374428  68.8303452
   7.3013701  48.5144310  68.7293320   6.2191248  48.7973404  69.7489853
  55.1926765  38.1738930  17.7955589  55.0496712  37.4547882  18.4109192
  55.8137817  38.7502403  18.2408504  22.0068417  58.1422462  65.5108032
  21.4808311  58.1040077  66.3096008  22.3135948  57.2446098  65.3828201
  12.3712873  68.4969254  29.2497444  11.6997938  67.9817352  28.8026314
  13.1956873  68.0705109  29.0157204  85.1880417  45.5294952  52.1058807
  85.4709702  45.1285057  51.2840576  84.2477646  45.3549156  52.1463242
  66.6037598  58.4876938  79.8099289  66.9810104  57.9516754  80.5074921
  67.3521957  58.7360153  79.2673264  51.2679214   1.8346602  47.8612518
  50.5423775   1.8997447  48.4822006  51.6474533   2.7132215  47.8434181
  50.4681931  56.3525848  20.9649696  50.2088394  57.2645721  21.0963001
  50.0547981  56.1026344  20.1386147  61.0405884  62.8678017  56.1111641
  61.1198196  62.0256271  56.5591583  60.4438400  62.6963539  55.3826523
  25.6646862  48.1366386   8.1603069  26.0309563  49.0200958   8.2000875
  25.4276581  48.0168114   7.2406917  79.1084366  14.8564959  60.2593155
  79.1580276  14.6572008  61.1942215  79.7410278  15.5633583  60.1312218
  35.9445686  17.8024864  64.3389587  35.4540482  18.1990242  63.6189728
  35.7525864  18.3582497  65.0942764  58.4873466  63.0390892  49.7737503
  57.9644547  62.8831940  50.5602036  58.1527710  62.4095764  49.1350021
  36.8251648  50.7121506  75.5242081  37.3776627  50.0811653  75.0628662
  35.9315224  50.4721336  75.2792053  79.8789902  47.5871201  72.8332825
  80.2251053  48.2159882  72.2000656  79.6635361  48.1151848  73.6020126
  66.8257523  38.9813728   6.5908389  66.5209656  39.5221481   7.3194647
  66.4039230  39.3593521   5.8192034  64.5012436   3.8703315  33.0600739
  64.8716354   4.3156776  33.8221169  64.9805222   4.2322836  32.3147430
  14.9859858   2.7773442  16.7010002  14.7512264   3.5283623  16.1559391
  15.4690008   3.1561193  17.4354782  22.7471714   0.7727045  68.1320877
  22.8441124   1.1245641  69.0169830  22.1362724   0.0423740  68.2303314
  86.7905197   9.8667545   4.9494038  87.1294327   9.4701500   4.1468582
  85.8860626  10.0985680   4.7385688  37.7030754  36.1524849  31.2669163
  36.7731361  36.0661850  31.0571613  38.0390587  35.2566261  31.2389107
  32.1439056  53.8594742  71.4387283  32.4095879  54.6225815  71.9518585
  31.4744396  54.1935692  70.8417130   4.8344517  12.7260723  76.8402481
   5.5625553  12.4757595  77.4089661   4.4050078  13.4452639  77.3034744
  23.1731701  38.9918785  80.2644577  23.9830189  38.6499023  79.8857346
  22.4823761  38.6640778  79.6886215  83.2481995   4.7469854  26.4540844
  84.0639191   4.9529634  26.9106026  83.4078598   3.8932147  26.0518208
  75.0889740  16.4461956  66.4654083  75.0749512  16.4223003  67.4222107
  75.6864700  15.7408609  66.2169418  76.9425964   9.7304955  39.1665154
  76.2238617   9.3463459  38.6644402  77.2534714  10.4550524  38.6237373
  58.5902481   8.4110289  30.1477413  59.4864883   8.0844641  30.0680733
  58.6497879   9.1203461  30.7877083  39.3749237   4.4832520  25.2718124
  38.4232063   4.4561267  25.3704700  39.6410828   5.2780466  25.7340813
  50.1478157  25.3653030  22.5799103  50.4057007  25.5691986  23.4788837
  50.4624825  26.1089802  22.0659447  70.7161484  23.3851032  68.5333633
  71.5100479  23.8289547  68.8316116  70.9950867  22.8850822  67.7662888
  64.2185059  50.6655235  43.8157501  64.5299606  49.7803726  43.6267128
  64.9096603  51.0530319  44.3527641  50.0816612  38.7462425  73.9153519
  49.6747932  38.1986275  73.2439270  50.9796028  38.8732567  73.6090851
  45.3556862  28.4071503  61.9399834  45.7484703  27.7351131  61.3829193
  45.3038864  29.1819458  61.3803024   3.9154098  58.3381042  71.8732529
   3.3921573  57.7476234  71.3312454   3.7748652  58.0293274  72.7683105
  20.0268688  29.9545441  33.7720222  19.7830734  29.1744404  34.2702522
  19.2414532  30.5015469  33.7840195  29.9183693  40.5501099  44.7391891
  30.8280792  40.7050056  44.4848900  29.9121246  39.6525345  45.0716743
   8.8300018  46.5935135  16.9807968   8.6683617  45.6747971  16.7661591
   9.6619654  46.5861053  17.4540958  72.5233994  51.3658333   7.7684822
  72.0741653  50.6669083   7.2931657  72.7015839  52.0312805   7.1039062
  79.5049133  11.3988228  32.7750549  79.6203079  11.7012873  33.6758499
  79.0593796  12.1225281  32.3346176  84.1494293  18.9695625  23.4777565
  85.0830612  18.9762383  23.6887455  83.8051910  18.2044983  23.9386330
  29.1687050   6.8444204  88.3968277  28.9609280   7.7430205  88.6529160
  30.0470257   6.6929083  88.7458725  82.1605072   7.9897256  86.9264374
  81.5000229   8.5508871  86.5201263  82.2467499   7.2485685  86.3268738
  32.8203735  63.4605370  25.4885006  32.8869209  63.5977097  24.5435219
  33.1821213  64.2592163  25.8725243  62.6237984  16.3975830  29.0743580
  62.2848625  16.8670216  29.8365803  61.8682671  15.9201097  28.7316856
  10.7498865  45.3480873  59.4629784  11.6190147  45.7005615  59.2716408
  10.2529631  46.0991020  59.7874413  76.4391251  42.6837425  70.3303680
  75.9892807  42.6215706  69.4877472  77.1622086  43.2905273  70.1716537
   1.1540180   5.8633561  42.1655655   1.1960666   5.2242160  41.4542580
   1.5581547   5.4191213  42.9109268  14.7895222  42.5501785  40.7079887
  14.1547432  41.8354645  40.7577477  15.5478477  42.2315140  41.1975098
  27.4189091  62.1380844  62.6733246  26.9507542  62.8835907  62.2974472
  26.7483578  61.6508522  63.1520729  60.1612968  52.6975670  25.4776077
  60.5354118  52.9831276  26.3111095  59.2148323  52.7254105  25.6178341
  84.3950577  59.4357872  10.1324577  85.1937485  59.6154022  10.6285076
  83.7057724  59.8923759  10.6147861  19.3564644  55.3472939  78.3560791
  20.1513500  55.3205605  77.8234634  18.7195873  55.8114052  77.8127365
   6.4873924  15.9874716  86.4746933   7.2319303  16.4190655  86.8937683
   5.9540305  16.7061081  86.1351089   1.9168816  64.1180878  87.7176590
   2.6077654  63.6282310  87.2716217   2.0757396  65.0304794  87.4756927
  50.8171768  50.5657921  61.5196190  51.2388611  50.4332886  60.6705894
  50.7603722  49.6885414  61.8983459   7.6912088  14.8929758   6.7210317
   8.2914724  14.4920731   6.0923891   7.7865853  14.3648205   7.5136142
  78.2812424   1.9307317  45.9473801  78.1509628   1.3328577  46.6834564
  77.3969574   2.1971204  45.6957779  71.1680603  66.5337753  72.8420792
  71.9333878  66.1144028  73.2353134  70.7843704  65.8571548  72.2842255
  71.6394348  22.0831184   1.1980413  72.4657135  22.4547348   0.8891911
  71.5684814  21.2446899   0.7417141  60.9583435  59.2988968  31.0925598
  61.2840919  59.2724571  31.9922390  60.5597878  60.1650085  31.0074978
  74.8837204  43.6800041   8.6546707  74.0430145  44.0543404   8.9179373
  74.6514893  42.8962936   8.1565733  70.2420578  46.1008453  11.7071533
  70.8335495  46.8492699  11.7860985  70.5673294  45.6175766  10.9476261
  16.1458912  51.9080238  31.7406445  16.5814838  51.8187637  30.8929882
  16.2777863  51.0617371  32.1680031   8.2221518  34.1263962  22.5730953
   8.2467747  33.3364792  23.1131477   7.3662391  34.0976257  22.1455231
  75.0792084  52.0173035  53.9037628  74.1439743  51.9019966  54.0718765
  75.1795578  51.8307152  52.9703026  26.6658993  57.5804634  20.3043194
  26.9976044  58.4193420  19.9841785  27.4489746  57.1001816  20.5733032
  71.7288589  42.2814522  26.8425484  72.5117493  42.5326920  27.3326454
  71.1108780  41.9883385  27.5121880  56.4649658  41.2932053  81.1281357
  55.5214081  41.3212700  81.2866898  56.7296448  42.2124748  81.0945663
  65.0186157   4.2525992  37.8953362  64.9576797   5.1994691  38.0216522
  64.1906586   4.0127068  37.4791985  51.2408142  46.4583359  88.3684998
  51.8401489  45.7253456  88.5090408  51.6696472  47.2027016  88.7906952
  64.5341568  33.7125320  64.6728134  65.0928497  32.9463959  64.8037109
  65.0454254  34.4438095  65.0193329  58.7643013   4.9515061  87.2205963
  58.7098465   4.0484619  87.5332947  59.6156578   5.0036216  86.7861938
   6.2248626  37.8853149  11.0823021   6.4003234  37.9363251  12.0218992
   6.0110497  36.9651184  10.9281855  46.8319588  53.1388588  46.3440208
  46.7184677  53.5073090  47.2201462  46.0215912  52.6564560  46.1802444
  85.2689896  11.4565916  53.0157013  85.1388626  12.3988953  53.1222916
  86.0763702  11.3823433  52.5069160  55.8259811   7.5508418  73.6606674
  54.9944077   8.0041437  73.7993622  56.0585976   7.7493372  72.7536240
   4.6095972  24.9109554  47.3978119   3.8563752  25.2635994  47.8716583
   4.2666888  24.6929550  46.5311394  14.4172945  26.3157501  82.1036987
  14.9023619  25.4917297  82.1476364  14.3602142  26.5104885  81.1682587
  46.9221764  30.1612930  68.9347458  46.6108704  30.5915852  68.1383972
  46.7329216  29.2334156  68.7952576  42.9777489  65.1013260  58.3871994
  43.9184647  65.2164841  58.5214500  42.9130974  64.4268723  57.7110558
   6.3654637  35.8886528  70.0123444   6.5137177  35.1483269  69.4239807
   5.5672212  35.6600227  70.4885483  70.6862030  45.0650673  49.0971680
  70.6410904  45.1586266  50.0487175  71.0705566  44.1992874  48.9595833
  50.8185768  61.8104401  64.9772339  50.3501015  61.2037849  64.4038773
  50.6542740  62.6737633  64.5978775  67.7928696  32.0501823  58.7742195
  67.8747330  31.5990562  59.6144676  68.5997849  32.5591049  58.6959991
   8.2516975  18.0528145  59.6656113   7.7898512  18.7355461  59.1789818
   8.0527267  17.2450066  59.1922302  77.7291641  44.1146584  29.6430874
  78.0454865  43.5030632  28.9781666  77.0604858  44.6318474  29.1940594
  10.4987555  47.7842178  80.7997437  10.1714258  48.0108070  79.9292603
  11.2343378  48.3800583  80.9416122  61.1852074  65.6479187  44.6695137
  61.3080750  66.4897232  44.2307625  60.3125038  65.7056808  45.0584717
  47.0625229  20.0231476  70.0154572  46.6728935  20.8769341  70.2037888
  46.3718338  19.3936996  70.2227554  52.0473595  50.0534439  66.5155792
  52.1207008  49.1001854  66.4691696  51.1309891  50.2124252  66.7418976
   8.9677496  70.7938461  21.7313881   9.6355543  70.6557922  21.0596657
   9.2774715  71.5535660  22.2244663  57.8234024  46.0739403  32.2820396
  57.1736412  45.4042778  32.4955482  57.5035439  46.4678802  31.4704151
  63.5542450  33.9147758  58.2406311  63.5365562  34.6506310  57.6287155
  63.9524002  34.2726402  59.0341263  53.2780190  66.4152145  79.8409653
  52.5340118  66.6631775  80.3897858  54.0453110  66.5797195  80.3890915
   5.2068334  65.8953934  83.6847458   5.1816316  66.8442688  83.5613327
   4.2946424  65.6183624  83.5987396  83.0352173  44.5400467   0.8453304
  83.0128860  44.3753738  -0.0973343  83.7962723  44.0497246   1.1561596
  75.8035736   9.0899429  41.7618408  75.9082794   8.7695341  42.6577225
  75.9873505   8.3282471  41.2120399  44.7067184  27.5154209  87.9647598
  45.0565376  27.0414124  87.2103271  45.4589272  27.6298103  88.5455627
  23.2921391  50.3973274  31.6237640  22.6951427  50.6092148  32.3413506
  23.2462044  51.1560707  31.0420170  75.1893158  71.5528564  40.6443558
  75.3504562  71.2608795  39.7471313  74.2474060  71.4363174  40.7686386
  17.0302410  56.1674004  41.2554207  16.1309109  55.9050293  41.0589600
  17.0805950  56.1529427  42.2111855  41.9690399  36.1124496  31.7736645
  41.0447617  36.2612610  31.9731541  42.4197273  36.8694878  32.1478462
  25.8940945  59.2214127   0.9288689  25.1822758  59.3426590   0.3005027
  25.4667091  59.2565079   1.7846388   1.4573320  28.3965511  11.0129232
   1.8152968  29.2531204  11.2461243   1.4220116  27.9181519  11.8412457
   0.4545307  46.7145538  69.2134781   1.2505953  47.0640945  69.6138992
   0.7115121  46.5009308  68.3165054  13.8628321  41.2998619  62.0557556
  14.6107101  41.0928841  62.6161766  13.1073666  41.2667923  62.6426201
  15.4755764  42.9738960  73.1823730  15.3387814  43.0814590  74.1236267
  16.2554665  43.4954033  72.9925537   2.2398953   2.0313890  50.4329872
   1.2978405   1.8669950  50.3912849   2.3116736   2.9680614  50.6166306
   0.3971853  12.9517517  40.1969452  -0.1210946  12.8547935  40.9958305
   0.9879179  12.1985960  40.2018013   9.5210953  70.6529999  81.4071045
   8.7767916  70.1716003  81.0458603  10.0553703  70.8753357  80.6446457
   8.7320271  29.0425930  66.9459839   8.5753489  29.2456646  66.0237885
   8.1297531  28.3240051  67.1386795  75.1297073   8.1831541  33.7940598
  74.8750610   7.4745088  33.2031212  75.7349930   8.7177181  33.2801552
  74.7154388  22.4403877  22.0919895  75.5534134  22.8761005  22.2475014
  74.6855087  21.7393932  22.7430973  55.1814766   4.5565567  80.6503220
  55.4884377   3.6908352  80.9196396  55.3449326   4.5860720  79.7076416
  40.1219254  19.4132385  68.8039017  39.9004440  18.5997601  68.3506546
  39.4218979  19.5275364  69.4466553  84.0197449  23.6286736  51.4535141
  83.4127274  23.2591686  50.8122444  83.4946518  24.2615166  51.9434280
   3.0190473  31.2215710  12.4798431   2.8666928  31.2805500  13.4229975
   3.5395365  30.4257107  12.3706112  69.1969070  17.7659721  84.8187180
  69.4326019  17.7775097  83.8910599  69.9268646  17.3175983  85.2457428
  82.4878311  58.0744209  40.3371658  82.4547424  58.1464462  39.3832512
  82.2467651  58.9457550  40.6516495   1.2915347  65.0416565  28.5257607
   0.9427733  64.1593094  28.3990211   2.2002521  64.9039001  28.7931309
  56.2375107  57.9318314  55.7759247  56.6335068  57.0608521  55.7474022
  55.3148880  57.7823372  55.5694008  63.2353821  23.3899822  14.4341850
  64.1560440  23.6355972  14.5251799  63.2585602  22.4865723  14.1186743
  59.8648911  31.2992516  65.7491531  60.1109505  32.0680695  66.2635574
  60.6617317  30.7701206  65.7131424  43.8448334  37.9583321  61.6046600
  43.6681519  38.3779907  62.4466248  44.7954330  37.8475189  61.5870743
  44.9602203  65.7069931  11.4253750  45.6444168  65.5934982  10.7656574
  44.8098755  64.8261414  11.7684965  45.9806137  62.5499687  64.9893875
  45.8330956  62.6210251  64.0462952  46.0995522  61.6127357  65.1432648
  19.1039886  57.1192551  88.2388458  18.2668228  56.7468872  87.9618530
  19.0272713  58.0530701  88.0430374  10.9673719   2.3291590  76.3984833
  10.0281830   2.5092480  76.3569641  11.2981606   2.9342740  77.0622940
  67.7651901  10.6592989  71.0476227  67.9960709  10.7284184  71.9739838
  67.9132614  11.5378466  70.6976776  27.9014130  39.5529175  68.8670044
  28.4421864  39.1332703  69.5361023  28.1004238  40.4856453  68.9485092
  31.2948551   8.9705992  31.1449909  32.2503128   8.9861994  31.2005558
  31.0939274   9.4479475  30.3400078  54.8927803  20.8507538  76.9415512
  55.4840164  20.6549282  76.2146912  54.3941994  21.6125908  76.6461639
  67.3887100  46.7354050  75.8343582  66.7353973  46.0452995  75.9491119
  67.9311295  46.6849899  76.6214218  21.9016094  56.0985260  20.4267006
  21.6273975  56.9553070  20.7537594  22.2263641  56.2721481  19.5431728
  35.3468208  34.7416077  59.9712067  35.7787361  33.8875809  59.9890480
  35.7466927  35.2273521  60.6925850  70.9717560  56.8863182  58.6794930
  70.2429123  57.4426498  58.4047050  71.6270142  57.4982605  59.0147438
  47.7763062  65.3580322  85.4215012  47.3306465  64.5901184  85.7791672
  47.4357414  66.0922546  85.9325409  82.1835327   9.2786131  48.0409889
  82.7962189   9.6828880  48.6553307  82.5044479   8.3827972  47.9372635
  24.9848843  67.9316711  50.6307869  25.7023602  67.3166580  50.7831688
  24.7307606  68.2247925  51.5058479  79.4614105  32.7026405   3.4250510
  78.6044693  32.2884903   3.5268717  79.9298172  32.4851303   4.2309737
  47.7681160  33.9807701  71.3825760  48.3461876  33.4850044  71.9624786
  48.3529587  34.5746765  70.9119720  57.5630188  47.7331314  14.1746588
  57.2753639  48.0465813  15.0321159  58.4788170  48.0051613  14.1150723
  10.4064455  53.9161072  52.4277649  10.3796883  54.8481865  52.6439705
  10.9390478  53.8696022  51.6337852   2.5826228  20.8171844  52.9591904
   2.5884926  21.2053280  52.0842400   1.9155464  20.1322765  52.9129028
  43.5267067  71.0872803  57.4529953  43.9226685  71.5726318  56.7291985
  42.8299713  71.6603928  57.7728920  48.8076897   6.2188129  75.0065308
  49.3077087   6.0597711  75.8071060  47.9658966   6.5560632  75.3129196
  24.2118378  24.5340729  12.9639912  23.2731152  24.5160751  12.7776909
  24.4123974  25.4608860  13.0944786  80.4214478  19.7046909  76.5190430
  81.3435974  19.7575550  76.7701874  79.9538574  20.1410275  77.2312241
  28.4670944  31.0326500  87.9457626  28.7111397  31.8635979  87.5380936
  27.8544388  31.2770023  88.6394348  38.8481522  42.7040710  72.8865814
  39.4776955  43.3175964  72.5077820  39.2374191  42.4470329  73.7224274
  79.0573654  47.6256409   9.6407919  79.0422821  47.3210907  10.5481243
  79.9809341  47.8038216   9.4632759  47.0898514  28.4754944  76.6423874
  48.0149956  28.4330902  76.4004288  47.0960236  28.6751060  77.5785217
  17.9649525  14.4649591  51.7760201  18.5356960  14.9374704  52.3820038
  17.1765862  14.2782726  52.2857819  85.9185638   6.7529712  40.6205063
  86.2733917   6.2899294  41.3794022  84.9881897   6.5279856  40.6161385
   5.4904704  19.3831806  63.2146988   6.4035254  19.2216988  63.4523659
   5.3396025  18.8260384  62.4511147  67.3944244   1.3142155  25.7719936
  67.7259293   2.1970482  25.9361362  67.8222656   1.0450015  24.9591541
  66.7742615   3.1045735  12.7529802  67.0132599   4.0253668  12.8590536
  67.6101379   2.6381814  12.7569103  80.9636230   4.7182932  36.2477379
  81.1638870   5.6139369  35.9758034  81.5250626   4.1702876  35.6993713
  13.2642870  67.6531143  77.4846039  13.0496759  68.5273209  77.8100891
  13.9922895  67.3646393  78.0350800  68.4089813  15.1485510  51.2107925
  69.0419540  14.5846329  51.6552925  68.8246994  15.3635674  50.3758202
  10.6878061  51.4068451  17.7048016  10.5727949  52.3292389  17.9332600
   9.8876610  51.1753311  17.2332077  16.9565659  -0.0612459  77.4964294
  17.6698017   0.5559618  77.6594696  16.5910206   0.2119811  76.6550293
  15.4056311  42.8994827  54.7447815  15.9389124  42.3592949  55.3279114
  15.9758663  43.0801544  53.9975052  74.0094376  27.7571087  83.9708862
  74.2110672  28.6565189  84.2290344  74.7880783  27.2572803  84.2160645
  12.4521008  38.3830147  78.7934036  11.6082525  38.8300667  78.8589554
  12.8335943  38.7097702  77.9785843  73.4604034  51.1086998  63.4009323
  73.8703156  51.7467499  62.8168945  72.5336609  51.1260719  63.1620216
  55.4665413  14.0656328   6.5094337  55.8510857  14.8735065   6.8495765
  55.3552971  13.5099983   7.2808785  42.4031677  27.6463623  72.7919540
  42.8420143  28.0007534  72.0186157  42.1583481  28.4178047  73.3030014
  79.5183487  11.6670332   9.0194941  79.7090759  12.2731419   9.7353754
  80.3137436  11.6674557   8.4869747  41.5943108  40.3900108  53.9751511
  41.3466568  39.6381340  53.4370270  41.8563042  41.0603142  53.3440514
  33.6602135  35.7418251   8.3509169  33.4863892  35.0923042   9.0321941
  34.5195808  35.5015068   8.0045490  57.6913834  23.4278030  44.8441620
  56.9252357  23.9989033  44.8997765  58.3532791  23.8619080  45.3823853
  39.5881691  41.7402763  48.0684853  39.6997833  41.0887299  48.7607727
  38.6576462  41.9628906  48.0968590  72.6449890  59.9784470  66.0007553
  73.3507538  59.3662834  65.7924728  72.2661591  59.6401482  66.8120956
  72.9455414  61.6484718  19.0147476  73.3048706  60.9846458  19.6033478
  72.1096649  61.8933449  19.4116974  49.9719086  62.2309341  51.0198479
  50.0772133  61.3387489  50.6894646  49.0488930  62.2874374  51.2669945
  53.3506470  70.1474457  48.7499275  52.5121803  69.7088852  48.8943977
  54.0036125  69.4546814  48.8496666  30.9660187  70.9339294  73.4426804
  30.2516766  71.2478867  72.8882599  30.9657192  71.5281677  74.1930923
  18.2277870  59.0186081  42.1405411  18.9293919  59.6582413  42.2624168
  17.4460793  59.4524803  42.4824791  65.3386078  41.7973022  67.8529282
  65.9617615  41.1041222  68.0706635  65.2523270  42.3040962  68.6603622
  69.6904449  70.3449097  14.4381847  69.8244400  69.5881348  13.8675938
  70.2206116  70.1576462  15.2128401  61.1809235  60.9835396  13.9449968
  61.8630180  61.6491280  13.8557396  60.9137306  61.0359726  14.8626518
  82.1163712  13.4668941   2.0973463  82.0169601  12.7936907   1.4241842
  81.5478897  13.1776972   2.8110847  86.3761063  62.2851143  74.1600876
  85.7823257  61.7947121  74.7285614  86.3654251  61.8054237  73.3318253
  40.1810837  34.1309853   1.2574344  40.5564384  33.3901253   0.7815514
  40.5971680  34.0979347   2.1188366  17.1946774  53.3026390  16.8743801
  17.8538971  53.9234085  16.5640488  17.1188984  52.6608162  16.1682987
  16.4978123   8.5178986  75.2000122  16.4289284   9.4718618  75.1620560
  15.8275146   8.2050018  74.5925369  31.8793087  39.8348732  82.0911026
  32.4233551  39.2907181  82.6604385  30.9919205  39.7271042  82.4333878
  46.5584869  29.7896004  59.2091675  46.2238770  29.7151165  58.3154564
  47.3068008  29.1932926  59.2352219  16.5660820   2.3414619  14.4286880
  16.2304230   2.2648757  15.3218269  17.0130424   3.1877465  14.4125423
  42.0460014   8.2779083  11.9653339  42.3652649   7.3811531  12.0659933
  42.3351936   8.7257614  12.7603340  82.9574203  67.4851990  76.8150787
  82.2340469  67.6617050  76.2135696  83.6475067  67.1222763  76.2598343
   8.9284449  26.0753098   5.1334400   9.8117008  26.4396286   5.1914229
   8.5405827  26.2498837   5.9909472  78.0931168  49.7065201  50.6453514
  77.2931137  49.8960495  50.1551361  78.7995148  50.0247650  50.0832558
   6.0672622  68.2378311  43.6283989   5.7698178  69.0250397  44.0845299
   5.3299165  67.6308365  43.6925316  71.3892365   6.7296205  76.9833374
  70.4411850   6.6609058  76.8706207  71.6543808   7.4146361  76.3695908
  66.7268295  16.7570419  40.9616051  65.9341888  16.2238731  41.0222855
  67.3036118  16.4068241  41.6404991  38.5362473  56.1194496  36.7400665
  37.7041512  56.1424980  37.2126350  38.5066566  56.8844643  36.1655197
   2.6130011  50.6665573  60.9145012   2.9224994  50.6126480  60.0103226
   2.0169318  49.9235039  61.0083275  24.0147305  60.2648201  47.9649506
  24.3043423  59.5728073  47.3704109  23.0599670  60.1965408  47.9649467
  66.4750290  27.9128647  76.7114639  66.3092422  26.9701385  76.7147827
  66.0437775  28.2291069  75.9175873  45.2740517  40.0132408  76.1115952
  44.3874207  39.6544342  76.1486893  45.4450150  40.1331520  75.1774521
  46.0052452  23.8788071   5.0882797  45.6141663  23.0120029   5.1975594
  46.7683067  23.7286701   4.5302267   6.3028960  27.5827618  71.0276413
   6.3660574  27.5455437  71.9820328   7.1900086  27.3944473  70.7213745
  23.2070274  50.9417000  81.7593460  23.9235096  51.5353241  81.9840546
  23.4821396  50.0925751  82.1050797  36.5717583   7.1464448  60.2080994
  36.4361992   6.3050098  59.7723885  35.9393883   7.1486988  60.9266624
  18.8368835  30.6645947  14.7539778  19.0556488  30.0962868  14.0154657
  19.6681499  31.0722675  14.9969397  25.6298580  57.5065231  68.3629837
  25.8936367  57.1351089  67.5211411  26.3583603  57.3078384  68.9512405
  31.3358612  38.0447540  57.6238670  30.8324146  38.4326820  56.9081268
  30.8670025  38.3069916  58.4160995  11.0273352  54.1315346  65.6754608
  10.5921936  54.0076141  64.8319397  11.5692101  53.3497849  65.7825623
   7.6435308  52.4038239   2.9979606   7.1784391  53.1265564   3.4193616
   8.2052183  52.8267708   2.3484569  32.9718666  56.8461533  75.6908493
  32.9141655  57.3968849  76.4716187  32.8306961  55.9564171  76.0143814
  85.2469254  66.3253479  49.3514748  85.2021332  65.8589783  50.1861763
  84.7041550  65.8065109  48.7578011  57.5082550  37.3447037  46.7874985
  57.9993362  37.2826614  45.9682159  58.1642914  37.2077217  47.4709358
  76.9575272  70.6248016  67.3732834  77.5495911  70.0206604  67.8212814
  77.2974396  70.6748886  66.4798737  18.9549961  60.8318100  81.6413498
  19.1423435  61.4650993  80.9484711  18.0161743  60.6622086  81.5633621
  74.1495132  22.1070957  33.8851662  73.2177200  21.8880920  33.8908768
  74.5947037  21.2597294  33.8828964   3.8718600  13.2901373  57.6856651
   3.2162285  13.9727173  57.5426140   4.6170087  13.7508230  58.0713539
  62.8242455  69.9894791  29.5870361  63.3387756  69.1967316  29.7388439
  62.9189301  70.4947510  30.3944778  78.3298187  62.4951096  80.2674637
  78.9248962  63.2309380  80.4112320  78.8974838  61.7812157  79.9770279
  24.6902752  24.2386036   3.9569919  23.9199791  23.6715221   3.9929600
  25.4035072  23.6953278   4.2922316  68.6628265   0.2925672  69.1887817
  68.9996567  -0.4792045  68.7336502  68.4053955   0.8909010  68.4873886
   1.1187235  70.8469849  87.3730469   0.5423480  71.1372299  86.6660995
   0.5412503  70.7566528  88.1310730  20.3397350  14.9709635   1.1368490
  20.0469017  15.2436552   2.0064003  19.6558800  15.2839766   0.5447364
  51.9118271   4.9355631   1.3043822  51.7168083   4.4966044   2.1323407
  51.7927513   5.8664203   1.4929489  14.1943359   0.9438422  24.0992546
  14.9297056   0.6366367  24.6294327  13.4868174   1.0829449  24.7287788
  17.2540207  43.6890259  20.1557293  16.5282669  44.0647812  20.6540508
  17.4052029  42.8346825  20.5600491  39.1047745  52.7803879  74.8845520
  39.5304718  51.9470596  75.0859833  38.1711349  52.6079941  75.0063171
  60.6238289  53.1255875   1.2836465  59.8390923  53.3360329   1.7897398
  61.3190346  53.6390152   1.6951203  18.1150684  32.2247086  68.9024811
  18.4142456  32.1315079  69.8069382  17.1599941  32.2039833  68.9627914
  35.6624146  64.1138840  20.8199844  36.4532509  63.7651138  21.2312870
  35.6196175  63.6733131  19.9712811  39.6301384  25.2139416  76.5330276
  39.9439926  25.3607216  75.6407318  39.5761032  24.2617321  76.6143112
  66.2971954  38.4884720  35.1191177  66.2688217  38.8693924  35.9967995
  65.4660721  38.0213661  35.0337639  25.6098518  31.1171684   9.9947433
  26.5245380  30.8952694  10.1689425  25.1797829  30.2725506   9.8609838
  66.3257751  56.1658211   7.3931007  66.6432266  56.9567528   7.8288569
  66.1343918  55.5588608   8.1080847  18.9480953  60.1457214  75.7593231
  19.2306232  59.4197807  76.3155746  19.4390507  60.9008598  76.0833130
  85.2659607  61.0920715  67.9360809  84.6218185  60.7973137  68.5798416
  84.7609100  61.6165848  67.3147583  38.9712181   7.8330588   2.1018665
  38.9368820   8.7066622   1.7121615  38.5929527   7.2587461   1.4360487
  75.4094009  60.6892281  85.2349396  75.0043182  60.3542137  84.4349976
  74.9982605  60.1883965  85.9394760  80.8910828  11.4604540  87.8685226
  80.5288773  10.8500652  87.2262878  80.4871140  12.3013363  87.6541367
  84.0325928  50.8740692  22.8073006  84.5173569  50.0502129  22.8573399
  83.1362610  50.6121712  22.5970058  14.6127357  11.1623163  51.4505234
  14.8170242  10.3724022  51.9510574  13.8528805  10.9205084  50.9210129
  79.0882568  35.9176102  25.7866497  79.6348038  36.2370224  25.0686741
  78.2648621  35.6671028  25.3677216  -0.3157072  64.6440048   7.8216448
   0.0126226  65.0712433   7.0305076   0.3092661  63.9388046   7.9899712
  22.4630203  64.7025375  33.2772636  22.7481194  64.6040573  34.1856956
  21.5155792  64.8257523  33.3355942  64.9507599  44.8961220  81.5992737
  64.0063553  44.9238701  81.7527695  65.3340912  44.8390770  82.4745102
  74.1656418  56.9754105   0.0731743  75.0211639  56.7725220   0.4515163
  73.7644424  57.5792160   0.6982231  48.0130768  70.8299332  61.2893639
  47.9198532  71.0463791  60.3616257  48.7165298  71.4005203  61.5989113
   4.8593245  69.4721756  10.2927599   4.8601670  69.0482101   9.4345741
   5.7686496  69.4192200  10.5869617  72.1205521   4.6548023  29.3312054
  71.5697784   4.8187203  28.5656967  72.6764526   3.9194925  29.0732765
   5.0291862  26.5477524   9.2695332   5.3076954  25.6861248   9.5797911
   4.0738258  26.5247059   9.3241873  52.1814003   5.6929579  83.3298416
  51.3524132   5.2144346  83.3349686  52.8365593   5.0397010  83.5753174
  29.2800465  48.3729210   4.1449857  29.1857548  48.1684418   3.2146473
  28.9967098  49.2841530   4.2198496  15.3030453   5.8572683  11.6940622
  14.7326946   5.7025084  12.4470444  15.2454967   5.0516095  11.1804152
   8.0113401  28.4298134  85.6119690   7.5127487  27.6237373  85.7456894
   8.3591690  28.6427364  86.4779434  37.3056908  58.2544479  15.6365900
  37.0058746  57.4596748  15.1953630  37.3276482  58.9176254  14.9467020
  54.3028603  52.8964539  39.1218796  53.7968597  53.2513809  38.3909760
  55.1604233  52.6983109  38.7456436  32.6411095  37.0664406  79.0784302
  31.6870193  36.9893799  79.0762024  32.9212990  36.5506058  79.8344955
  48.7991066  10.5562963  11.3264151  47.9657745  11.0020533  11.4783716
  48.6452904   9.6563768  11.6140213  58.9607430  23.1009979  65.7874756
  58.2377396  23.5812263  66.1910553  58.5489883  22.3276176  65.4020233
  51.4928360   9.4499569   6.0407519  51.1543808   9.8217707   5.2262383
  51.8390732  10.2017546   6.5215335   3.2567711  14.3952942   6.0343075
   3.5001371  13.7857065   6.7310195   2.5262461  13.9682989   5.5868254
  57.2433319  56.5081711  45.1378441  56.7501335  57.0462418  44.5185966
  57.8905411  56.0542068  44.5981483  19.6812210  60.8066711  32.9902267
  20.0596790  59.9510956  32.7877693  18.8480740  60.8175850  32.5190811
  44.5137901  51.2092361  86.0664825  45.2417030  51.3389320  86.6743927
  44.1348648  50.3683395  86.3224869  78.4301300   3.1397307  70.0629959
  78.1452560   2.3481197  69.6064606  77.6473465   3.4475641  70.5198517
  45.0565109  14.1551609  73.6869125  45.9044762  13.8942022  74.0462036
  44.8945732  15.0215359  74.0602798  80.5683670  22.5386009  59.9657364
  80.8638077  22.8849831  60.8077393  79.7491150  23.0015678  59.7904549
   2.5086119  39.4595833  64.8740005   1.7066333  39.5167160  65.3934250
   2.7047651  38.5233727  64.8384628   7.7618585  46.0912437  72.4603271
   8.5123062  46.4553909  71.9907990   7.8299928  45.1461754  72.3245392
  81.1789322  11.9838266  81.3901443  81.7319260  12.6938686  81.7161407
  81.7411041  11.2096577  81.4194565  76.0594788  47.0514412   9.8518219
  76.1621780  47.9863167  10.0298290  76.9209290  46.6766434  10.0352888
  84.6586990  56.0085335  23.8757381  84.4290619  55.8617439  24.7933178
  85.0289154  55.1750145  23.5851955  82.3089523  19.4716320  63.6654930
  82.2794800  20.0825958  64.4017639  83.2189560  19.4967422  63.3697014
  45.4612770  37.5131416  44.6355820  44.8600845  37.8969574  43.9972420
  44.9461365  36.8345261  45.0718651  62.9987259  17.8635941  11.6573887
  62.5138168  17.7159042  12.4693518  62.3299332  18.1194000  11.0221596
  54.1539536  66.1679764  74.0486603  55.0503311  66.1623383  73.7129440
  53.8119888  67.0278931  73.8040543  66.8285065  53.0802422  78.4949341
  66.6589203  52.2782593  78.0006714  66.8649597  53.7680550  77.8302460
  75.5984116  20.4200878  52.0434189  74.8066788  19.9099998  51.8725395
  75.2908173  21.1830082  52.5328789  20.8479309  70.0364838  15.1991472
  21.1204205  69.1247787  15.3029470  21.6606522  70.5381241  15.2629776
  82.0849686  26.8891048  72.2501907  81.6901550  27.4684715  72.9018784
  82.9875183  26.7740154  72.5475082   5.2223878  10.1996403  21.9707184
   5.6736932   9.4151754  22.2824421   4.8858204   9.9556437  21.1085014
  53.0945053  44.7562027  54.2407303  52.7657433  44.2269173  53.5140877
  52.3095665  45.0114517  54.7254486  24.4754505  62.3243370  23.5352898
  24.8013535  62.6951332  24.3553677  25.0413933  61.5698395  23.3719673
  58.2625160   7.1448512   3.6309795  58.0603218   6.2247915   3.8008034
  57.4781570   7.6177487   3.9091606   8.8155928  52.6675148  73.5975418
   9.2793655  53.3317184  73.0876541   7.9855714  53.0823174  73.8325577
  84.7164154  69.5590820  78.7803802  84.7966003  70.4732132  79.0527115
  84.9952621  69.5566177  77.8647003  24.7347698  59.2436752  87.5322495
  25.3751717  58.7332268  87.0367126  23.9047642  59.0894737  87.0810928
  43.4486580  53.2628632  61.7235336  43.9873848  53.5836945  62.4467735
  44.0788155  53.0163040  61.0465240  70.2969437  53.2732048  42.3424492
  70.3288574  53.1952896  43.2959366  70.3692169  52.3727226  42.0260010
  60.0852394  34.2201538  25.0719337  61.0159798  34.0900459  24.8901863
  59.7784691  34.7819061  24.3602047  74.3200760  19.9795589  17.2146473
  73.3967514  19.7756481  17.3633614  74.7779465  19.5631237  17.9448318
   7.2122059  19.7464142  16.6855698   6.5618696  20.4168148  16.8949890
   7.6213269  20.0539837  15.8767118  66.6198578  34.8511047  88.6763611
  66.8988571  35.7162857  88.3766022  66.0720749  34.5167084  87.9661865
  78.1864929  16.3244076  42.2862282  78.0565720  17.2715378  42.2382927
  78.7686920  16.2001457  43.0357895  33.2781487  54.7379036   4.4224463
  33.1930962  55.2089691   5.2513590  32.8773346  55.3179893   3.7750821
   9.4706173  35.8246956  87.3561554   9.9493990  36.6263275  87.1454773
   8.7295761  35.8220634  86.7502823   8.5476627  53.0693321  55.5038223
   8.1976709  53.9443512  55.6713791   7.8101153  52.5828285  55.1356239
  77.6225967  54.4396553  27.7029076  78.3719330  54.8520317  27.2731743
  77.6857681  53.5159149  27.4601288   5.5954390  64.8162079  71.1111603
   5.9801507  64.9802551  71.9721603   5.0120983  64.0696945  71.2477798
  32.8671646  46.6651840  43.4435043  32.1101151  46.1880264  43.7832527
  32.6140938  46.9142380  42.5545959  21.9682617  32.4880028  12.4381018
  22.4105511  31.9786034  13.1171646  21.0741596  32.5946236  12.7628212
   9.6386757  24.6101913  73.0406952   9.7739153  25.5542011  73.1230850
   8.6895046  24.4986420  73.0942078  19.9235096  13.6860962   7.9272900
  19.7063923  14.4707832   8.4306374  19.6773014  13.9026613   7.0280051
  44.1190109  25.2514782  65.2502518  44.5339508  25.5896606  66.0437851
  43.2063255  25.1071758  65.5000839  65.9790268  66.0988312  66.0894165
  66.5096436  65.3344650  66.3139801  65.1710892  65.7323227  65.7300568
  15.1901836  60.5065994  60.1898193  14.4383745  61.0174942  59.8898163
  15.3992090  59.9326744  59.4528313  30.1082821  55.2514725   0.8049208
  29.6831779  55.9827805   0.3569211  29.8470955  55.3472252   1.7208058
  70.9770203  16.9881020  10.8289738  70.0895081  17.0987644  10.4879436
  71.4259796  16.4665985  10.1636152  54.5723686  58.6313782  44.5072784
  53.8581390  58.5118828  45.1332397  55.1089020  59.3276749  44.8861351
  55.7124252  52.5111618  22.5309486  56.4197350  52.8034401  21.9560413
  56.1189499  52.4421310  23.3947811  53.3103333  33.9512100  58.0507965
  52.9717484  33.1661148  58.4811592  52.6478767  34.1695900  57.3952827
  45.0027847   7.1983633  63.6806793  44.0686607   7.0760779  63.8500824
  45.0706520   8.0931273  63.3474770  11.7330484  64.7249222  51.0702095
  12.6300240  64.8588257  50.7640419  11.4969540  65.5524979  51.4892654
  56.9615364  11.4983788  10.3705826  57.7862434  11.7783346   9.9734478
  57.2178688  10.8389759  11.0153408  20.5859241  42.3932533  32.2663155
  21.3769512  42.2346306  31.7511940  19.8662338  42.1916161  31.6682987
  22.9237289  62.6112251  55.8316078  23.3963108  62.3684464  55.0353928
  23.0918617  61.8907928  56.4390106   0.3519453  11.0971308  50.7747002
  -0.1132589  11.7736607  50.2826347   1.1608295  11.5220070  51.0600395
   3.3746636  32.2620850  15.3317032   3.8803582  31.5576477  15.7370100
   2.5364735  32.2517166  15.7938309  21.5845661  31.6822796  20.6057758
  20.6666317  31.4675312  20.4399052  21.6475849  32.6201363  20.4249802
  52.9816780  14.9844065  34.3243942  53.2089996  14.5410137  35.1416817
  53.2968063  15.8805122  34.4423828   6.5436025  28.4269981  88.9326096
   6.7535377  27.6612434  89.4671936   5.6674137  28.2479382  88.5913467
   6.7179527   6.0456791  78.2685471   7.0238471   5.1497531  78.4098816
   6.7915549   6.4621654  79.1272354  11.0328693  46.1840210  54.2885208
  11.0239601  46.7032814  55.0925903  11.3460493  46.7890511  53.6161461
  57.6697998   0.8815956  88.3204269  56.9845619   1.1177036  87.6951828
  57.6046371   1.5437562  89.0085602  31.8821297  23.9299984   9.6105528
  31.7751770  24.0633278  10.5523682  32.4804535  23.1861458   9.5403786
   5.8333192  59.1881332  82.6194000   5.8603783  59.8785934  83.2817917
   6.5440674  59.4065323  82.0166016  49.7358551  21.8594151   0.5291747
  50.0265121  21.0357018   0.1377075  48.9203682  22.0668297   0.0728967
  78.7613068  14.3224258  20.3371067  79.0310287  15.1244068  19.8895473
  79.1672897  13.6180573  19.8318615  43.1726532  48.0714798  73.8605652
  43.5094566  48.5010643  74.6468582  43.9533768  47.8696632  73.3448334
  68.5552979  23.6930809   6.6774402  68.1049500  24.1655903   5.9773307
  67.8668900  23.4902229   7.3108187  30.9409637   0.6653240  29.7216091
  31.2866974   0.2445973  30.5088139  30.0047703   0.4663513  29.7352009
  61.0075417  10.5254326  41.6690865  61.3193207   9.8354807  42.2547417
  61.6810188  11.2038393  41.7183151   1.6927985  29.8253365  42.3181572
   2.1116977  30.6156406  41.9773102   0.9708155  29.6568069  41.7127075
  70.3568726  68.4087830  61.6358414  70.1687164  67.8288803  62.3737793
  70.8502884  69.1333084  62.0203323   2.0031128  70.4335480  74.0199432
   1.1319610  70.8207397  74.1060181   1.9572215  69.6248093  74.5299225
  52.4821167  44.9849319  75.8325500  52.5746613  45.8295517  75.3917770
  53.3161964  44.8580704  76.2847137  77.2652740  43.4123917  43.2754707
  77.4022217  43.0553780  44.1529770  76.3737564  43.7603226  43.2949028
  81.0551682  41.0871162  37.4677238  81.5338516  40.2583008  37.4552689
  80.1939316  40.8716965  37.1098137  32.7348671  39.9476128  10.7001829
  32.1820946  40.7150078  10.8477383  33.3318977  39.9350739  11.4482670
  36.2592697  39.6302986  52.2539787  36.6418686  40.1180878  52.9833031
  35.6267281  39.0413322  52.6653709   0.5035021   1.1800923   1.7965999
   0.6877463   2.0479310   2.1559632   0.4159882   0.6162516   2.5651419
  80.7419052  26.2671604  70.1779480  81.2689209  26.3012505  70.9762726
  79.8381729  26.3430519  70.4841232  49.8856506  21.1608601  60.8054390
  49.3349495  20.4647503  60.4471169  49.9377670  21.8100567  60.1039696
  80.2773972  33.0821075  37.3063087  79.4326477  33.2803116  36.9021492
  80.4980240  33.8720512  37.7998123  12.9187202  28.5573521   0.3902812
  13.5554018  28.8470993   1.0436683  12.0843840  28.9151707   0.6937281
  47.5416451  63.8758812  35.7254219  47.5485382  64.3561401  34.8974495
  47.9686203  63.0434418  35.5230217  69.4232254  27.6265697  88.7555923
  68.7924347  27.8760509  89.4309464  69.6756287  28.4541492  88.3461609
  13.2090597  64.1812592  84.6623077  13.6764507  65.0134583  84.7345963
  12.4686384  64.3716507  84.0863190  46.0502167  42.9580879  71.1614304
  45.7322083  42.9591484  72.0642624  45.6754150  42.1659317  70.7764053
  11.8375292  62.4238663  55.4284172  12.2601862  62.4643745  56.2862930
  12.2787075  61.7037621  54.9778175  72.8631210   0.9763133  36.2840881
  73.5793991   0.8590077  35.6600533  72.2247162   1.5155741  35.8173256
  74.5844498  12.7498703  50.9199257  75.0298462  13.5944719  50.8528328
  73.6963425  12.9691544  51.2017288   4.7190752  33.9454956  28.0831127
   4.9552126  34.6585999  27.4898567   4.3976235  34.3852539  28.8702049
  84.6356354  70.2147522  32.6258659  85.2678986  69.7661819  32.0643883
  84.8916473  69.9726715  33.5158615  67.2062836  28.1428280  63.6719742
  66.5844955  28.0382729  62.9517860  67.5612946  27.2648773  63.8112602
  63.1564407  11.3306618  11.2051182  62.2832489  11.4301090  11.5844316
  63.4694901  10.4909763  11.5415087  85.6096344  46.4515877  15.5104055
  86.1165390  45.6660843  15.3048201  85.2658386  46.7426414  14.6658211
  75.5467453  39.3847275  11.0779476  75.8214798  40.2970390  11.1698246
  75.9603653  39.0906029  10.2663784  85.1458893  31.3081474  82.7398605
  84.6260452  31.6359386  83.4737167  84.5066452  30.8959084  82.1587677
  58.5360603  54.3589783  49.2984047  58.0799980  53.8582916  48.6219826
  59.4566917  54.3301620  49.0379524   1.0902334  45.2645569  49.4086113
   1.8619807  44.8581047  49.8028679   0.3800437  44.6459846  49.5795898
  27.1036720  36.9911690  63.5906754  27.2250080  36.2155266  63.0430527
  26.5075912  36.7048798  64.2827454  65.0254745  46.1010094  26.9257164
  64.7291565  45.2200813  27.1546059  64.2314987  46.6350212  26.9514904
  40.3799362  45.6776924  87.9638290  41.1667747  45.1496506  88.0990677
  40.0809402  45.8926125  88.8473663  13.9211445  36.2828484  12.5542374
  13.2001238  36.5940132  13.1015368  14.5439348  37.0096436  12.5426025
  46.8591270   1.8566512  68.8615417  46.3887558   1.0738033  68.5749588
  47.3023643   1.5885274  69.6664581  86.3971481   7.7160721  54.3318977
  86.5382919   8.6460724  54.5091324  85.8725433   7.4083147  55.0710258
  85.0413284  56.2997246  63.0898857  84.3086624  56.3610764  63.7028084
  84.6416473  56.4095764  62.2270851  73.2754593  54.4637642  42.0793991
  72.6643448  54.8495064  42.7070656  73.6971054  55.2153435  41.6627731
  64.1456528  60.9938698  41.0673561  64.9124527  61.0141335  41.6399269
  64.0367126  60.0691109  40.8455772  81.0900879  63.0820045  27.4573994
  80.2096863  63.2970238  27.7654610  81.0000229  63.0082359  26.5073051
  61.3494453  24.6678753   9.2814236  61.3407974  23.8247356   9.7344933
  61.2863731  24.4417782   8.3534498  64.7537308  35.0011139  60.3764648
  65.4605865  35.5695305  60.0707092  65.1869278  34.3655701  60.9462471
  55.7830544  44.5455017  33.8998413  55.0300255  43.9694786  33.7680130
  55.4265213  45.4295425  33.8127289  13.0479269  62.8303833  25.7527561
  13.9712210  63.0683746  25.8371429  12.8291187  63.0380478  24.8443336
  60.0596161  50.2863960   2.0580289  60.5151634  51.0070419   1.6228505
  60.5753174  49.5102119   1.8393439  45.8445091   5.1538358  40.8005867
  46.1764832   6.0489140  40.7308807  45.9998512   4.7727809  39.9363556
  70.0612488  56.4328537  25.1686783  70.4916840  55.8673935  25.8099365
  69.4474945  55.8557587  24.7142563  72.1525345  54.3316002  46.8998947
  72.2645798  55.2687912  46.7406807  71.9101791  53.9710503  46.0469589
  64.5541916  15.0495243  40.8532143  63.9144554  15.1808567  40.1534157
  64.1580353  15.4625301  41.6204910  70.6355133   0.8529203   4.7027330
  71.5892868   0.9053730   4.7643051  70.4729309   0.4256592   3.8617539
  59.4154625   0.7789247  37.8454895  60.0996246   0.6688338  37.1851616
  59.5912781   1.6368750  38.2318039   1.7163657  65.3472748  79.5992661
   1.0762751  65.7899323  80.1565475   2.5549150  65.7432327  79.8365021
  29.5473480  39.5522041  35.5914268  29.3227882  39.7140198  36.5077362
  29.9829388  38.6998901  35.5984879   0.9585824   3.2802083  52.8872604
   0.2428485   3.1996906  53.5177155   0.6232840   3.8782880  52.2193489
   2.9590468  20.6429653   5.9660783   2.2287135  21.2580700   5.8990679
   3.1681314  20.4196892   5.0590706  77.0063934   1.0774945  85.4818878
  76.1824646   0.6269369  85.6672821  76.7763367   1.7382509  84.8286591
  84.9927597  43.7993088  71.7260437  85.5059586  43.0547256  71.4122620
  84.2760315  43.4040642  72.2223358  39.7771645  23.9432640  41.3678055
  40.0569305  24.7371864  41.8234863  39.5215492  24.2449074  40.4960785
  48.0084114   8.6184902  30.3763142  47.1436768   8.9825945  30.1868668
  47.9523354   8.3295698  31.2871456  63.7185669  19.9512253  16.7601490
  63.5386620  19.0188560  16.8807869  63.3879547  20.3641300  17.5579166
  33.4395142  48.5745049   6.4754438  33.6255188  47.7450600   6.9155097
  34.2519875  49.0745277   6.5535054  44.0049095  63.8720741  73.6968842
  44.8063736  63.4430618  73.9966049  44.3061790  64.6828918  73.2869415
  15.8414936  30.5075836   5.2645216  16.6933460  30.4651852   5.6990108
  15.3145332  31.0766144   5.8255453  21.9974518  48.2349319  25.1910229
  21.0595875  48.0647659  25.1033554  22.0468292  49.0760765  25.6451931
  54.7153015  69.2770309  28.1999912  54.5431938  69.3533936  27.2614937
  54.9904823  68.3681107  28.3198547  15.7624550  67.9116898   7.9915137
  15.4018097  67.5592957   7.1778903  15.8331547  68.8532181   7.8341579
  53.9465218  20.5294380  43.1082191  54.7326393  21.0677319  43.0160942
  53.3017464  21.1134872  43.5074501  49.1576271  32.3092651  26.6932278
  48.9873276  31.4305305  27.0324287  48.3376617  32.5662956  26.2715397
  83.5008392  64.7969894  77.3743591  84.3416290  64.6323166  76.9475174
  83.3479309  65.7335358  77.2489700  45.6243553  60.1353722  14.4287825
  46.1244049  60.2622375  13.6225033  46.2716751  59.8369064  15.0676298
  79.3346863   4.5722184  55.5494995  79.4114990   4.0548778  56.3511810
  79.5268555   5.4689221  55.8237762  81.0199890  38.1849899  19.4033680
  81.2133255  38.6083755  20.2397900  80.0727997  38.0476608  19.4177227
  10.0559454  39.0354767  12.9095573   9.7988749  39.9002838  13.2293272
   9.4426069  38.8510933  12.1981859  24.7841206  12.4645748  64.6246338
  24.1315422  12.9862947  65.0917358  24.9386940  12.9460974  63.8119392
  28.8414249   9.1696329   0.7232031  28.5261841   9.9073114   0.2010106
  29.2011547   9.5721283   1.5136611  45.0921860  14.8480139  76.6794586
  45.1347542  13.9122705  76.8764496  45.1809578  15.2762947  77.5308838
  54.5249710  16.7582397  52.1547394  53.9763832  17.3140335  52.7082520
  54.0829201  16.7549477  51.3057327  53.8943787  50.2319565  32.9299698
  53.6485481  49.4672661  32.4093475  53.0621758  50.5851707  33.2444763
   4.3055825  24.8315525  12.4297047   3.4335265  24.9067230  12.0422783
   4.9019423  24.8415089  11.6810465  71.0073853  71.0287018  31.0355282
  70.6605988  71.8834610  30.7798882  70.2314148  70.5065842  31.2392235
  76.7547455  39.7262917  48.4219894  76.9639435  39.8920670  49.3412209
  77.3049240  38.9807396  48.1818237  21.5403461  55.4369469  30.7163086
  22.2630348  55.6335030  31.3123951  21.4921741  56.1988373  30.1388702
  28.0370235  54.5655289  52.4461174  28.5346661  54.2594261  53.2043266
  27.3498287  55.1184311  52.8179932  19.4603863  58.2899437   6.4827199
  18.5276031  58.4489250   6.3382430  19.6408710  57.4773483   6.0101242
   5.8407493   2.7804251  32.7369041   5.3216639   1.9801278  32.6574936
   5.5916924   3.3040116  31.9752884  74.1802444  28.4676914  22.1820259
  73.2738342  28.3549061  22.4682808  74.1873474  28.1508846  21.2788010
  33.1082077  25.4909821   1.8084129  32.5284653  24.8576889   1.3852453
  32.5729713  25.8812714   2.4993751   3.4095528  43.0094528  82.3459702
   2.9650428  42.4038162  82.9391403   2.7152100  43.3385811  81.7751846
  13.0784473  51.9261856  56.5191002  12.3840723  52.5529022  56.3158684
  13.7024212  52.4232483  57.0480766  79.9240265  21.9387703  82.0935287
  80.2981339  21.1015244  82.3679276  79.8449097  22.4426994  82.9034882
  58.5763550  53.1984253  40.6100655  58.0790100  52.8596306  41.3544426
  59.4805489  53.2335777  40.9222031  47.4507484  56.5331039  40.0815620
  48.1742439  57.1311035  40.2691307  47.8461075  55.8352699  39.5591125
  20.2167358  68.2686996  84.5378952  19.4266319  68.8024979  84.4540710
  20.5157814  68.1404877  83.6376877  25.1673965  44.1380157  61.2268829
  24.3297195  44.5929298  61.3139725  25.6095753  44.2883224  62.0624161
  84.3663483  46.6570282  61.2003059  84.2457809  45.7199211  61.0469246
  84.5945435  47.0128746  60.3415070   6.6974545  14.8597345  60.3462029
   7.5107737  14.8797970  60.8505249   6.5513406  13.9314299  60.1641769
  62.4643707  31.2261677  73.0367584  62.8245697  30.5555954  73.6171188
  61.7113419  30.8049145  72.6223602  12.8806725  41.2721062  46.8564682
  13.6127920  40.9294243  46.3438225  13.2725115  41.5301056  47.6908112
  60.8125763  22.0671978  10.0066948  60.8926468  21.4129505  10.7007999
  60.5142174  21.5718460   9.2439108  42.1132393  54.9520683  41.1586685
  41.7770500  54.2908363  41.7636337  41.4567528  55.6484566  41.1760368
  33.1460457  16.1721497  66.0253296  33.5959358  15.3650427  65.7755127
  33.7640572  16.6224842  66.6010818  50.7684937  42.3185959  50.1032600
  51.0248299  41.5088272  49.6618996  49.8115845  42.3109131  50.0810356
  67.4494171  54.1164436  27.9367294  66.7421570  54.1796646  28.5786190
  67.0164871  53.8369904  27.1300659  46.3151665  40.6918716  25.7240944
  46.3546715  39.7357674  25.7010651  45.4297028  40.9022141  25.4275475
  53.4504471  46.4549522   2.9955406  52.7476120  45.8647270   2.7237065
  53.6914177  46.1530724   3.8713453  64.8951645   3.2908988  62.0370827
  64.5489655   2.6478493  62.6558418  65.0117264   2.8012421  61.2229080
  78.8367004  44.0765381  61.6078758  79.3741074  44.7729187  61.9853439
  78.2081604  43.8592186  62.2963104   7.8108139  27.9423275   9.6112385
   8.1116228  28.8395748   9.4673910   6.9916348  28.0392933  10.0968046
  50.3734856  25.2878265  42.4765701  51.3125496  25.3426399  42.6537285
  50.3152199  25.1665230  41.5288773  26.9417591  42.8121719   2.7236056
  27.4858894  43.5048409   3.0982585  27.3502007  41.9992981   3.0213342
  23.9229736  29.8595257  78.4251709  23.4075184  29.1989765  78.8880005
  24.7527962  29.4234467  78.2316284  79.1487656  13.5128193  24.4610596
  79.8461914  12.9190025  24.7389278  78.3470078  12.9967985  24.5455685
  19.9562054  26.2674446  61.6988297  19.2010937  26.1666584  62.2783813
  19.5790901  26.3164005  60.8204117  35.1043739   8.1134081   1.0425117
  34.3811913   7.5357127   1.2864552  35.8924637   7.6112223   1.2497729
  51.8811035  62.1232719  15.1667681  51.8234062  62.8169556  15.8238106
  52.4389000  62.4892998  14.4803858  67.5805283  42.7194748   5.7822461
  68.3040390  42.3945999   5.2463250  67.8633270  43.5892754   6.0645590
   0.3229959  45.4169273  43.9878349  -0.1943366  46.1545143  43.6644669
   0.3783858  45.5592270  44.9327774   1.3660401  57.8347588  33.8107185
   1.4976310  57.4479599  32.9450989   1.9748238  57.3628578  34.3789825
  84.3425827   7.6043854  82.7505264  84.3660583   6.7272773  83.1330948
  84.7995911   8.1552210  83.3861008  17.0868492  63.9012642  28.6217117
  17.6605568  63.6049995  29.3283367  16.3910027  64.3861084  29.0655060
  69.2022400  44.4347839  37.4929047  69.3147812  45.2497063  37.0035515
  69.9729080  44.3867149  38.0585823   1.6714302  63.3255348  82.0955276
   1.3397094  63.2910652  81.1983032   2.6178668  63.2143250  82.0054016
  62.7260208  26.5795803  72.7873001  62.2475929  26.6178989  71.9591293
  62.0631866  26.3430443  73.4360962  38.0736351  31.0995617  54.4790916
  38.2802315  31.0278759  53.5472069  38.8986244  31.3613415  54.8878670
  68.1887207  69.7747345  54.5802727  68.2027283  70.7316895  54.5968094
  69.1112595  69.5223160  54.5422440  44.9453621  55.8813362  10.4090910
  45.3083305  56.2432365   9.6006880  45.5679512  55.2019768  10.6680956
  40.2211571  64.0649719  84.1575241  41.0441246  63.9172401  83.6915436
  40.4617348  64.6220703  84.8977890   6.1482234  65.1111908  74.0175476
   6.7166548  65.1722183  74.7852707   5.6866241  64.2797928  74.1267929
  50.5438652  23.1729641  85.4377365  49.7623215  23.2745571  84.8945084
  50.6388435  22.2266788  85.5461578  16.7247238  12.4696350   7.0569215
  15.9383221  12.6853952   6.5556726  16.6835041  13.0400372   7.8244982
   4.4921999  43.2355995  59.8581810   5.3212991  43.3478355  59.3931770
   4.0385318  44.0706787  59.7438812  18.6336670  55.4767570  21.3385239
  18.0167103  56.2065468  21.3933201  18.9376049  55.4877052  20.4309254
  48.7204208  29.6867466  28.3076191  49.3179817  29.2613487  28.9225903
  48.2368088  30.3174763  28.8410339  85.2117920  62.2679214  56.1637840
  86.1617126  62.3092079  56.2741470  85.0658951  61.4828720  55.6359138
  21.7003860  37.3525848  78.5674286  22.1318779  37.8819618  77.8967514
  20.7666016  37.4357376  78.3741302  10.2489758  21.1512890  10.4022026
   9.3347263  21.4033966  10.2725115  10.6662388  21.3205585   9.5575304
  75.1772842   7.3653936  62.4120026  75.5779572   6.9574718  63.1796570
  74.6855621   8.1072664  62.7642288  57.0413742   3.5447352   7.6353831
  57.1105995   2.6054668   7.4644608  56.1483459   3.7703893   7.3749781
   9.6959887  13.1566896  79.1499176  10.1214895  13.3913374  79.9746094
   9.7998428  13.9317017  78.5978241  73.9756622  51.9460564  87.0209427
  73.1304245  51.5293694  87.1887970  73.7909546  52.8846474  87.0549850
  19.9995308  70.5447693  51.7647095  19.6388683  69.6839142  51.9770317
  20.4747791  70.8064804  52.5533028  16.1189651  18.9088459   3.9968040
  16.6058598  18.1347351   3.7141118  15.2969618  18.8664227   3.5081897
   6.5166273  60.7185860  40.0335388   7.0346832  61.5234528  40.0274200
   5.8110933  60.8831062  39.4079323  57.6080818  65.0023346  32.7879372
  56.8702011  64.5288315  33.1720657  57.5884972  65.8605576  33.2113800
  13.2755270  10.1127129   2.2473831  14.2177324   9.9992790   2.1224298
  12.9098969   9.2373447   2.1198020  52.0230827  29.4623871  61.2876320
  52.0750771  28.8542595  60.5502663  51.2128906  29.2238922  61.7381172
  77.4262466  55.9706154  56.1160278  76.6698380  55.3967133  55.9947128
  77.3931503  56.2183876  57.0400124  74.7059860  14.7445879   5.1573329
  73.8576279  14.5622606   5.5614057  74.7549133  15.6999464   5.1237545
  58.3726387   6.7327213  82.3377380  57.4453087   6.9664168  82.2968216
  58.4306717   6.1086445  83.0611954  21.2260418  55.1138725  88.4334335
  21.0373077  54.4395256  89.0860138  20.3703194  55.4846153  88.2177429
  78.1447372  42.7357178  22.9881516  77.8985977  41.9425087  22.5122681
  78.9898376  42.9863586  22.6150284  39.7641563  19.4955025  78.4186630
  40.6369705  19.2715702  78.7415924  39.8988113  20.2822762  77.8903732
  32.4685860  21.6220818  88.5716858  32.9442673  20.8883438  88.1823425
  32.3672066  22.2488956  87.8554001  40.5245705  28.6648979  67.5910873
  39.9343109  28.7126083  68.3431168  41.2149658  29.2980099  67.7879410
  28.4499626  44.9158669  61.2031708  27.5602646  45.1968079  61.4170418
  29.0010777  45.3488045  61.8551445  68.0938034  25.8774853  73.1630859
  67.6113968  25.7991180  73.9861145  68.8488922  25.2993889  73.2720718
  45.9747581  11.7133932  69.4331665  45.6145439  12.5422268  69.1177063
  46.7839890  11.9591160  69.8814850  73.9658890  55.5702934  52.7509918
  73.0168152  55.6405716  52.8537216  74.3147354  56.3244171  53.2262115
  68.6378555  22.9509583  23.4714985  67.7411652  23.1974277  23.6982841
  68.5493851  22.4381237  22.6681271   2.8618994   7.0442805  16.2274036
   3.2843392   6.2303395  15.9530363   2.5061917   6.8490973  17.0943565
  47.0092354  64.3607864  42.2360725  47.5400696  65.0432434  42.6467972
  46.6982346  64.7567139  41.4219742  21.2797222  20.9424133  11.0246725
  22.0075207  21.3358860  11.5060472  21.1314220  20.1024990  11.4591656
  75.5345383  64.5791397  36.9642944  75.7815170  63.7214432  37.3101082
  75.5467072  65.1574402  37.7269554  55.5902519  36.1301575  49.8296051
  55.1156807  36.9467239  49.9852638  55.0920334  35.6912727  49.1401253
  82.2902145  27.6520023  39.5223961  83.0520554  27.4287128  40.0571594
  82.1337128  28.5787735  39.7036057  56.2184219  14.5414181  82.9270782
  56.1246758  15.4167309  83.3029327  55.7847557  14.5986452  82.0756683
  75.2653961  38.3006973  77.1629257  74.4054871  37.8860245  77.2324371
  75.5463715  38.4229317  78.0697556  60.2000885  65.9987488  12.2204266
  60.8175125  66.7278442  12.1618500  60.4062653  65.5767059  13.0544567
  58.9541969   1.8564271  75.1057968  58.4350815   1.0830561  75.3263626
  59.8605957   1.5866725  75.2538071  51.2364197  66.9972687  71.1237259
  50.7782516  66.8766251  70.2920074  50.5832787  66.7838440  71.7901306
  60.2020035  36.4620399   2.6968110  61.0742073  36.1193047   2.8918099
  60.2525177  37.3899879   2.9261551  46.7823372  68.8619003  32.1201782
  47.0704460  68.1464615  31.5532799  47.5658340  69.3967819  32.2477493
   0.8128761  14.2220144  87.7588425   1.3336420  13.5272198  88.1617050
   0.2899503  14.5768852  88.4777603  63.5266609  19.4839859  78.6712494
  62.9928207  20.1592045  78.2525330  63.3264694  19.5644798  79.6038132
  68.0704346  21.3021774  21.2329330  68.2519608  21.6662560  20.3664894
  67.1717300  20.9781609  21.1730976  17.6349735  32.1661835  76.0829010
  18.2172089  32.9134178  76.2202835  17.2132835  32.3425636  75.2418900
  43.2713242  32.1209755  58.3329315  42.6903534  32.3709679  57.6144600
  44.0201836  32.7116508  58.2520065  12.9373131  40.3016129  40.5122795
  13.1730919  39.6393051  41.1618805  12.1543646  39.9518738  40.0869484
  77.1094971   4.6155438  33.5861664  76.5117874   4.5195293  32.8447075
  77.4774628   5.4933867  33.4850655  64.4412994  12.7311344  46.4804497
  63.7927132  13.4350977  46.4804306  65.2432556  13.1443310  46.1604996
  66.2489853  32.5160789  81.1848755  66.4871979  33.4425812  81.1520462
  66.0626907  32.2842903  80.2750397  28.5143433  57.5106316  24.0230618
  28.6711998  57.6981621  24.9485130  27.5612812  57.4666901  23.9457741
  69.2915802  67.1060333  40.6513252  69.4585800  67.8933716  40.1332054
  69.5297318  67.3524780  41.5450706  69.8337250  41.8314362  61.2053146
  70.0354080  42.7652054  61.1450348  69.3055420  41.7512703  61.9995575
  54.0176773  71.3300552  84.8823395  53.0711784  71.1994171  84.8248444
  54.3904305  70.6052322  84.3804245  61.0691223   6.9829788   3.8561158
  61.0755272   6.3823338   3.1108534  60.2082596   7.3999500   3.8202837
  51.6370201  18.0151234  19.3081989  52.3584595  18.5687637  19.6069336
  51.3028069  17.6058655  20.1063480  25.8988190   8.4474516  66.0569611
  25.5736046   7.5606799  65.9017029  25.8330917   8.8792152  65.2052002
  11.4390087  17.7594719  74.7142487  12.2435999  18.2504616  74.5475311
  11.1433678  17.4825363  73.8469925  26.2058411  56.8963165  88.1780090
  25.4450226  56.3191795  88.2435989  26.1119080  57.5010262  88.9140396
  17.0328693  50.8194962  70.3123550  17.6340580  51.4409027  69.9016724
  17.5719509  50.0500145  70.4954376  33.7899170  46.4556618   1.7100278
  33.1956863  46.7754669   1.0311689  33.2129745  46.0887146   2.3798938
   4.6423883  38.2083359  52.6993904   4.7492318  38.5256233  51.8026466
   5.0349379  37.3353539  52.6929398  21.2346992   5.5962505  63.2118073
  20.6090984   6.2106662  62.8279457  22.0342617   6.1095905  63.3276253
   7.7605529  10.8247185  10.7469254   7.5743680  11.1304617  11.6346684
   8.7161741  10.8016405  10.6970434  12.7526207  38.4306679  49.5310249
  12.1161938  39.0622444  49.8661461  12.3580751  37.5765610  49.7072983
  71.3353958  68.0045090  42.5971298  71.0570526  68.3873825  43.4290924
  72.2789001  68.1625366  42.5644989  56.9682808  11.5989628  36.8982620
  57.2896118  11.3184423  36.0413589  57.7285385  11.9997692  37.3196869
  55.8101997  16.6168079  17.5744915  56.4427185  16.0084019  17.1924038
  55.3566895  16.9951954  16.8212414  61.8555603  66.8002472  28.5462837
  62.0297623  65.9537582  28.1347713  62.6673012  67.0146484  29.0059948
   9.5888882  20.8264275  82.0138397   9.2781515  21.5662193  81.4919357
  10.5139751  20.7421570  81.7828827  66.5139008  14.7829199  77.9031219
  66.6985550  15.6335802  78.3012543  65.6914062  14.5037050  78.3053360
  85.4326477  18.5077324  88.5832825  85.1406555  17.7310848  89.0605621
  86.0130310  18.1665688  87.9028549  25.6602859  58.6487885  45.9757500
  25.8838005  57.7197990  46.0327415  26.4965019  59.1030807  46.0786781
   2.3456056   7.1702166   1.8822856   2.6233199   7.5640755   1.0552536
   1.9281539   6.3473978   1.6274632  21.7069645  64.3661880  87.4450989
  22.6467152  64.5367355  87.3817139  21.3059635  65.0177155  86.8698273
  68.0146484  46.2309952  15.9708576  67.9035263  46.1405411  16.9172726
  67.5607910  45.4728203  15.6028671  75.0120468  22.6102085  83.0632477
  75.4339905  22.4878674  83.9136734  74.3528366  23.2867489  83.2180557
  50.7517509  62.3402061  38.1756096  51.6452026  62.2965927  37.8349075
  50.7688255  63.0650902  38.8004951  18.2136669   7.8798857  20.9448090
  18.9182243   7.2344756  21.0020618  17.4274998   7.4000030  21.2053585
  30.0644150  36.7389336  63.8392448  30.1768017  37.6406326  63.5383492
  29.1505070  36.6922760  64.1200027  31.5641994   5.5121951  66.5585938
  32.0438118   6.3375244  66.6295624  32.1509972   4.8604383  66.9421539
   7.3796763  31.9166889  23.9653358   7.7098870  31.5579681  24.7890549
   6.4776025  31.6011486  23.9112206  67.1164932  14.6257868  66.3084259
  67.5202332  14.5440578  65.4443970  67.3725433  15.4970646  66.6110001
  17.8967400  48.3689880  69.3483810  17.1418724  47.8573647  69.6393204
  18.5980339  48.1261520  69.9529037   4.6769166  57.4088287  26.6265717
   3.7347322  57.5776901  26.6288509   4.9839883  57.7756653  25.7974949
  44.5591774   2.6059008  72.4130630  44.4451408   3.2227471  71.6900635
  44.8692894   3.1446817  73.1409225  17.6641388  69.1185226  67.9294205
  17.3585377  68.2998047  68.3199768  18.4820194  68.8840561  67.4908676
  47.3354950   1.5010676  78.4166641  48.2348480   1.7805651  78.5877686
  46.9773712   1.3033683  79.2820511  67.5269241  34.5043182  53.2610931
  67.4580994  34.5346794  52.3068542  67.4811020  33.5724525  53.4750061
  57.0287628  61.0605240  45.9552689  57.9559326  61.2553368  45.8187599
  56.6216621  61.2252464  45.1047592  58.3243027  63.0764389  40.3383408
  59.1709633  63.0746574  39.8918076  57.7092781  62.7392159  39.6869888
  85.1467361   4.5948715   0.7839886  84.6959534   3.7961187   1.0578816
  84.6422577   4.9093575   0.0337718  33.9276047   5.1864748  81.9632874
  33.0473061   4.8139725  82.0137482  34.4219666   4.7254591  82.6410065
   8.7332335  25.2845879  87.1827850   9.4157753  24.9409142  86.6063690
   7.9513164  25.3226070  86.6319733   1.8485816   6.0421195  55.1215973
   1.3536004   5.4256225  55.6611862   1.1802042   6.5260806  54.6365356
  59.0756378  32.0528679   6.7696981  59.9496117  31.7020798   6.5983734
  58.7814064  32.3871803   5.9224110  29.2392521  11.0129938  68.0286865
  28.4732857  10.7851419  68.5555725  29.6612301  10.1738806  67.8441467
  56.6226501  52.2809334  34.4840736  56.6112823  51.6272125  33.7849655
  56.9756317  53.0684052  34.0699234  55.2340698  66.4708176  28.8979778
  55.3612251  65.6042023  28.5119190  54.3904343  66.4118423  29.3463478
  64.1803360  46.8452606  40.6171227  64.9824753  46.3305817  40.7060432
  63.5140839  46.2079086  40.3599663  68.9345245  24.1750278  29.6642284
  69.5616455  24.0789490  30.3809738  68.5421066  25.0369473  29.8032570
   3.9366496  43.9751167  15.3255730   3.5922952  44.8164635  15.0259266
   3.6152306  43.3423309  14.6833115  19.2908745  49.1150665  47.3125954
  18.3678932  49.0631676  47.0643196  19.3956165  48.4438400  47.9869232
  57.5422287  21.8587990  78.8152924  56.9363670  22.5766048  78.9994583
  57.5849152  21.8205795  77.8598099  77.0525589  46.6759033  46.1930428
  76.7726593  46.6763153  45.2776833  76.3270340  46.2673302  46.6651764
  11.4019794  36.1230240  55.8868179  11.1003094  35.9070473  55.0044441
  12.0267324  36.8367538  55.7583466  74.9328308  16.4488354  21.8684540
  74.1854782  16.4470901  21.2703800  75.2605896  15.5498114  21.8448334
  15.5569973  53.5202293   3.1717606  16.2740917  54.1521378   3.1198039
  15.3284512  53.3417740   2.2595370  10.4908094  13.8039446   9.2423344
  10.4514933  14.7426462   9.4254322  11.3069506  13.5143557   9.6501150
  40.7024345  65.8923264  65.6464157  39.7974625  66.1976318  65.5827866
  40.6903496  65.2542496  66.3598175  80.4765396  20.6864948   7.8798060
  80.2167969  20.2506599   8.6914787  80.0647125  21.5491829   7.9287901
  63.6628838   3.6201084  50.2909470  63.5400734   3.8052042  51.2220154
  62.9022789   3.0915241  50.0494728  62.9886742  61.3733902  68.7789154
  63.5504189  61.0240135  69.4707336  62.7989426  60.6192780  68.2207489
  48.5130768  70.5961609  74.9409332  47.6401901  70.3950272  74.6035156
  48.7626572  69.8176498  75.4387970  66.3849564  54.9749641  45.1114388
  66.9562683  55.6754608  44.7965698  66.9335938  54.1908760  45.0906525
   6.8742666  55.3641815   4.1120358   6.4392209  56.2127800   4.0292826
   6.6623464  55.0718193   4.9985156  54.9933014  10.2063875  31.1780472
  54.5749741  10.2961607  30.3217907  54.5159149  10.8142090  31.7427483
  22.7032948   1.1653430  25.3101482  22.7001534   2.0192330  25.7426910
  23.4700680   0.7181954  25.6684074  86.3820190   3.6849391  64.7494278
  85.8245163   3.9014924  65.4967728  86.1086578   4.2929716  64.0625534
  64.4794998  68.1667557  13.7767048  63.7377930  67.9357605  14.3359413
  65.1047668  67.4527588  13.9011116  63.6457443  20.6658192  22.3918133
  63.2762375  21.4478207  22.8019009  63.5864983  19.9903507  23.0674362
  37.1473274  48.5785789  41.6885796  36.4195557  49.1972542  41.6267815
  36.8897362  47.9745712  42.3850403   8.5489559  54.3848190  79.6734238
   8.7108212  54.2763710  78.7362671   9.4173880  54.3389244  80.0733643
  55.8966141  45.2387238  69.2731628  55.9099159  45.4969482  70.1947784
  55.0478783  44.8118629  69.1562500  51.0987701   2.7739825  81.4823074
  52.0114670   2.6422634  81.2256699  50.6105003   2.7334037  80.6600037
  35.5769119  55.5827408   9.0020895  36.3358650  55.0065460   9.0927629
  35.9459953  56.4659081   8.9965706  61.0946846  40.5167122  81.2628860
  61.5055008  40.1347427  82.0384903  61.6337814  41.2806625  81.0579834
  36.0435486  52.1592751  69.0588913  36.0988045  53.0278549  69.4573135
  36.0123558  52.3291779  68.1174011  66.2067261  24.9898071  69.7574081
  66.1514435  24.4844685  68.9463501  66.5307617  24.3657265  70.4068298
  59.7224503  58.2739487  35.5030708  58.9367332  58.7103462  35.1737671
  59.4110374  57.4251976  35.8175163  14.4184532  66.8290558   5.6791067
  14.6435757  67.5405579   5.0796728  13.8366175  66.2633057   5.1715379
  58.6447563  39.3488464  49.7400475  58.8531685  39.1295586  48.8319130
  58.5644493  38.5018234  50.1786041  44.4541664  60.3977165  10.6563807
  44.6122093  59.7730560  11.3642292  44.9136887  60.0271568   9.9028854
  83.2239456  44.5329094  32.6299324  83.7282257  43.7661285  32.3579330
  83.8530655  45.0780258  33.1024666  47.2982025  49.7588120   5.5188837
  48.0879059  49.6192055   4.9962816  47.0471153  48.8829193   5.8121400
   8.4702091  59.8869743  70.8554764   7.7734318  59.2812614  70.6028061
   8.1045637  60.7557030  70.6885986  38.5125008  37.9664650  80.0058517
  39.4132652  37.7938843  80.2798386  38.4555321  37.5979652  79.1242676
  52.3902893  60.1540909  82.4617920  53.2161713  59.7587967  82.1826859
  51.7950821  60.0099220  81.7261429  23.1587238  13.6967459  28.9049454
  23.0973072  13.6076918  27.9538784  23.7139034  12.9665651  29.1785221
   4.6605678  70.4063187  73.8621750   3.7228332  70.3920288  74.0537033
   4.9620934  69.5232697  74.0755844  80.5064774  51.6866646  42.2078705
  80.1786118  51.1531105  41.4839516  80.0254822  51.3729057  42.9736595
   0.2818353  68.0797195  37.9638863   1.2299402  68.1892395  37.8908539
  -0.0264980  68.9050598  38.3380203  40.9711304  55.8245468  26.8364372
  41.7244759  55.2794151  27.0634499  40.4736710  55.2973099  26.2113056
  10.9102573  60.1024551  10.7912931  11.6904793  60.6341553  10.9487104
  11.1539450  59.5287552  10.0648546  18.1034641  10.4318457  64.3890305
  18.9282990  10.6435747  63.9519310  17.4792118  10.3057394  63.6744385
  79.1995544  22.9098148   8.0607481  78.6120605  22.9905205   8.8121252
  80.0275803  23.2829952   8.3629704   9.0756187  56.9274292  64.3508987
   8.3103714  56.5779076  64.8074799   9.7509069  56.9875641  65.0266266
  84.9370270  48.5975304  86.5238342  85.0282593  47.8305779  85.9584198
  85.2138748  49.3326416  85.9768448  65.4096527   9.3658028   8.2860308
  65.0171738   9.0039148   7.4915323  65.0276413   8.8517952   8.9974327
  43.7676506  49.7198067  65.3704300  43.8925476  50.6610870  65.2495193
  43.8346596  49.5888405  66.3162537  65.6303024  45.2595139  67.0937881
  66.1949081  44.5963707  66.6966705  65.8686066  45.2529793  68.0208282
  37.8311195  68.2943192  45.6072731  38.1541862  68.4267883  44.7160339
  37.4118996  69.1239166  45.8358574   9.6620636  25.7687683  25.7625275
   9.3007708  26.1090641  24.9440536   9.1226950  25.0037441  25.9626522
  86.5976944  35.1655121  84.9702225  86.1262054  35.2639732  85.7974091
  87.1511765  34.3954582  85.1002045  33.4992027  53.4011307  50.3666382
  32.9745827  53.9283180  49.7640762  34.2048607  53.9854164  50.6439285
  13.6634779  66.7983627  37.9512329  13.5044880  65.8853226  38.1906242
  13.9305344  67.2174530  38.7693253  30.1178341  64.6476974  25.8032150
  29.6833534  63.8206024  25.5949669  31.0462456  64.4223175  25.8622646
   1.1200881  15.7516375   2.9593787   1.0424753  14.8204050   2.7519774
   0.4654118  15.9004393   3.6416459  48.7653809  27.9435177  81.2236099
  49.1391068  27.1342812  81.5724640  49.5192451  28.4332619  80.8948746
   0.4553085  26.3872337  56.7470207  -0.3949149  26.2763119  57.1725197
   0.2575227  26.3777313  55.8105278  76.5578995  43.7326241  25.0346947
  77.2019196  43.4287491  24.3950653  76.9604950  44.5050850  25.4315014
  63.9799728  45.3531380  44.0987587  63.6053505  45.3920021  43.2187691
  63.2606468  45.0487556  44.6520691  61.5009346  37.5315399  88.0974960
  61.3279228  36.6124535  87.8935776  61.9520836  37.5088196  88.9414062
  20.7021217  38.5278893  72.3954163  20.7397556  38.3325882  71.4591141
  20.1086140  37.8680649  72.7540512  24.2447262  58.6562538  84.0585785
  24.2913113  57.7031174  84.1333771  23.4072323  58.8873825  84.4603424
  53.5394478  70.4727554  12.2584839  53.1098747  70.6531601  13.0946379
  54.4313774  70.8012161  12.3716640  67.4658127  56.5565758  81.7272034
  68.1035309  55.9747009  82.1406937  66.8146973  55.9668465  81.3470688
   1.1821374  41.2035942  49.0478401   1.1083856  41.8531837  48.3486824
   1.0335644  41.7000160  49.8526535  54.8305473   0.4042273  32.3044395
  54.0538902   0.5009003  32.8555222  54.5343437  -0.1248575  31.5637875
  79.2223587  35.2667503  33.4713364  79.1017914  35.3084526  32.5226746
  79.7016907  36.0666580  33.6872520  47.5490875  55.9537010  36.3281746
  46.6199341  55.7574196  36.4480782  47.9762993  55.5659790  37.0919724
  35.1140594  45.7057495  33.9498634  34.7763939  45.9498329  33.0881042
  35.7084122  46.4183235  34.1848450  42.5366859   7.3411860  88.3276520
  41.9518623   6.6772451  87.9624176  43.3109665   6.8517013  88.6053696
  41.2890968  59.0431595  73.2238159  41.1193733  58.1114578  73.3629456
  40.5791168  59.3330193  72.6509781  78.5007858  34.6264153  79.9401627
  78.5845184  34.0920563  80.7298965  77.7585907  35.2037582  80.1192017
  61.2214432  33.9146843  20.5260220  60.8446884  34.7932663  20.5748558
  61.7122574  33.8188477  21.3422012  49.5164452  52.4277916  23.7167873
  50.2133369  52.7424469  23.1409683  49.9075699  51.6904449  24.1853733
  73.6476288  27.5562916  55.3406487  73.9423523  27.3877106  54.4456902
  72.7334747  27.8236599  55.2454147  58.2185173  13.6897173  57.9627495
  58.2802200  14.4817781  57.4288330  57.6175613  13.1219196  57.4803696
  56.3787231  50.4088173  80.2565613  56.1703987  50.0832863  81.1322708
  57.3351440  50.3999405  80.2189865  76.2043610  69.8324966  20.8918362
  76.2631760  68.9076080  20.6523418  75.2746658  69.9752808  21.0693684
  68.8945312  26.8043900  30.1042347  68.1277542  27.0844994  30.6040611
  69.6182022  26.8521900  30.7289352  36.9929695  46.3861809  30.7772446
  36.3807297  46.4091644  30.0418110  36.7379265  47.1289330  31.3245144
  55.2180214  59.8747292  24.8998280  55.3678551  59.2621956  24.1797028
  55.7516403  60.6383018  24.6797276   5.4823680  24.7004738  67.6400833
   4.5701213  24.9557533  67.7774506   5.4340277  23.7956104  67.3316727
  54.2461090   7.4056053  84.3996201  54.8040924   7.0120444  85.0704346
  53.4144249   6.9378204  84.4752045   5.4889712   9.6674614   4.4723735
   4.6694813   9.7889709   4.9518557   5.7323623   8.7571898   4.6408944
  82.1412277  24.9779701   2.9962788  82.3873367  24.8091621   3.9057655
  82.5083389  25.8410416   2.8050528  56.7007141  24.4478760  85.2112808
  57.3890610  24.6039200  85.8578491  55.8892670  24.4545479  85.7189636
  75.8267136  33.7815895   1.5626709  76.4106445  34.5399132   1.5486648
  75.7325897  33.5347481   0.6426482  17.1284466  27.2725468  68.1424255
  17.8006229  27.2815495  67.4610062  16.7902374  28.1678867  68.1570740
  41.2405815  21.0575905  55.6393394  41.4252472  21.7339821  54.9877052
  41.7687263  21.3055115  56.3981743  54.9958115  19.0446415  78.9524994
  55.8013191  18.5275650  78.9480133  55.1161804  19.6816425  78.2482452
   1.9050561  16.2727375  66.4799805   1.1255236  15.7566328  66.2745667
   2.6333418  15.6619806  66.3668137  76.2942123  45.7322197  81.3684921
  76.9105148  46.3843765  81.7017899  75.5412140  46.2436218  81.0723572
  41.5082932  33.9325066  39.7287483  40.8492317  33.8095093  40.4119301
  41.3433189  33.2241211  39.1064873  84.9875259  28.3883419  35.5545235
  85.4171219  27.5975151  35.2285271  84.2237473  28.0660667  36.0330849
  39.3286705  47.6033096  73.1609497  40.1851082  47.9413795  72.8993073
  38.7799072  48.3827362  73.2480240   2.1135120  65.4361038  83.4242096
   1.7643516  64.7217941  82.8912201   1.3508190  65.7865219  83.8843613
  64.7447739  27.1463795  44.3205032  64.9802856  27.2040443  43.3945236
  65.5464554  26.8533669  44.7537384  17.4900932  32.9855003  81.4744415
  17.7246513  33.0079422  80.5466995  16.5708828  33.2516479  81.4955978
  22.3191757  46.5057220  60.2585907  22.4480572  47.3864861  60.6105499
  22.7535706  46.5226402  59.4058037  63.1732788  69.5039368  83.1842270
  63.1264343  69.2382431  82.2658310  62.3356323  69.2281265  83.5563812
  73.3603897   4.5418358  72.8619385  72.4272690   4.7521152  72.8980179
  73.4978180   3.9364235  73.5905151  76.2442169  36.0408783  32.8575287
  76.0610504  36.0289612  33.7969627  77.1367340  35.7030602  32.7832222
  78.2831268  33.5143776  60.4642868  77.7814941  32.7444496  60.7322464
  79.1020126  33.1585426  60.1192703  81.4469604  55.6106071  53.6097450
  81.7731018  54.9975204  52.9509697  80.5596008  55.3069191  53.8010750
  23.3662148   7.2776027  63.6788940  23.5073566   7.9853401  63.0500717
  23.0508919   7.7178416  64.4681931  11.5411024  36.8603897  83.1699066
  11.3521061  36.0518608  82.6936798  12.3948603  37.1393089  82.8389511
  41.4994354  30.5710106  84.2121887  40.8696976  30.3917713  84.9104233
  41.5894051  31.5239697  84.2096176  34.5392723  64.8360291  58.4356651
  34.3605461  65.1918793  57.5652275  33.8798866  65.2401886  58.9996681
  46.2042732  46.2532425  79.3259735  46.4419823  45.7530785  80.1067200
  46.4442062  45.6841278  78.5946960  49.9620857  57.2757950  70.2501526
  49.6280556  57.2661972  69.3531799  49.2683754  56.8679047  70.7684479
  49.9158287  22.5610619  16.1648331  50.7154884  22.6205578  16.6875553
  49.9884720  21.7216091  15.7106609  58.5517540  38.8059082  21.9225368
  59.3097000  39.1620750  22.3861084  57.9098320  38.6321907  22.6110058
  30.6476116  10.8635731  75.2778931  30.9919205  10.3892975  74.5210953
  31.4248943  11.2017574  75.7225266  68.9626923  61.4536781  83.7326202
  69.1934128  62.2515869  84.2083817  68.1766739  61.1308746  84.1733017
  54.6484413   3.5891387  86.9623108  55.0903625   4.4066124  87.1918182
  54.0300102   3.4420907  87.6779556  36.3983955  26.8790970  67.1195602
  35.6589355  27.0604877  67.6996765  36.0258408  26.3484268  66.4154129
  13.8745289   5.8145490  75.6551361  13.3914089   6.4158754  76.2219086
  13.2030926   5.2388730  75.2890701  61.2303963  68.7830963  19.3861656
  61.2815781  68.8962173  20.3352795  61.7199097  69.5244827  19.0298557
   6.6939306   8.4011469  83.3022461   6.8511071   9.0308399  84.0058136
   6.5865054   7.5624981  83.7509766   0.5990179  36.3869972  60.4320793
   0.6965222  36.7266083  61.3216820  -0.3303744  36.1698837  60.3591194
  32.4896317   5.8438449  36.4049606  32.6890373   6.5025268  37.0702477
  32.1607628   6.3474398  35.6603317  62.6855774  48.8285942   7.8698401
  62.5795403  47.9367752   8.2009678  63.5910568  49.0563164   8.0807562
  21.8864250  16.3337822  86.1766357  22.6573334  16.8394012  85.9191895
  21.1906452  16.9853878  86.2634201  43.2168961  65.6870346  67.1842346
  43.2731323  65.0396652  67.8870697  42.2777290  65.8193130  67.0550232
  70.9707565   4.9284606   3.4129024  70.3880844   5.2299137   2.7158687
  71.3723907   4.1334949   3.0622642  20.5751362  47.2415771  20.2963905
  20.3701401  48.1704369  20.4033051  19.8027496  46.8737106  19.8670578
   2.3105109  36.6340141  52.1969681   1.8323336  36.6930275  53.0240669
   2.9922609  37.3023300  52.2662430  13.0065250  60.0444946  81.7567139
  12.2084303  59.7855644  81.2960281  13.6850328  59.4701881  81.4017029
  38.4862976  47.8043747  18.1531048  37.7930183  47.4011993  17.6305676
  38.0964394  48.6130829  18.4851151  78.0591202  25.9626045  14.7350550
  77.1941910  25.9674759  15.1450577  77.9404984  25.4559441  13.9316530
  44.5130043  59.6341629  73.2072296  44.5681458  58.7457085  73.5591354
  43.9410820  60.0987244  73.8182297  85.4745483  39.2230110  10.2388449
  86.0668259  39.2552528  10.9901066  84.6057205  39.1075592  10.6236019
  75.3463287  15.2189894  41.7590752  76.2369537  15.5088615  41.9565582
  75.2010880  15.4915771  40.8530769   8.6112337  37.4988365  69.4285202
   9.0145454  36.9951248  68.7215271   7.9407125  36.9163132  69.7853165
  34.2834091  58.5279083  53.7209473  34.3007278  58.9986458  54.5542145
  35.0690956  58.8247375  53.2617950  75.6468277  59.9505234   8.2857132
  76.3662567  59.3312798   8.1624823  75.2639236  60.0493660   7.4140205
  26.8125725  67.8058472  68.8366623  27.0829048  67.8535919  69.7536545
  27.6270370  67.8955994  68.3418732  41.7331848  49.5460052  71.8758316
  42.6031189  49.8038063  71.5708923  41.8740005  49.2422409  72.7725677
  52.2593422  62.6934204  42.7261887  52.1807060  62.6114845  43.6766281
  51.3570099  62.6659431  42.4079552  18.9104576  52.9564972  82.3505402
  19.7339439  52.6170883  81.9999619  18.4070091  52.1749687  82.5785446
  79.0865479  33.2559166  40.6615181  78.4518356  32.9895020  41.3266449
  79.9356918  33.0103760  41.0287971   7.9548140  65.7278976  29.2782040
   8.8849745  65.6054688  29.4680595   7.6578832  66.3598785  29.9329300
  84.2264709  62.7053032  30.7412128  83.6868057  63.4739532  30.9260654
  84.0045929  62.0843887  31.4350910  26.2414188   5.3502374   3.5704486
  27.0217628   5.8898106   3.4433463  25.9063244   5.2016754   2.6862128
  25.8235416  49.2783356  74.8638535  24.9426537  49.3192139  74.4915619
  25.6843739  49.0570221  75.7846603  85.4255829   5.3555398  84.2949295
  85.1050873   4.4764652  84.0930786  86.0959625   5.2182460  84.9642258
  15.7371120  70.0064850  16.2557755  16.6857834  70.0579681  16.3724155
  15.5633526  70.5290070  15.4728270   3.3290820  15.3397207  70.7870178
   2.8107469  14.5381851  70.7155991   4.0909138  15.1827984  70.2291489
  61.4799652  46.4154778  38.6873703  60.5472488  46.4133072  38.4722672
  61.5371361  46.9177017  39.5002251  39.5236397  57.9470215  12.9661341
  39.2954407  57.0178337  12.9937515  39.6929779  58.1793022  13.8791523
  18.9725647  65.1056900  72.5093994  19.5164375  65.5034485  71.8295364
  18.6051178  64.3246231  72.0957031  65.2287674  59.0654449  10.9992914
  65.8102341  58.4985924  10.4925327  65.6536331  59.9229698  10.9799891
  14.2253485  40.0422173  15.5623131  15.0008879  40.2119598  15.0275631
  13.4890795  40.1733551  14.9648647  54.1690674  42.1009293  71.9134521
  53.3757858  42.4262619  72.3390045  54.8383751  42.1342201  72.5969391
  71.4508133   7.2895117   4.9884229  71.1417542   6.6349950   4.3620677
  72.2410889   7.6508017   4.5869679   2.0236645  24.5146809   7.1723080
   2.6400321  23.8122902   7.3795996   1.9697788  25.0311127   7.9764385
  29.9689026  66.4749527  12.4087954  29.9558468  66.5246124  13.3646173
  29.1001434  66.7750092  12.1414814  47.4030380  65.6930847  27.7520218
  48.1914902  66.2269821  27.6544304  46.7489967  66.1298065  27.2063675
  47.0087280  45.9545784  67.2951126  46.0838013  46.1679878  67.4183884
  47.0402985  45.5048790  66.4507217   1.2081101  43.9436035  37.3561249
   1.7690201  43.6146660  38.0585594   0.3434595  44.0254364  37.7585106
  67.6911469  36.7412872  17.7745190  66.9715042  37.3355331  17.5618877
  67.5222168  35.9616280  17.2455311  41.9596596  40.2002106  77.3228607
  41.4151955  40.8427124  77.7778168  41.6567497  40.2293243  76.4153214
  26.8375187  50.6367569  16.7986698  26.5138245  50.2628975  17.6182308
  26.3277454  50.1981392  16.1175098  72.7009811  64.5933456   1.5732150
  73.0742188  64.0919876   0.8482543  72.1035309  63.9823303   2.0044212
  41.2786484   3.9304287  37.1173439  40.6520615   3.2575240  36.8512230
  40.7581177   4.7313275  37.1793098  34.3903618  20.6253948  81.5050888
  34.3889847  21.5821934  81.4774170  35.3099709  20.3839035  81.3944778
  63.6277847  41.5182343  44.9917068  63.7429085  41.3300056  45.9231300
  62.6913986  41.3946495  44.8363304  67.6668549  32.5183792  25.6006050
  67.8326340  31.7500286  25.0543575  68.2831726  33.1771889  25.2806759
  10.4692545   5.8730898  16.1677780   9.6116533   6.1069975  15.8127575
  10.7814932   6.6747208  16.5874519  60.3259773  15.5121412  21.8466320
  59.6409645  15.4144964  21.1852264  60.2232208  14.7470789  22.4126301
  73.0950546  23.9666386  38.5845833  73.5000916  24.8322544  38.6382866
  73.7845383  23.3621254  38.8591957  73.0114365  20.3611603  21.1571693
  73.6351395  21.0787697  21.2678719  73.4173813  19.7893581  20.5056496
  15.9403057  36.5918770  31.5414257  15.5643539  37.4185028  31.8440456
  15.1907578  36.0014076  31.4655685  83.4571609  13.7084980  23.7426777
  82.8548126  13.9132738  23.0275021  83.3716278  12.7629490  23.8645458
  47.9814873  50.1367531  83.6686172  48.9183846  50.0907288  83.8592453
  47.7913017  51.0739403  83.6269531  66.2499695  67.0855713  69.0371323
  65.6743393  66.4241028  68.6532822  66.4950790  67.6460724  68.3009338
  67.8765717  40.4052048  65.5716553  67.5967941  39.6827507  66.1338043
  67.0603104  40.8019180  65.2674179  38.7414513  23.2531967  73.5548172
  39.2843666  22.6704464  74.0857391  37.9653435  23.4128227  74.0918579
  70.0483551  60.4705658  54.6107826  70.8770218  60.3350754  54.1512337
  69.4328308  60.7271156  53.9240952  38.6404457  10.4377985  57.5956383
  38.5163460  10.2756214  58.5307999  39.3534279   9.8510790  57.3433456
  61.1545677  44.1170464   8.3989058  60.6736069  43.3008461   8.5357370
  61.0811234  44.2836761   7.4591866  52.5114594  69.3754349  34.9177628
  52.6588211  70.3121033  34.7867203  51.5622368  69.2928162  35.0093155
  86.0945663  51.3177223  76.4523849  85.5696487  51.4008179  75.6562729
  86.8285828  51.9174347  76.3189774  84.5843658  26.3080883  40.1967506
  84.8207703  26.5785561  39.3095131  84.8121719  25.3790836  40.2326431
  19.7460632  34.1423111   4.8239059  20.6174221  34.4501610   4.5745168
  19.4584122  33.6105881   4.0817752  66.8826065  34.5959015  29.2408638
  67.0504379  35.3223686  28.6406021  65.9958115  34.3071327  29.0253773
   4.4105258  32.4750023  70.5635605   5.0881119  32.7281494  69.9366455
   3.5887873  32.7298927  70.1440277  81.6408310  61.9716377  55.8208618
  80.7618332  61.8565788  55.4598122  82.1535034  61.2619743  55.4338570
  26.4064980  24.5036755  37.4305344  25.4610462  24.3831081  37.3421097
  26.7116833  23.7013721  37.8540955  74.6413803  71.3484192  23.7304287
  75.4476471  70.8664932  23.5462780  74.8595657  72.2611771  23.5420227
  77.6461411   4.5805011  13.8481770  77.6963577   3.6342812  13.7126122
  76.9410477   4.6940651  14.4854937  12.0970058   1.0326793  84.6267166
  12.6205435   1.4373356  85.3183746  11.9751482   0.1285561  84.9164505
  80.5384445  54.3166237  47.9978371  80.5014877  53.7820740  47.2046661
  81.0284958  55.0968132  47.7382469  33.6319389  44.0225945   8.9610920
  33.7875366  44.6285934   8.2366695  33.6486855  43.1555634   8.5558672
  74.8253021  26.1841106  71.3121338  75.4805984  26.7825871  70.9534683
  74.2564163  25.9792309  70.5700989  17.1645889  62.0546455  32.8248711
  17.2688370  61.4515953  33.5608711  16.2303581  62.0220528  32.6189995
  61.4354591  64.5760117  61.2311363  61.7445641  64.0601578  60.4864349
  60.7908020  65.1758728  60.8558922  23.9512901   9.8593912   6.9071622
  23.5337563  10.3078194   6.1717639  23.9784241  10.5155058   7.6035886
  79.4047852  16.4570980  10.8373299  80.3158417  16.3538513  11.1121931
  78.9292679  15.7863560  11.3274460  67.2810898  37.1769295  39.4100189
  68.0654297  36.7056160  39.1291122  66.9476929  37.5848427  38.6108437
  76.9591980  30.0604610  11.6415548  77.6905212  29.7869148  12.1952410
  76.7744904  29.2971344  11.0943375   0.9078138  47.4023132  40.6485519
   1.6577908  46.9120293  40.3118172   1.1618956  48.3207283  40.5580673
  85.6955032  53.1322556  71.3391418  86.6064377  53.3899307  71.1976089
  85.5890503  52.3343697  70.8211823  72.3902664  57.7370300  76.0590744
  72.7168579  56.8734550  75.8064575  72.6666260  58.3150520  75.3479156
   1.4566511  21.9046097  71.8622131   1.4595504  22.8532009  71.7341614
   0.5928590  21.6246796  71.5593338  28.1751556  48.7848778  63.7802582
  28.9038086  48.1766930  63.9043808  27.4191017  48.3323402  64.1541901
  36.5302086  14.0929737  64.8495102  35.8042793  14.6354237  64.5412750
  37.0221024  14.6639433  65.4396515  35.6435089  46.7776260  70.5755615
  35.3767891  47.6627235  70.8239441  36.5879669  46.7598114  70.7302017
  43.8020172  55.5530357  78.5389709  43.9952736  55.3941040  79.4628830
  44.4869118  55.0801086  78.0662155  33.2654419  18.3560410  83.8301010
  32.5826721  17.9963303  83.2638245  33.4975014  19.1914272  83.4245071
  82.7748108   2.4716151  74.3447342  82.7311630   1.9699494  73.5307007
  82.9400101   1.8155160  75.0218430  77.3528900   5.9861078  83.6821976
  77.5323257   5.6896319  82.7899323  77.5763931   5.2360668  84.2333069
  47.6103821  20.8876076  63.9672241  48.0264359  21.1562042  64.7863617
  47.1569519  20.0731544  64.1847076  50.0420113  13.3943176  59.7517014
  50.0679207  13.0269003  58.8682060  50.7288628  14.0609951  59.7540894
  77.8122635   1.0278522  39.8500862  76.9208145   0.7347590  39.6612740
  78.3612213   0.5314162  39.2431068  48.8752899  31.4863663  63.3352242
  48.9937782  32.3576050  63.7135582  49.1792336  31.5741920  62.4318199
  52.7985306  53.9757423  81.0105896  52.7664833  54.8354378  80.5909119
  52.1954041  53.4367371  80.4987793  29.8948383  51.8428726  48.7279320
  30.1469021  52.6563148  48.2908897  30.3249302  51.8866005  49.5819473
  11.4470015  11.5039902   0.5095500  10.8562479  10.7926140   0.2621937
  12.1084146  11.0854244   1.0605204  30.0918007   1.9741303  36.5797615
  30.3976421   1.1173437  36.2820854  29.9041576   1.8514210  37.5103302
  19.0231857   3.5501614  42.3499527  19.2303486   4.0757208  41.5772285
  18.2296391   3.0722611  42.1088600  55.5177803  29.7002048  50.0654259
  56.2323227  29.2076187  49.6616707  55.7429008  30.6178379  49.9121284
  60.7219200  60.6102371  74.8960953  60.1768913  60.1991806  75.5670700
  60.5842285  60.0749130  74.1146164  62.0925903  22.7961845  34.0989380
  62.4957008  23.2662106  34.8288765  61.1625595  23.0148792  34.1576462
  69.7753067  32.9370918  87.4099960  70.0974045  33.4700432  86.6830597
  70.5446320  32.7938347  87.9612274  32.6228676  48.9801369  49.6990318
  31.8761044  48.4037399  49.5367432  32.6046066  49.1356659  50.6433372
  63.5423317   3.3555899  76.7738419  64.0634003   3.0329680  76.0385666
  63.3729248   2.5785608  77.3065338   5.5774031  47.1293640  15.8048258
   6.1930208  47.2882156  15.0892754   5.1633472  47.9787521  15.9575577
  47.5249596  48.9548264  78.7561111  47.0102348  48.2647667  79.1745758
  48.0790291  49.2986908  79.4568253  82.5366592  34.6628075  31.3466053
  83.1148834  34.3686104  30.6428051  82.2113571  33.8545303  31.7429619
  32.8821335  53.1335602  29.8716221  32.6912804  53.0409508  28.9382248
  33.8012123  53.3991547  29.9029655  39.9802780  53.2644272  86.7150421
  39.5155716  52.8057976  87.4150009  40.8914032  53.2875099  87.0075302
   5.9716783  35.3258705  39.7669411   5.4853897  35.2587051  40.5886726
   5.8542757  36.2354317  39.4928131  37.3838234  44.5473862  10.6004286
  38.0178909  44.8978729   9.9748497  37.2465363  43.6423264  10.3206892
   7.9550719  63.1007614  15.8896093   7.3451629  63.1695328  15.1550941
   7.5146532  63.5521278  16.6096992  65.1110611  16.6464863   1.7666643
  65.8138199  17.2950726   1.7255076  64.9756470  16.4991264   2.7027099
  58.6335144   2.5699496  18.2885113  59.0460663   1.7103693  18.2039185
  59.3445015   3.1513643  18.5581131  16.7393970  57.5347595  20.9063168
  16.8993912  58.3847389  20.4962368  16.9400158  57.6738129  21.8318710
  73.6859055  66.0364151  69.2598495  73.8242111  66.0892410  68.3141708
  72.8760986  65.5351944  69.3558502  36.2132034  59.4686394  61.4240799
  35.3117599  59.5780334  61.1213264  36.1537132  59.5224686  62.3779106
  85.3935471  60.3679810  41.4730415  85.4533234  61.2734642  41.7776031
  84.7569199  59.9595108  42.0596352  29.7380905  48.4232864  73.7298813
  30.3129864  48.5075722  74.4905548  29.4807835  47.5013313  73.7251129
  78.1302567  39.3654213  13.5884361  78.7139664  38.7399712  13.1591024
  77.4815750  39.5855255  12.9198561  42.2537880   5.2958913  72.5119476
  42.6606255   5.9375873  71.9297638  41.7997704   5.8229756  73.1694336
   1.9185213  46.3767395   9.7224550   1.9109416  46.3677521   8.7653265
   1.7719581  45.4642601   9.9717140  32.1248779  43.8250160  58.9072418
  31.4365540  44.4266815  59.1908684  32.5804100  43.5847664  59.7140884
  63.8232079  32.9151497  71.2706528  63.5522079  32.2175064  71.8673782
  63.3483429  33.6885338  71.5749741  76.7408142  21.7977505  26.3724918
  76.2767105  21.0875587  26.8157444  76.0511093  22.4072170  26.1096344
  10.4473352  17.1025867  67.2302856  10.7033749  16.9389439  66.3225937
  11.0062027  16.5207348  67.7453995  77.2694016  11.8720531  59.5083122
  77.4762802  11.0045433  59.8559608  76.7030106  12.2669334  60.1712646
  53.5521202  11.4084492   2.2272377  52.7569160  10.8766031   2.1953299
  54.2559547  10.8007841   2.0000944  46.4947014   0.5221534  59.2249298
  45.9510269  -0.2328242  58.9998627  46.1734772   0.8015669  60.0822334
  33.0485229  10.3493643  84.4511490  33.3542137   9.7970743  85.1707077
  33.8238106  10.8413792  84.1808167  74.4634705  49.8402328   5.2693105
  75.0413742  50.4966011   4.8801503  74.9630051  49.0249138   5.2250814
  69.9560013  53.1847572  44.8744850  69.4330978  53.6405869  45.5340462
  70.5487976  52.6293030  45.3807411  22.7258835  42.6068153  50.0610199
  23.4472370  43.1197662  50.4253845  21.9362125  43.0492859  50.3722610
  28.1579227  26.3970451  83.2246628  27.6653614  27.2090149  83.3443298
  27.6840000  25.9284611  82.5375977   1.6952585  68.1759796  12.8709335
   2.3279836  67.4984894  12.6323986   2.2271657  68.9565125  13.0260706
  55.5614166  45.6021080  72.0849609  55.7907143  45.0057068  72.7976761
  56.3864479  46.0300064  71.8559189  70.3551559   9.9323692  29.1940918
  71.0627213  10.4404726  29.5908470  70.4669495   9.0497427  29.5472279
  10.1775875  19.8815403  55.4177589   9.5511217  19.8780193  56.1414719
   9.8942471  20.6054134  54.8592300  14.4472923  69.9476547  71.3033218
  13.9536667  70.6839752  71.6644287  14.7790318  69.4821472  72.0711060
  77.8870316  17.8879890  20.8141441  78.3730316  18.7119217  20.7799320
  77.4809189  17.8852730  21.6809216  27.5846195  71.3049927  18.5181122
  27.5336018  71.1274185  17.5789127  26.6931305  71.1646957  18.8371658
  59.5760689  58.5149193  48.4305229  59.3156891  59.3688889  48.0853119
  60.5104332  58.6067238  48.6169853  22.0758057   2.2605963  58.9933243
  21.9585342   2.2973666  59.9426003  22.7367344   1.5812063  58.8597794
  56.9418983  39.6685829  30.4760284  57.0508537  40.2888832  31.1968536
  57.8112640  39.2866974  30.3551941  19.8089828  65.8907852  64.9150162
  19.3621597  65.5816116  64.1269913  19.6098843  65.2298431  65.5781479
  64.2812653  13.4402704  70.8996048  63.6532936  14.0296040  70.4817886
  63.8800774  12.5740376  70.8294678  86.0943298   6.9070048  23.4384880
  86.8586121   7.0680184  23.9918308  86.3988266   6.2746468  22.7876129
  40.8315697  42.4840126  35.5114326  41.0044899  41.7514915  34.9200401
  40.8632622  42.0978317  36.3866997   3.0338776   2.4975483  83.6069489
   3.1510582   3.1754448  82.9413986   3.9242725   2.2393496  83.8451996
  65.4384232  67.5931473  27.1381836  66.1828918  66.9918900  27.1602898
  65.7240677  68.3470993  27.6541290  85.8760071  20.2127171  75.8101883
  85.6820374  20.1907997  74.8731003  85.2700500  19.5795422  76.1950760
  46.4816704   8.8560781  20.3802624  46.1404457   7.9695745  20.2623215
  47.1268768   8.7729282  21.0824184  29.8235054  57.7671547  64.1241837
  30.2656441  58.5168571  64.5225449  29.2321186  58.1533813  63.4781799
  26.9544334  25.3958092  10.4842672  26.0137997  25.4847717  10.3308887
  27.0818844  24.4628506  10.6562395  60.5170784  44.6057892  22.4501114
  60.2104073  45.0289497  23.2520580  60.1668091  43.7163544  22.4996071
  50.7445755  35.0460052  82.7133942  51.6994553  35.1025391  82.6781921
  50.4689980  35.0747910  81.7971802  31.7883263  62.1765633   7.3338718
  31.2954464  62.0628662   6.5212379  32.5481339  61.6027718   7.2354341
  10.0201454  50.0293083  39.4053078  10.1419382  49.2054405  39.8771515
   9.1692123  50.3518143  39.7021828  72.1865997  70.3439407  13.4682560
  71.4723129  70.9675522  13.5991602  72.7388992  70.4462204  14.2433233
  78.7772751  63.6105309   4.8717217  78.1520157  64.2942505   5.1121359
  78.3110504  63.0743980   4.2302947  64.7992325  59.6268425  27.2670536
  65.2723694  59.6152306  28.0990639  65.4815826  59.7379875  26.6050282
  21.9596748  45.5502663  31.7096233  22.0803127  44.9841652  32.4719925
  22.5794697  46.2673531  31.8432999  79.2667007   8.3434677  -0.2027314
  79.9375992   9.0225773  -0.2730557  79.4878006   7.8705416   0.5995719
  56.7883949  55.9430046  66.4232635  56.7878456  56.8959236  66.3328476
  56.9666519  55.6187553  65.5404739  49.9019203  41.9140091  29.8646069
  50.3680840  41.4254189  29.1862221  50.4950562  42.6290398  30.0951576
  10.7042189  45.6040573  70.9099503  11.5493002  45.9926910  71.1358643
  10.5411577  44.9653053  71.6039581  79.0820389  63.6010017  75.5056305
  79.4490891  64.4503784  75.7507019  79.5086288  62.9772263  76.0931320
  86.0290833  26.8911171  71.1717834  86.6326904  27.6338272  71.1882706
  85.7087250  26.8628063  70.2702255  35.4644585  50.4011841   6.4363174
  35.4464607  51.2943344   6.0925326  36.3293648  50.0692406   6.1955171
  68.2295837  24.8179684  35.8728447  68.4511185  23.9410248  35.5596008
  67.3059464  24.7588348  36.1170540  56.0004311  69.0874634  85.8194809
  55.8618736  68.1418915  85.7653732  56.6219482  69.2790375  85.1171570
  85.6623840  11.0351162  88.9696198  85.9541779  10.1666117  88.6925125
  84.7691116  10.8982954  89.2851715  85.9596024  46.6798592   1.4465030
  85.4914169  46.8570518   2.2623672  85.5357132  45.8982735   1.0919951
  31.6315689  48.2426033  21.9694939  32.3745613  47.8965378  21.4750900
  30.9016876  48.2222939  21.3505478  64.0832520   7.3588648  51.5069580
  63.8869743   7.4048176  52.4426880  63.7163467   8.1656275  51.1453705
  65.3067245  47.8381310   7.7276626  65.1126404  47.1313477   8.3433075
  66.2136078  48.0786438   7.9172859  10.7176542  17.4751892   0.9206204
  10.4951143  18.3885765   1.1007038  10.0764437  16.9695072   1.4199867
  55.7662010  48.6084175  78.2363892  56.3830910  48.7172775  77.5126343
  56.0768471  49.2144089  78.9090805  11.5888252  22.3099384   8.3338804
  11.0449734  22.0243015   7.5998034  12.3425283  22.7334366   7.9230123
  14.0741596   0.3450985  17.5056820  14.6636629  -0.2761294  17.0781364
  14.3902655   1.2049775  17.2283421  84.4492493  68.8067551  21.7413845
  84.4246140  67.8618393  21.5905323  84.2020340  68.9091034  22.6604290
  10.1173277  34.9293060  52.7340965  10.9597874  34.4976845  52.5919762
   9.9083700  35.3303909  51.8904724  34.3320808  68.5693436  33.0744438
  34.8865356  68.0264587  33.6348839  33.7593918  69.0355072  33.6835022
  71.2165146  53.3505325  84.4721375  72.0009460  53.7880058  84.1411972
  71.1569443  53.6254158  85.3870773  45.8200645  41.7908211  46.3220978
  44.9387207  41.4780960  46.1179695  45.6845589  42.4843903  46.9677238
   1.5178188  19.7722683  19.3323231   1.1153785  18.9078102  19.4159203
   2.2779231  19.7397881  19.9132004  66.9435272  30.2038174  33.5024300
  66.2254791  29.5720196  33.5407867  66.7199783  30.7761955  32.7685089
   9.8543043  42.5660515  83.2133331   9.7315760  41.6688881  83.5236053
   9.1243944  43.0535126  83.5952301   9.5291176  64.7762375  48.9706230
   9.1751556  65.6521683  49.1245117  10.3083010  64.7320023  49.5248337
  85.4868927  66.4299545   0.2254111  85.4764328  66.5555267   1.1742806
  86.0348511  65.6565018   0.0922000  67.5910034  44.6679039  22.3427315
  68.2574844  45.0725822  22.8979568  67.1233063  44.0706787  22.9265213
  58.0070267   2.4277513  85.8062134  57.5957794   1.7613751  85.2557144
  58.5278740   1.9298278  86.4363098  36.5118752  25.2826099  16.5270309
  36.3633385  24.4549541  16.9843674  36.6699486  25.0287914  15.6177340
  40.4661980  12.3080511  67.4909210  40.1359444  11.4455576  67.2393799
  39.7435951  12.9061537  67.3002625  25.1553230  43.4632874  44.9303207
  25.3036842  43.4510956  43.9847641  25.5115242  42.6303329  45.2394104
  70.0113907  10.4015341  60.3810654  69.1497116  10.4307852  60.7968559
  70.0343170  11.1785488  59.8225365  33.6022339  44.8961411  31.4666100
  33.4015083  45.3234215  30.6339207  32.7716141  44.5094948  31.7437611
  63.5680923  54.7829514  67.1692886  63.2656975  53.8764229  67.2240448
  64.4549408  54.7617416  67.5288467  13.3957729  71.2047424  64.9561462
  13.7079725  72.0301743  64.5854492  13.7890491  71.1698532  65.8281250
   1.0249714  39.8777390   8.2282648   0.2775600  39.9718513   8.8188152
   1.5705863  40.6432571   8.4085922  65.4310455  21.7141075  15.5662355
  65.8244858  20.8428822  15.6152487  65.0548935  21.8562546  16.4348736
  73.2886047  52.6755257  48.7456284  72.7590942  53.1405106  48.0978355
  73.7219391  53.3690338  49.2431259  38.3962288  54.0426941  78.2043762
  38.8128891  53.9086227  77.3531189  39.0229263  54.5726242  78.6969833
  43.3249817  48.6168938  33.4187164  42.7992096  48.5322876  34.2140999
  43.5646172  47.7180176  33.1932678   5.7751017  67.8496094   1.5201879
   6.6903086  68.1016617   1.6430682   5.5163631  67.4701004   2.3599834
   7.0048909  30.1231499  72.8550797   7.2475390  29.8725014  71.9637146
   6.8016210  29.2949581  73.2898331  40.2964935  60.1246796  61.7100449
  39.6628113  60.8045349  61.9391212  39.9240494  59.3193245  62.0690994
  47.4794960  16.6250763  16.9634285  47.0875702  17.3868484  16.5364227
  46.7398071  16.0452919  17.1449242  38.3360558  51.0100212  45.5185318
  38.9638443  50.3120918  45.3314285  37.4851303  50.6330872  45.2947578
  77.8843613  55.4061241  32.1831322  76.9503326  55.3520317  32.3853607
  78.0241089  56.3212395  31.9396782  33.9538307  65.3540497  79.4235687
  34.2947311  65.8999939  80.1320572  33.4094391  65.9466782  78.9052505
  29.2284126  61.4068260   2.4550033  29.7937813  62.1566277   2.2695570
  28.9862976  61.5112076   3.3751755  10.1715784  68.6003799  66.0674515
  10.8630743  68.3149719  65.4702911  10.1760044  69.5551987  66.0001373
  40.0553360  64.2482681  51.9333572  39.5137711  64.7324448  51.3100510
  39.8195190  63.3311462  51.7936516  78.4618988  39.1645775  33.3266411
  78.9811401  38.3959503  33.5629158  78.2694626  39.0468941  32.3964005
  72.7225723  26.4455605  58.0035210  73.5507965  26.5336075  57.5317955
  72.0996933  26.1480541  57.3403893  20.1259060  48.9022026  63.1833572
  19.1835728  48.9663353  63.3386803  20.2480183  49.2556496  62.3022270
  71.4927597  65.5237885  25.4532433  71.5582047  64.8373108  26.1170979
  71.8461685  66.3042450  25.8801060  38.2835541  62.0922737   2.6351430
  39.2103500  61.8587875   2.5825601  38.0722885  62.4314690   1.7653471
  16.7734642  66.7692413  32.2038956  17.3400593  66.7754135  32.9753647
  17.0250854  67.5531693  31.7156582   3.9656315   2.7780011  25.9751453
   4.1442099   3.0115991  26.8860645   3.6398408   3.5866551  25.5799599
  68.3015060  52.3524590  57.8018417  68.5618057  52.2931023  56.8826294
  68.0917740  53.2772636  57.9321404  49.2744064  70.3183594   2.2981668
  49.7454338  70.6751404   3.0512066  49.9507179  70.1843262   1.6341883
  38.8734207  47.9353333  59.8836365  39.6857948  47.8956299  60.3883209
  38.2140884  47.5493813  60.4603157  29.2775249  69.8836060  62.7583771
  29.4522152  69.1227036  62.2045403  29.5580482  70.6323471  62.2321281
  52.9923439  55.5088882  61.1456871  53.6125717  54.7823105  61.2059555
  52.4949036  55.4675407  61.9624329  76.8356934   5.1309891  27.7469559
  77.0901260   5.3067279  26.8410797  76.0562744   5.6690812  27.8855095
  55.2031326  33.6368713  38.1240082  54.7870102  33.2902603  37.3347435
  56.0757141  33.2434006  38.1272316  25.5436859   1.0202076  68.3015671
  25.6656990   1.4251434  69.1602707  24.5945396   0.9988573  68.1795120
  64.4520721  52.7576561   9.2642174  65.3344955  52.7698250   9.6349058
  63.8834610  52.5514145  10.0060930  49.6538582  70.8237152  79.4134293
  50.0567131  70.0673447  78.9869995  50.2027512  70.9867096  80.1804886
  27.1376095  33.1438255  84.2711945  27.3895836  33.9645653  83.8479614
  26.7866058  32.6061745  83.5612946  19.8889961   0.7957755   9.3858118
  19.8054161   1.7363127   9.5427704  19.1709538   0.4051017   9.8838282
  74.4410248  64.4682770  19.8938560  74.4000092  63.5353241  20.1039791
  74.9110794  64.5057373  19.0608635  55.2303276  33.1656075  63.5792122
  54.3875198  33.3327751  63.1573601  55.0081215  32.9720573  64.4899216
   2.3424616  67.9216080  47.5657768   2.9744239  67.3708572  48.0278664
   1.6540159  68.0881195  48.2096291  64.0477600  66.6064758  45.6384392
  63.4100456  67.0370483  46.2077904  63.5285797  65.9937363  45.1176376
   7.3934650  56.9195557  27.5829105   7.9160376  57.4808960  27.0101566
   6.5277872  56.9007149  27.1748905  37.8407440  32.1886406  57.2679749
  37.3110161  32.8310356  56.7958031  38.6116104  32.0610199  56.7150612
  47.4525566  42.0051231  80.8561325  47.4604187  41.7139893  79.9443130
  48.2530823  41.6384430  81.2315445  45.7773056   3.4937780  46.8119278
  45.4184952   3.1203485  46.0069199  46.6562614   3.7853241  46.5697060
  64.7643433  16.0253944  47.6443481  65.0185394  16.7991047  47.1413651
  65.5432816  15.4691105  47.6380997   7.3586912  25.9124546   0.6511867
   8.2926102  25.9806461   0.4527514   7.0637898  25.1482353   0.1559740
  41.0241547  31.3099842   7.8907886  41.1332283  30.5834446   8.5043621
  40.4645882  31.9330406   8.3543825  74.7603607  57.0161819  64.0898132
  74.0213394  56.8166656  63.5151215  75.0711212  57.8712425  63.7922592
  81.6544800  16.4645500  71.4317627  81.9374008  15.6268721  71.7984848
  81.4800720  16.2756824  70.5097351  32.6984940  47.8322144  26.3000488
  32.3435822  46.9939804  26.5960770  33.2179222  47.6126442  25.5266056
  47.1482811  43.7090912  52.6358147  47.0933533  44.1087608  51.7677841
  46.3983917  44.0660324  53.1117287   4.0526752  53.6273232  80.8526382
   3.1878395  53.3776894  80.5270996   4.0197430  53.4371910  81.7901840
  12.5113564  20.9213810  83.9122696  11.9156065  21.6001358  84.2294464
  11.9914780  20.1179161  83.9323730   3.6442869  24.0433826  18.7752934
   4.3593249  23.4476089  18.9989128   3.7211881  24.7578392  19.4076443
  44.9882355  69.6919250  59.1622391  44.5195198  70.1822815  58.4869003
  44.2975578  69.3126602  59.7057037   1.0855657  54.4931450  69.4674149
   1.7292610  53.8277016  69.7104645   0.8214976  54.2574005  68.5780716
  86.5881729  28.6859570  82.0598373  86.7994537  29.2050610  82.8358002
  86.0908203  29.2827091  81.5005798  29.1341324   4.8941102   7.9438581
  28.2038021   4.6794710   8.0120182  29.1489086   5.8018365   7.6404657
   9.7965546  46.2702599  84.8581238   9.1984940  45.5673370  85.1119995
  10.4086981  46.3401604  85.5906754  24.0931091  69.4852371  72.9552841
  23.3051338  69.7965775  72.5098648  24.6963272  69.2615814  72.2465210
  82.6330566  48.4103508  46.3567924  83.3053970  48.8061295  45.8022156
  82.4728088  47.5524483  45.9636650   1.5952522  26.3166142  73.1387024
   1.9830372  26.8575954  73.8265991   0.6631649  26.2866306  73.3544540
  54.6927795  42.4493675  52.2941856  55.4599686  41.9776535  51.9699364
  54.9568405  43.3694000  52.2875595  13.7272263  45.0971527  42.0840187
  12.9930954  45.4431076  41.5764771  14.1096363  44.4225998  41.5227966
  43.0195808  54.3891296  84.4029465  43.7530212  54.0223808  83.9091873
  42.9231949  53.8068924  85.1565628   8.3690434  62.0811310  36.8977356
   7.8201499  62.7246475  36.4495964   7.9427562  61.2415199  36.7257881
  66.9808655  32.0319099  68.0571365  67.7663040  32.5332375  68.2761917
  66.2772217  32.6807938  68.0484924  43.2396965  22.8417511  40.2669983
  43.4219933  23.3228359  41.0741882  42.5252953  23.3275127  39.8548050
  16.4029694  24.1460762  82.4209518  16.2314434  23.6559010  83.2250290
  17.0410995  24.8117199  82.6777420  78.0127411  53.1391335   2.6590998
  78.4714966  53.8156052   3.1572580  77.2469330  52.9266891   3.1926076
  26.0589390  48.4400482  86.6068878  26.8932285  48.5068398  86.1424179
  25.8686905  47.5021019  86.6238785  67.6853485  20.7393093  52.6037102
  67.0898972  21.2176018  52.0267296  67.7689743  19.8759041  52.1990204
  45.8660583  71.5449371  27.0091324  44.9369049  71.5744095  27.2372475
  46.1199303  70.6337585  27.1558952  56.8979530  66.8849258  34.5001793
  57.5330734  67.4996796  34.8675117  56.0534821  67.1818924  34.8391609
  76.2552643  66.7363510  70.3969116  75.3812180  66.4136810  70.1774521
  76.8464050  66.0397110  70.1114731  49.9850197  61.5394669  54.6354065
  50.6624260  61.9555511  55.1685371  50.4673805  61.1023407  53.9336357
  15.2044258  56.1423073  73.2326202  15.4313488  56.7017708  73.9754105
  14.3637209  55.7533455  73.4737701  83.5517654   2.8656564   2.3731389
  83.9755554   2.9313359   3.2288945  82.6984634   2.4732769   2.5579271
  52.6790390  38.6168137  44.4148293  51.8921204  38.2974319  44.8563995
  52.5649605  39.5665283  44.3792572  17.5493870  36.7508545  11.3301191
  17.9974995  36.5908966  10.4995518  17.0931892  35.9305954  11.5179882
  34.2928162   5.9052148  12.0360155  34.8657303   6.6428461  11.8264856
  34.3942223   5.7838082  12.9800539  76.0220413  10.1023531  51.8558655
  75.3799591   9.5293589  51.4367676  75.5233078  10.8814869  52.1017380
  62.6968117  23.6623611  19.6893234  62.7859421  24.2302532  20.4546909
  63.5912323  23.5539093  19.3660889  80.0261841  30.9683781  46.1750946
  80.4116821  31.8379173  46.2824593  80.7592239  30.4123344  45.9110909
  45.7727699  38.7442398  36.2373924  46.3920479  38.2875824  35.6680183
  46.2677727  39.4872856  36.5824852   2.5836446   9.5398369  49.4902153
   2.4481435  10.2412252  50.1273384   2.6584542   9.9911757  48.6494217
  -0.0057968  35.8443642  50.9796638   0.8678076  35.5613708  51.2497787
  -0.0339203  35.6697693  50.0389404  54.4871368  49.5343704  67.6870880
  54.2127457  49.8892899  68.5326462  53.7143936  49.6209145  67.1288605
  29.7581730  44.1098862  74.3716812  29.7226143  43.2801590  74.8476257
  30.4821720  44.5874519  74.7766342  65.4463730  64.4906082  63.2124519
  64.9815063  63.6682930  63.3671455  66.2628937  64.4002380  63.7037315
  78.7330627  46.0324097  89.0030670  77.7833862  46.0029488  89.1191483
  78.9692688  45.1443405  88.7351685  62.5545769   0.7286724  31.9471779
  63.4290466   0.5831837  32.3082428  61.9710884   0.2418479  32.5292206
  73.4735870  49.1189651  71.3492813  73.8259735  48.5809746  72.0582352
  73.6519165  48.6153183  70.5550690  55.6727333  58.4193230  80.8017197
  56.1274719  57.8513718  80.1797256  55.5546188  59.2442169  80.3307343
  32.3581848  41.8939819  62.4929771  32.4331970  40.9536095  62.3307915
  33.1423759  42.2693977  62.0925446   1.4718285  41.1541367  57.9856148
   1.9795932  41.2064056  58.7953529   1.4879934  42.0446129  57.6348648
  -0.0173384  48.3499451  17.2059193  -0.2395067  47.6849899  16.5542221
   0.3443400  47.8540268  17.9404163  75.1286697  31.3541565  13.5991821
  75.5736389  30.8970623  12.8855343  75.8210678  31.8531513  14.0325546
  45.1467094  68.3374481  38.0245895  44.6077995  67.5561752  38.1487999
  45.8362961  68.0593872  37.4217758   8.6086454  36.0388718  25.8316097
   7.8721991  35.4275932  25.8168468   9.3335457  35.5499954  25.4420567
  31.8005428  12.3990803  64.7303696  32.2101212  12.0792322  63.9265175
  31.0029469  12.8379154  64.4345703  10.9349918  64.8468781  83.4734039
  11.1759453  65.7727051  83.5053558   9.9913635  64.8503799  83.3128357
  52.3353004  51.1272812  19.4668503  51.7642899  50.3940735  19.2375317
  52.3924980  51.0967293  20.4218521  25.3426228  30.2048054  65.4353714
  24.7856884  30.1999378  64.6568909  24.7516479  29.9801693  66.1540604
   8.5172844  60.1527367  16.3642597   8.3464661  61.0907516  16.4490051
   8.0518599  59.8954735  15.5683784  59.2048759  13.6263647  13.7221994
  59.4392204  13.0468187  12.9973269  58.4791946  14.1511745  13.3842764
  62.1303215  40.2427864  67.8938065  62.1028137  39.2859802  67.8942566
  62.1240387  40.4830170  68.8203506  43.8658257  36.8346939  53.5922318
  43.7575493  35.9324226  53.8929291  44.7873459  37.0334816  53.7581100
   7.4840884  62.9279861  86.2966843   8.3141584  63.4044151  86.2814484
   6.8292747  63.5943108  86.5051575  86.2543106  44.6908569  59.0594597
  85.9404297  45.5322914  58.7282562  86.9192505  44.4176598  58.4274406
  46.1679420  52.8516083  38.6870461  45.7158623  52.1215973  38.2640228
  45.4815063  53.5001259  38.8434448   0.4934453   5.1677017  21.5218029
   0.2962822   4.2765398  21.2333794   1.3329066   5.3725195  21.1099949
  67.7816162  71.7794113  41.9454994  67.2836304  71.0613861  42.3362465
  68.6952744  71.5023346  42.0140343  27.8959312  59.3078041  28.6861343
  28.4784698  59.9518166  29.0887852  28.2560062  59.1743011  27.8093472
  76.0516968  42.6035233  54.7381859  75.9497375  43.2648506  54.0537262
  76.9476547  42.2841187  54.6310577  12.2159128  41.8409920  75.0448151
  11.5329475  41.9975815  74.3926849  12.7419643  41.1318626  74.6751709
  81.2103958   1.0795999  56.2476387  80.2898560   1.0016049  55.9971237
  81.1904221   1.2093462  57.1957932  74.5504532  60.0645256  10.7420950
  75.1663132  60.0244484  10.0104227  73.9801102  60.8047791  10.5348186
  72.3120651  69.7150955  25.0093670  71.5137177  70.0927353  25.3784943
  73.0140228  70.2851181  25.3233051  24.9797668   9.8085289  13.2083101
  25.7788792   9.6126509  12.7191439  25.2750893  10.3430843  13.9453773
  31.3630905  57.5972328  44.9925728  31.7648010  56.7379799  45.1211891
  32.0282669  58.1055565  44.5284805  73.1686096  47.5371780  46.3175545
  72.6178970  47.8268242  47.0449142  73.9005356  47.0846367  46.7367401
  74.2584381  26.0827847  52.3551826  73.5662384  25.7200356  51.8024635
  74.7591705  26.6510735  51.7699089   3.1246715  52.9261322   6.6745753
   3.4971287  52.0827599   6.4172168   2.9376457  53.3681030   5.8463755
  29.3901920  26.2041512  12.3896570  29.9325943  26.9173756  12.7263222
  29.3769894  26.3399639  11.4422331  16.0371208  57.0102196  27.0572968
  16.8068829  56.9517632  27.6232319  15.8704948  57.9492760  26.9758301
  45.0949707  15.5928879   8.5710487  44.2768059  15.2099762   8.2544775
  44.8254433  16.1918716   9.2673283  72.9408188   6.4700279  50.2332954
  72.4641342   5.7699614  49.7873039  73.3355865   6.0439963  50.9941406
  75.5985641   2.4149683  35.6729584  75.7641983   1.5004525  35.4439201
  76.2931900   2.9023864  35.2300720  55.3523064  23.6321621  22.2134132
  54.6397743  24.0956936  21.7733345  56.0374031  23.5597534  21.5488586
  36.0192642  63.5989456  27.9990425  36.0177040  64.5554810  27.9634552
  36.8380356  63.3770981  28.4424667  85.4906464  36.4906578   9.6064987
  84.6574249  36.1788216   9.9596691  85.3433380  37.4198952   9.4302864
  41.1070061  43.7264442  56.0700073  40.9292870  43.1405945  56.8058243
  41.7919998  44.3130035  56.3908882  47.1248016  35.7918854  78.4097137
  46.6495171  36.0030174  79.2133102  46.4393196  35.6294746  77.7616653
  58.6498528   0.9343289  60.0306892  58.5712166   0.7732721  60.9709587
  57.7459831   0.9760218  59.7184143  60.1012039  64.0130234  17.9252663
  59.9273071  64.9216309  18.1710701  60.8730278  64.0610275  17.3611622
  34.9557533  42.4118500  13.3111639  34.2964630  42.1248436  13.9429827
  35.2893410  41.6006393  12.9279051  69.8778915  39.9646187  43.0460548
  68.9776382  39.7762947  42.7809105  70.0851974  40.7948608  42.6171494
  74.2123795   7.8301382   3.9794827  74.4812698   7.7288632   3.0664260
  74.9870911   7.5858502   4.4858193  78.3054352   6.8260579  68.7301865
  78.3251953   7.4624600  68.0154572  78.1619949   7.3530788  69.5162506
  55.1797028  51.5179443  82.8156204  55.8285255  50.9382477  83.2146378
  54.5712318  50.9270325  82.3719864  84.4721375  33.1294174  57.6009789
  84.0186005  33.8154716  57.1112213  84.5450211  33.4777603  58.4895592
  50.3529968   0.4439541  59.9497452  50.3379784   0.2041950  59.0231781
  50.6886330  -0.3350393  60.3933067   9.8439684  42.2903862  24.8434410
  10.3256826  42.9742050  25.3088226   9.7970562  41.5646286  25.4657764
  74.7155075  40.2723083  43.1545753  75.4595337  39.7787933  43.4996872
  74.1689453  39.6134148  42.7263680  67.9019470  67.3968201  84.3524323
  67.0395050  67.8022003  84.2624741  68.4838181  68.1206436  84.5842209
  85.7124939  63.0118065  42.4353485  86.4177628  63.3040581  41.8579216
  85.8058853  63.5521317  43.2199249   9.4461269  67.8823013  68.8936310
   9.4775276  68.1925201  67.9886398  10.2816868  67.4333267  69.0220490
   0.8840980  52.5126343  27.4911442   1.7484673  52.4402580  27.0863495
   0.3130240  52.8134193  26.7842960   0.5100191  38.9209328   2.0598614
  -0.2162839  39.4726982   2.3501589   0.6441629  38.3036385   2.7790167
  42.8187904  58.6351509  35.5008698  42.5849533  57.7336273  35.2799492
  43.0253601  59.0420685  34.6594543  54.5610123  48.5629578   0.3686265
  55.1075783  49.3428879   0.4645907  55.1067352  47.8466454   0.6931495
  12.9902754  66.8376770  21.8827763  13.6119776  67.4412079  22.2895584
  13.5376301  66.2252197  21.3913212  31.0991650  63.7004700  57.0082359
  30.3917789  64.3355255  56.8962784  31.8954487  64.1901398  56.8023529
  62.1068420  17.6212463  65.8504257  62.4346581  18.0994053  66.6120834
  62.8942299  17.3758297  65.3646011  14.2047405  42.7075653  16.4340992
  14.1521635  41.7518463  16.4420319  13.5195074  42.9800797  15.8238335
   8.4351645  15.6438255  64.0797195   8.5093164  14.9020042  64.6800766
   7.8841343  16.2737484  64.5442505  17.8374557  15.7956009  49.2749405
  18.0649834  15.2189827  50.0043068  16.9248161  16.0357170  49.4351387
  76.6099854  35.7416534  63.6997261  77.5412292  35.6583061  63.4946251
  76.2699280  34.8491554  63.6362114   6.0414891   5.7145247  84.6219711
   6.2547035   4.9734502  84.0548935   5.0938473   5.8177423  84.5350647
  57.8586159  28.6784973  48.9813385  58.7024002  28.5511913  49.4149933
  57.8861732  28.0905914  48.2264633  56.5157738  47.0188484  82.2832642
  56.1888046  47.8898582  82.0581741  56.1157990  46.8245392  83.1309052
  81.9294586  27.5178699   4.8624806  81.6542053  27.8149414   3.9951770
  81.2824249  26.8556023   5.1053267  86.3127365  16.0489826  44.9992752
  86.1048203  15.2371531  45.4618073  86.9404907  16.4946709  45.5680618
  16.0267620  25.2604733  69.4741669  16.8327446  24.8008518  69.7094879
  16.3089695  25.9416122  68.8637238  63.9852219  31.1788063  76.2224197
  64.3170319  31.6652775  75.4677811  64.0813599  30.2590008  75.9755478
  75.0134277   4.7735715  87.1375046  75.9486694   4.5914917  87.2291870
  74.5823288   3.9890790  87.4765472  62.5526810  55.7931976  33.0655899
  62.6603203  55.0912094  33.7073517  62.1525612  55.3660126  32.3081894
  47.3482323  42.4223671   3.5739806  47.0314560  41.6397362   4.0249553
  47.6410103  42.1046181   2.7198448  66.6856766  19.0925941  14.3043528
  66.2146072  18.3587265  13.9096794  67.0565186  19.5670872  13.5603333
  86.3710175  41.8285828  70.7541656  86.2962112  40.8943214  70.9485703
  86.8152695  41.8621178  69.9069672   6.6217399  29.8545704  59.0860252
   5.8597145  30.1381931  58.5809441   6.5859437  28.8984795  59.0570564
  28.1309643  50.6461678  74.3736725  27.2302303  50.3241158  74.3391647
  28.6686573  49.8542595  74.3730240  59.1329079  29.5264263  56.7654190
  58.1984138  29.3561516  56.6472588  59.2164230  29.7758465  57.6857681
   9.8994331  30.2622299  81.2737808   9.8591652  29.6645622  82.0203781
   9.8234510  29.6936893  80.5074768  72.3713684   7.3200560  40.9519119
  72.2535095   6.8155055  41.7567558  72.2089767   8.2268839  41.2117653
  49.2781868  14.7140627  16.8098526  50.1843033  14.5783501  17.0869255
  49.1121483  15.6413431  16.9795990  48.5599060   2.7317955   1.5046996
  47.8574142   2.3435838   2.0262618  48.2083817   3.5751662   1.2194103
  37.0268822  58.9519958  84.9391861  36.3483009  59.6179085  85.0501862
  36.8546143  58.3163795  85.6338348  49.2054901  70.0692825  21.3648853
  50.0742874  70.4696350  21.3311100  49.2278938  69.5137482  22.1440620
  41.3381195  36.4824944  39.4052887  41.4325409  35.5302124  39.4270172
  40.9214058  36.7009430  40.2388725  39.8985672  66.3879471  21.0751648
  39.1261597  66.4713440  20.5160007  40.6217117  66.2440109  20.4647751
  86.0635681  19.1760864  38.3308258  86.3059921  19.2832603  39.2505951
  86.7948456  19.5567646  37.8444672  69.4889908  46.3344955  59.4017181
  69.5052795  45.4421234  59.0558243  70.3968887  46.6315689  59.3408546
  51.2810783  44.8321419   2.3370743  51.2464714  44.3097572   1.5357343
  50.7969170  44.3152771   2.9810219  29.6425209  59.5336494  84.0392456
  29.0574265  59.4370537  83.2878723  29.2908058  60.2815704  84.5220947
  39.5937691  65.3748932  23.6326180  39.5219040  65.5723572  22.6987667
  38.9525948  65.9507217  24.0492172  52.3990631  56.8161812  80.3714600
  51.6658249  57.3203621  80.7241516  53.0060654  56.7300110  81.1065521
  74.9731293  29.3585167  18.1854649  75.5313034  29.5927658  18.9269505
  75.2994690  29.8932095  17.4616966  21.2038155  10.1344557   8.7261028
  21.9951210  10.5230913   9.0989685  21.0652256   9.3367958   9.2367525
  53.2365761  51.9635696  49.7454033  54.1919632  51.9937515  49.7960129
  52.9996872  51.1426277  50.1768723  15.1835527   6.5454545   8.1140070
  14.6100512   7.0439405   7.5319085  14.5880232   5.9981680   8.6259193
  40.4942551  65.4508057   0.6617683  40.8934669  65.3569565   1.5266697
  40.2263412  66.3687897   0.6199650   6.0868421  43.6048737  17.0254459
   5.9820738  42.8234291  17.5682182   5.2871995  43.6408882  16.5005589
  40.9834785  68.3232346  74.9157944  40.9914169  67.6727295  74.2136459
  41.2795677  69.1313934  74.4969406  64.9248276  30.3774586  54.1218414
  64.7200317  29.5881310  54.6230888  64.5183334  31.0882206  54.6176300
  59.1010780  24.4712887  72.0132828  59.9374161  24.0088234  72.0671005
  58.7515030  24.4384708  72.9037628   4.0216227  29.0972805  53.3041992
   4.4611173  28.7642975  54.0866318   4.4306407  29.9476070  53.1433220
  71.6750488   7.5087161  32.6808891  72.3422470   7.2413197  32.0487633
  71.0089417   7.9500117  32.1538315   2.3730850  61.8451576  27.2127647
   2.9810300  62.5778732  27.3115711   2.2294295  61.5310783  28.1054859
  10.7692728  24.7435112  85.3209000  10.1226053  24.7757988  84.6159134
  11.5434065  25.1719093  84.9556274  40.4618874  70.1125565  76.9485931
  40.4108086  69.3378296  76.3887558  39.5873604  70.4990311  76.9030762
  83.7053299  36.2722702  46.7872505  82.8926926  36.7778282  46.8036919
  84.3973999  36.9324493  46.7493935   3.2168777  16.1331329  21.9391956
   3.7854700  16.4478149  22.6419811   3.2570181  15.1792259  22.0076275
  74.5188904  22.4947376  15.3419838  73.6087112  22.7877541  15.3860645
  74.6668930  22.0467606  16.1748371  51.6138191  58.7469254  35.6757698
  52.1869240  59.4553185  35.9689598  51.0386772  58.5795784  36.4223900
  33.6738777   7.2714491  67.5151138  33.6159477   6.7696753  68.3281937
  34.5979195   7.5118442  67.4473419  34.5754356  58.4070320  57.8821831
  35.3112869  58.7740479  58.3721352  33.8173523  58.5437813  58.4503784
  48.7954369  19.8435726  12.8219585  48.9562607  20.1241989  11.9210615
  47.9421272  19.4110947  12.7893953  17.0592880  40.4125633  33.5873795
  16.9226246  41.3529663  33.4724922  16.4172421  40.0044937  33.0064430
   0.6346518  20.3593102   9.8550901   1.2613944  20.9546909  10.2661247
   0.0497721  20.9322605   9.3592319  51.5420074  33.9851913  34.7615089
  51.5373993  34.4994202  35.5688362  50.8498459  34.3734055  34.2263107
  14.0069218  51.7570419  61.3932762  14.5527792  52.3554764  61.9033241
  13.8824015  50.9998512  61.9654541  29.6203842  47.9759560  52.5850830
  29.6234035  47.3212585  53.2833633  29.3211346  48.7791710  53.0111389
  60.8969116  71.8086777  28.0283909  61.3524704  71.0827942  28.4547596
  60.0117073  71.4785843  27.8745098  46.2021790  52.5581627  32.0403900
  46.6011772  53.2298965  31.4873905  46.5052795  51.7301559  31.6678715
  61.7883110   1.5488518  49.9931335  61.3561058   1.1031203  50.7216606
  61.1658707   1.4830723  49.2689285  36.5069504  18.7355862   5.6932430
  35.7378922  19.2745838   5.5081530  37.0556030  18.8255081   4.9140601
  49.8069496  38.3129501  45.1563644  49.6968918  37.3739510  45.3060303
  48.9138947  38.6537399  45.1059113  37.8433800   0.9568670  25.6935711
  37.4764519   0.9509339  24.8095093  37.1108017   1.2099937  26.2552528
  19.4530468  14.8333273  64.1117630  20.0900421  14.1653242  63.8583069
  19.2126160  15.2594223  63.2890472  82.6641617   3.2919855   8.7396307
  82.6558762   2.8633492   9.5954542  83.0575714   2.6466017   8.1523170
  80.2394562  49.3899269  47.1815453  79.6315308  48.6791611  47.3851852
  81.0298462  48.9477005  46.8717880  74.0861511   3.0110943  75.3929367
  74.8582001   3.5198097  75.6406860  74.2294388   2.1508336  75.7874680
  58.3136787  63.8024635  10.9221230  58.7465744  64.2584305  11.6438789
  57.4473190  63.5813255  11.2638063   8.4219322  51.7036285  78.0047226
   8.9828444  51.4916000  78.7508087   8.7313423  52.5594788  77.7080460
  42.7091141  12.3843412  56.6286812  43.4703484  12.0014963  57.0647850
  42.7233505  13.3058805  56.8871307  77.2881317  33.6888885  72.5652008
  78.1841660  33.3540268  72.6001892  77.0567627  33.8500252  73.4799347
  50.3004837   1.6497948  64.9956512  50.0817986   1.5516419  65.9223557
  50.0454025   0.8164480  64.5998001  18.2632065  50.6528244  56.3757057
  17.4383488  50.4054794  55.9577789  18.2189980  50.2566910  57.2459679
  65.0136108  22.7021198  52.9710770  65.2592850  22.4913177  52.0702782
  64.8042755  21.8559303  53.3665123  81.2165070  56.1026459  75.6374283
  81.0634155  56.8204231  76.2519150  80.4320984  55.5582314  75.7048416
   3.1957321  48.1414986  73.7646561   2.5529277  48.2943916  73.0720825
   3.2596500  48.9802017  74.2215118   0.0941185  69.1012115  55.9012413
   0.7481888  69.3888931  56.5381584  -0.7370088  69.4249878  56.2485580
  66.4211121   3.6353800  49.7837791  66.3506241   4.0208220  48.9104538
  65.5176773   3.4413772  50.0335884   2.3775754  14.0371857  64.3107376
   2.1473353  14.8679047  63.8946495   3.1260266  14.2482061  64.8688812
  83.0334930  13.6273489  30.3895988  83.9264221  13.3175478  30.2381973
  82.5124283  13.1967306  29.7118855  13.1876411  59.2598038  29.3747768
  13.0557671  60.0911446  28.9190216  14.1154671  59.0616417  29.2478771
  17.9597855  25.2056751  26.9757690  17.0940342  25.4188709  26.6275520
  17.8200417  25.0998192  27.9167767   8.6825914  62.5762215  33.9568062
   9.1477528  63.0641365  33.2772484   7.7584052  62.6610451  33.7224617
  19.5688801  50.8466911  39.5243225  18.8816013  50.1873398  39.4287529
  19.1070518  51.6340103  39.8125496  56.2293358  53.3026009  52.0445518
  55.5876350  52.8480911  52.5903282  56.9151649  53.5722504  52.6554146
  77.4232483  42.0611191   8.0195017  77.0535507  42.6782608   7.3880782
  76.8098450  42.0739021   8.7542191  70.8090210  42.5659523  72.5837021
  70.4869385  42.9102402  73.4167480  70.3029404  43.0338173  71.9194641
  67.1585541  54.8246307  13.1237326  67.9369965  54.7140045  13.6696463
  67.2925339  54.2235756  12.3909197  34.9799042  17.1618271  85.4828873
  34.9930077  17.5186977  86.3709793  34.5852470  17.8539867  84.9524231
  83.1324844  54.8277130  77.3307724  82.5276642  55.1430435  76.6592102
  83.3366318  55.6037178  77.8526688  37.4758110  39.7491150  75.7965317
  38.0598373  39.7882690  75.0391617  36.6224670  39.5185394  75.4292831
   0.2774200  34.4001694   2.6606214   1.1199391  34.4368820   2.2078016
  -0.3702703  34.3491249   1.9576823  41.1707001   2.1629465  83.2873993
  42.0701027   1.9959782  83.5692291  41.1003456   3.1172664  83.2638245
  50.8990440  26.9721603  73.8865814  50.5493660  26.5863171  73.0834045
  51.8410110  27.0385780  73.7300110  86.7275772  51.6068802  83.4332428
  86.3783340  50.7657814  83.7278900  86.1613998  52.2591019  83.8459015
  71.9048004  68.4688492  69.5759201  72.0810471  67.5379028  69.7119598
  72.7434387  68.8984833  69.7442245  83.1352005  38.7472267  34.0578346
  83.6759796  37.9581909  34.0230942  83.0091705  38.9917755  33.1410217
  26.9135361  11.5159807   4.3495870  26.8096466  10.8541431   3.6659126
  26.3582287  11.2091541   5.0663319  76.1129913  53.3243752  21.0959263
  76.3826752  54.0508232  21.6578655  75.8683395  52.6280899  21.7054844
  80.6212006   5.4160347  50.7972641  79.7748337   5.7421846  51.1030807
  81.2636414   5.8651204  51.3466454  76.2015686  36.3804054  66.1329575
  76.2961121  36.2668800  65.1872253  75.3912888  36.8797874  66.2344208
  63.3245544   0.5919066  37.9820786  63.3953133   1.2380553  38.6847267
  63.7280464  -0.1981114  38.3416557  67.7845917  59.7525177  52.6740456
  67.4086838  60.6112404  52.4803467  67.0646362  59.2589836  53.0668793
  74.5341797   0.2727524  47.4306145  73.6102371   0.0373697  47.5152512
  74.5492172   1.2243860  47.5325928  78.6259232   2.7456381  28.5395432
  79.4811249   3.1600571  28.6541080  78.0613480   3.4471998  28.2150517
  46.4822578  62.9850044  74.5042114  46.6805687  62.7638626  75.4141617
  46.9506416  63.8053284  74.3495483  68.4507370   6.9994636  87.8514404
  68.4390488   7.8014655  88.3738251  69.3148346   6.9943910  87.4396896
  28.7364254  57.4677429  73.2742615  28.4275513  58.2946091  72.9039688
  29.1524506  57.7156372  74.0999222  23.5722942  34.0683098  66.2098312
  22.8366261  33.6941910  65.7249985  24.3490524  33.7063828  65.7833481
  47.6490021  14.4748468  64.1414337  47.8922958  14.5821743  63.2219124
  48.4045486  14.8030071  64.6289749  33.1917267  21.6580009   4.3909540
  32.5833588  22.3391457   4.6775980  33.3644257  21.8624210   3.4719224
   1.8007146  59.2697449   0.6770276   1.8897461  58.3509521   0.4238011
   1.3618834  59.6818504  -0.0671681  74.8405380  59.1240730  44.9325600
  75.4271545  59.6910439  45.4332199  74.0989609  59.6858406  44.7073784
  60.0201073  26.8931084  18.6165085  59.8328896  27.6244221  19.2050323
  59.8342705  26.1123047  19.1380825  73.4414291  44.9962425  33.9216003
  73.7057953  45.4634972  34.7140732  74.1311111  45.1913719  33.2871704
  54.2270584  69.2666321  16.5357761  54.3551216  68.3599319  16.8145790
  54.0369301  69.7414246  17.3448849  71.2351151  67.1033478  48.9091721
  71.0307236  67.2189941  49.8371162  71.4959488  66.1854477  48.8339577
  45.1139145   5.4955497  14.8308973  44.8210297   4.5851946  14.7896070
  45.6607094   5.6067443  14.0531559  54.6753960  13.7432165  17.9424782
  54.8453102  13.9268332  18.8664074  53.8124886  14.1232281  17.7775097
  57.7967720  26.8056564  46.9676056  56.8913193  26.5320721  47.1143608
  57.7800560  27.2420635  46.1158409  72.4531937  30.5763397  81.0417252
  72.4630585  30.5216236  81.9973068  71.5306168  30.6996689  80.8183975
  86.3764496  45.2926636  39.5396538  86.1401749  44.4214554  39.8580894
  86.8932495  45.6748962  40.2489090  19.1462460  20.7853966  73.4609070
  18.2351532  20.9566002  73.6993027  19.5101414  20.3276176  74.2186966
  51.1177750   4.7337894  66.6229401  51.3212700   5.6549430  66.4607697
  51.0848808   4.3387871  65.7516632  24.7736149  69.8406906  77.9105911
  25.1535969  69.6428909  78.7665863  25.3966045  69.4760895  77.2819595
   5.8045344  48.1787872  41.4013939   6.0012388  47.7335625  40.5771904
   5.4494529  49.0272903  41.1364594  53.7039604  40.7994347  69.5100174
  54.1389999  41.4878693  70.0130386  54.1503983  39.9938431  69.7706833
  15.8522139  69.0479279  20.9190159  15.6624222  68.4888077  21.6724091
  16.1373692  69.8774567  21.3021622  45.7984352  31.0359497  11.4439535
  45.5420303  31.6013699  10.7154016  46.7409630  30.9127388  11.3312969
  74.5433350  23.6203671  25.5315361  73.7943878  23.4967613  24.9484119
  75.1673279  24.1304607  25.0151348   2.7705500  57.9862137  66.5700607
   3.6979096  58.1934166  66.4547272   2.4266257  58.7102470  67.0932465
  27.3373623  49.4740906  56.7276688  27.8412762  49.5387611  57.5389137
  27.7096977  48.7178879  56.2740669  75.8790970  22.3702106  85.8714218
  75.2098007  22.1796036  86.5286484  76.4344101  21.5906124  85.8620071
  61.7760162  36.8287201  25.8662624  62.6884384  36.7115555  25.6016998
  61.2681961  36.5577621  25.1014519  76.2200394  15.0380745  51.5537567
  76.9868469  14.5377874  51.8329544  76.3496628  15.9070358  51.9336700
  39.8694267  45.9308739  52.9086952  39.2220154  45.6806068  53.5678291
  39.8985138  46.8866348  52.9523354  62.3517303  15.0859814  16.4200878
  62.6425858  14.5262060  17.1400089  61.4362755  14.8426914  16.2823181
  32.8082390  60.8019638  13.6137848  32.2789536  60.4107819  12.9187584
  33.3837433  60.0941849  13.9037390  68.9477386  44.9110336   8.5672731
  68.8026733  44.6129608   7.6693087  68.2016602  44.5659142   9.0576744
  52.7106247  31.0186424  15.2079201  51.7957726  31.1221352  14.9460649
  52.8450279  31.6883049  15.8785315  29.3904114  62.3298912  47.0250778
  30.2346935  62.6098099  46.6714325  29.3442001  62.7408600  47.8883286
  84.3714066  43.0745430  45.8856392  83.8992844  43.3760529  45.1094780
  84.3789978  43.8321037  46.4706841  62.4834518  51.6244049  48.2113190
  63.2936745  51.9186020  48.6275177  62.2502632  52.3340645  47.6127892
  54.5731621  36.6074982  57.4986420  54.0356827  35.8231888  57.6091270
  54.0235176  37.2050514  56.9916382  47.9933472  40.7333794  78.4739609
  48.1849365  39.8008842  78.3740768  48.3332481  41.1347389  77.6742096
  49.6360283  22.9400120   6.1800542  49.7879868  22.0133934   6.3658495
  50.0820122  23.0935593   5.3471365  13.3202553  50.4420738   4.3642235
  12.7902308  50.3247604   5.1526036  13.7340097  51.2975807   4.4788914
   3.3928821  47.8902855   1.6293318   4.0538611  48.1200523   0.9762271
   2.8302994  47.2544136   1.1872939  28.6519890  42.6336784  87.5368195
  29.3792877  42.1851425  87.9681931  28.3034172  41.9882164  86.9219131
   8.3953857  13.5929413  14.6177979   9.1466789  13.5172062  15.2060614
   8.6056938  14.3384476  14.0554609  69.4115524  55.9160843  18.5674515
  70.2505035  55.5492630  18.8464413  69.2417908  56.6248093  19.1880341
  24.9764423  10.2417965  75.0746460  24.6640434  11.0477295  74.6634216
  25.8000374  10.4906387  75.4941711  79.6882782  59.2307854   3.3030882
  80.2708054  59.9106941   2.9645405  79.5734329  59.4521484   4.2272315
  17.1553593  44.3189354  77.2354355  16.9433117  44.8043709  78.0326996
  17.9000854  43.7697258  77.4803543  39.3105202   2.1460063  18.6223717
  39.2603188   1.3288060  18.1264935  39.7827873   1.9125857  19.4215660
  34.3132095  57.3422241  16.1633549  34.6050148  57.8989487  15.4414549
  35.0194054  57.3953056  16.8073273  56.1337433  43.7712173  30.6323452
  55.9156227  43.0172195  31.1801949  55.6392288  44.4961357  31.0146809
  44.6657829  62.7726669  52.8709641  43.9990616  62.8649864  52.1903839
  44.3246880  63.2759972  53.6102524  62.1936951  64.2096100  38.4773560
  62.0033607  65.1468811  38.5165558  61.7909355  63.8501549  39.2678032
  49.8403740  46.9817200  78.1542511  49.1906662  47.5903549  78.5059280
  50.4263763  47.5312805  77.6338577  32.2800102   3.1164651  82.3488922
  32.9860229   2.7634616  82.8903503  31.4798756   2.8996730  82.8274536
  27.1465702   1.4329972  36.2992630  28.0620022   1.6973827  36.2080688
  26.7072353   2.2078927  36.6496277  13.5701799  48.4734039  44.8748665
  13.2711849  47.6239090  44.5505333  14.2974024  48.7075005  44.2981682
  37.5010719  59.9429855  31.6025658  37.1598778  59.3787079  30.9087315
  38.1743813  59.4148216  32.0314331  33.2972679  67.8472748  84.1289139
  33.9981422  68.0786209  83.5194168  33.7392426  67.3734131  84.8334351
  30.7217960  51.4505577  60.3114815  30.4307652  51.6057739  61.2100601
  30.8198910  52.3259430  59.9369049  26.3630257  39.2552986   4.6283236
  26.9109211  38.5460930   4.2920651  26.9176922  40.0334282   4.5727272
  48.9730568  53.1505585  66.4164352  48.4053078  52.5603485  65.9209137
  49.8186340  52.7027931  66.4435959  73.9887161  55.5272560  25.0105953
  74.6637726  55.9153099  25.5673199  73.2130280  56.0669441  25.1631737
  60.1168404  59.1239204  12.1636992  60.6693954  58.3600082  12.3290768
  60.4168510  59.7777405  12.7951622  84.6717987  53.3670120  54.2545891
  84.9030457  53.6804657  53.3802299  84.6978226  52.4129486  54.1816483
  83.1024628  39.0504837  36.6516991  83.0309601  38.9989586  35.6985664
  82.6419144  38.2735710  36.9687805  65.3141174   1.0091065  55.0910759
  64.9171753   0.2257267  54.7103081  65.5957947   1.5259323  54.3362350
  20.1506920  70.8895493  37.3055420  19.9534512  70.2492142  37.9891357
  19.3007755  71.0919037  36.9144859   6.2272649  18.6037369  66.8237305
   6.8202615  18.9969273  66.1834259   6.5675035  17.7184753  66.9532700
  43.4478951  21.8487930   6.4901185  42.5861549  21.4321232   6.4854794
  43.2604370  22.7861538   6.5396051  63.2464943  25.0781803  11.5842876
  62.5128555  25.6669750  11.4073057  63.9672432  25.6596527  11.8264523
  62.5782814  42.2840309  50.3373795  63.4211311  41.8535576  50.1941071
  62.6965981  43.1658058  49.9842491  51.0974426  61.8929405  87.2130508
  51.3476257  62.2438698  88.0677414  50.7212372  62.6402740  86.7480850
  50.2970009  69.3864059  89.0435028  50.9984856  69.5480499  88.4126129
  49.8209534  68.6370697  88.6855850  85.5658951   3.6676331  15.9380465
  85.7136078   3.7361188  16.8812981  85.8636093   4.5070705  15.5874214
  47.6915703   5.4786620  56.8313293  47.1254349   6.2422566  56.9437904
  47.8736229   5.1820726  57.7230263  24.2900810  61.5383492   5.3119626
  25.0101871  62.0668106   5.6560693  23.5369434  62.1291199   5.3145213
   7.9541168  48.9690361  18.3991604   8.5827618  49.4567108  17.8669834
   8.0125818  48.0701790  18.0753326  79.9801941   1.8366193  82.0687332
  80.3951721   0.9828597  82.1916962  79.2891541   1.6766906  81.4259949
  20.8956852  46.6015129  46.3040504  20.7105389  45.9891281  45.5920525
  20.7454834  47.4660149  45.9215469  36.4390793  46.4131737  61.1236420
  36.3987160  45.9630661  61.9674454  35.5596008  46.3166084  60.7583656
  27.5831890  67.8268509  75.6464539  26.7499676  67.6379089  76.0780487
  28.0380974  68.4137878  76.2504349  40.4864845  24.2233028  62.8476067
  40.9870338  23.7989769  63.5444756  39.5728874  24.0277405  63.0557632
  41.5383377  12.3034210  78.4300613  40.7796211  11.9909849  78.9229736
  41.9678917  11.5059366  78.1206512   4.4028754  12.7229786  85.4082031
   4.4278932  13.3163900  84.6575546   3.6639221  12.1414576  85.2292786
  71.3885422  30.3614178  18.9701862  72.0622253  30.8285751  18.4760666
  71.8770447  29.7551918  19.5270405  83.6628265  28.6282692  59.1086121
  83.8114243  29.4326839  59.6056709  84.4288406  28.0858192  59.2962532
  66.4947281  39.4699402  62.0281754  67.3340225  39.1024818  61.7510681
  66.7204819  40.3129349  62.4214020  48.3727188  13.7183094  55.0234261
  48.5522041  12.7842722  55.1310844  49.2047424  14.0898561  54.7303009
  66.5534515  10.2298317  12.9005003  66.0364380  10.8292694  13.4386482
  67.4620972  10.4774475  13.0716276  52.2095070  22.0658512   9.4061689
  52.2136116  22.0276432  10.3625965  51.6450500  21.3400974   9.1398935
  28.3961811   8.6444387  17.2055473  27.4898624   8.4415951  16.9738770
  28.8538151   8.6887875  16.3660011  20.0472794  14.6181345  72.7294922
  19.8085384  15.5112171  72.9777603  19.9191570  14.1053324  73.5275192
  82.7597504  60.2911110  22.0253029  81.8965759  60.6335716  21.7931900
  82.6358490  59.3432808  22.0753365  11.7181454  52.8954964  20.8990307
  12.4378128  52.5989304  20.3419323  11.4830246  52.1254768  21.4167404
  69.5990601  23.2533245  75.9408188  70.4889908  22.9115124  75.8547134
  69.1653976  23.0002632  75.1258774  72.9088364  35.4846878  65.2231522
  72.8438263  34.9645004  66.0240326  73.0895920  34.8439522  64.5353928
  82.9226151  16.0952072  65.6317444  83.0670242  16.7722492  66.2927933
  82.2794724  16.4770126  65.0343933  41.3922539  23.4769440  37.9125061
  40.8423347  22.6953125  37.8589211  40.8658714  24.1068420  38.4048271
  71.9103470  14.4357767  40.6581459  71.6217957  14.9672213  41.4001274
  71.1940918  13.8174925  40.5134621   7.4821320  55.7261086  56.5610428
   8.4092636  55.9574318  56.6171646   7.2766857  55.7848129  55.6279984
  55.9082947   8.3233500  61.1107826  56.3134460   8.9878283  60.5535088
  55.5270996   8.8187256  61.8357162  70.1676865  68.4178696  12.5552053
  70.0385437  68.1946869  11.6333895  70.8699722  69.0682297  12.5480633
  58.5050011  64.8577728  74.4439163  59.4575958  64.9350815  74.3908081
  58.3563919  64.0071869  74.8570099  53.8043404  21.1379414  80.4631348
  54.4054031  20.5033627  80.0729294  53.0836830  21.2020054  79.8364105
  84.9744034  19.4195499  62.6939011  84.9392242  18.7976131  61.9671326
  85.4558716  18.9583530  63.3807182  19.9183331  24.7069244   2.2835512
  20.1331768  25.1842365   1.4821473  20.7508850  24.3301868   2.5684361
   8.4863567  61.9534531  10.1352768   8.6790552  62.1832390   9.2262678
   9.0853710  61.2333527  10.3324375  15.2736177  31.1165562  53.0646667
  15.0187845  31.0526295  53.9851036  14.5795069  31.6364613  52.6595230
  29.3207417  23.6264534   5.2447309  29.0033512  24.0249348   4.4343562
  28.8191395  24.0580845   5.9363389  56.2252045  65.1430359  55.6110992
  57.1642761  65.2016602  55.4352036  55.9738960  66.0300903  55.8684349
  32.4624405  63.5841904  46.2564888  32.6395683  64.3024292  46.8639374
  33.1170883  62.9203148  46.4731369  55.6943321  38.8685074  12.0955343
  55.8191071  37.9514809  12.3399258  55.6874886  39.3396339  12.9287367
  79.8523560  36.6634712  61.2119637  78.9547882  36.4694710  60.9418488
  79.7670593  37.4042854  61.8120880   7.3391366   8.0621557  76.3967438
   7.1775746   7.5078478  77.1602020   8.2867756   8.0220699  76.2678833
   7.4147024  56.4679604  19.8714104   7.1537309  56.6903725  20.7650871
   7.9284120  57.2203140  19.5776443  81.0884552  26.7467289   8.1035690
  81.9730377  26.5161343   8.3874254  80.8604889  26.0751381   7.4607396
   2.1444092   3.9599202  11.2080059   2.3640804   4.8230391  11.5587225
   2.6345310   3.9028451  10.3877897  42.1884918  47.9428940  18.2571888
  43.0432587  47.6196213  18.5419750  41.5740089  47.2567177  18.5175819
  29.9922371   3.6254609  70.2924042  30.8747997   3.6001010  70.6621017
  29.8655167   2.7549469  69.9150772   7.4795847  63.1484909  28.1364460
   7.7220902  63.4346237  27.2557907   7.3588324  63.9611702  28.6275711
  74.3066406   7.3214755  38.5797005  74.3222504   6.5006232  38.0875740
  74.5096512   7.0652604  39.4793549  45.2497559  45.2855034  54.1745911
  45.3864594  46.2296257  54.2531891  44.2987480  45.1786957  54.1947441
  61.2787476   3.1153705  61.4820518  61.9463654   3.4327412  62.0901566
  61.7679100   2.6140547  60.8296471  57.4481506  71.2804108  48.4088211
  57.2624321  70.8317795  47.5839157  56.8706436  72.0437393  48.4016190
  67.2526169  35.6467133  80.7147217  66.5562973  36.1083755  80.2475586
  67.3222885  36.1034775  81.5530167  65.2847900   2.1552713  81.5221100
  64.6962204   1.4315418  81.3075638  66.1367874   1.7397474  81.6550827
  11.0619583  35.0190811  22.7559738  10.2722540  34.5145187  22.9509487
  11.4337149  35.2232056  23.6140881  19.4556217  22.7093353  10.2513485
  20.2591476  22.2368603  10.4689369  19.2291775  22.4047756   9.3726006
  41.5400238  66.7106247  41.6403122  40.6124268  66.5982590  41.4325294
  41.5940285  67.5828323  42.0309029  16.3688831  54.1766052  26.7793083
  15.4713879  54.0799294  26.4608974  16.4279728  55.0913239  27.0550404
  57.5520515  52.0657997  42.8115311  56.6383667  52.2775078  43.0028343
  57.5699997  51.1103706  42.7561760  57.1809006  45.0011292  57.8763428
  56.6895142  44.5094872  57.2182770  56.5854874  45.0627708  58.6232796
  76.5509872  22.8625164  75.0552521  76.1585083  23.6604290  74.7009506
  76.3146973  22.1800327  74.4270706  76.3392181  30.1404133   5.2105150
  77.2193146  29.8141232   5.0229125  76.4684219  30.7993031   5.8927188
   6.0459356  51.8564339  75.1722870   6.1531425  52.7931404  75.0070038
   5.7887130  51.8035393  76.0927658  50.8897247  19.7661018  88.3378677
  50.4525604  18.9581928  88.0687866  51.7783089  19.4930439  88.5660858
  25.1999683  40.4646530  49.4509811  25.9558868  40.8514900  49.8927689
  24.4819546  41.0722237  49.6285973  68.9638138  49.6128006  18.5042458
  68.9646072  48.7611046  18.0673828  69.7299652  49.5886421  19.0775299
  52.2390633  26.7492847  56.0290833  52.1428223  25.8423634  56.3197098
  52.3561745  26.6858940  55.0811920   8.7685490  32.3973351  87.9178162
   8.3876152  32.9139595  88.6278992   9.6816435  32.6817551  87.8778610
  56.0115089  51.9007759  49.5446167  56.4141197  51.0566711  49.7486458
  56.3401985  52.4926987  50.2212448  56.9855919  17.9057846  69.9943466
  56.7543793  17.1407261  70.5210876  57.8672142  18.1391602  70.2850494
   8.8742056  64.7610016  41.0854263   8.8374910  65.6085205  41.5288124
   9.7353020  64.7463531  40.6676559  33.2263145  27.1083870  65.8604202
  32.5809326  26.7532940  65.2491760  33.9936714  27.2921238  65.3185425
  57.4618797  38.5551109   2.6564739  57.5704689  37.6045341   2.6274226
  56.6053352  38.6860123   3.0632014  75.8192215  23.4701824  29.6462669
  75.2683182  23.5388641  30.4260254  75.4987106  22.6894913  29.1945744
  66.0809021  42.3574142  70.6509399  66.9944305  42.2845345  70.3745728
  66.1089096  42.2492409  71.6015930  37.3191490  31.9399319  67.0242996
  37.3545876  30.9850597  67.0808258  38.2311935  32.2071266  66.9102325
  46.7265739  54.0933418  48.6092644  46.7713776  53.4180336  49.2861557
  47.6079369  54.4658775  48.5838928  80.3451614  48.7151680  27.6245003
  79.8937836  48.6984062  26.7805748  80.8156433  49.5487518  27.6279640
  63.9626999   6.2015572  49.0366440  64.0064926   6.7208776  49.8395233
  63.8940697   5.2964015  49.3403130   4.6487470  34.5211067  14.5454369
   5.3712354  34.1638489  14.0290947   4.0567999  33.7799530  14.6739740
  55.9172974  38.5975952  81.3961258  56.3614693  38.3295784  82.2005539
  56.0239029  39.5484543  81.3690643  78.4729996  21.4194603  46.2931862
  78.7699127  20.8577137  45.5772820  77.5379333  21.5421314  46.1293640
  81.1840897  40.7596092  85.4633789  82.1336517  40.7707443  85.5835724
  81.0569992  40.9769020  84.5398712  12.7477512  64.4073181  77.2166748
  12.6111975  65.3460770  77.3443680  12.2351971  63.9940376  77.9114609
  86.1751709  40.5184860  79.5909424  86.6985474  40.6561127  78.8013992
  86.3372116  39.6057968  79.8296356  43.5858192  22.3049908  15.1477184
  42.8369293  22.7201538  14.7198915  44.2303886  23.0070343  15.2365646
   5.6156545  41.4189072  18.4833202   4.8287339  41.4812202  19.0247116
   6.3363981  41.5999680  19.0866261  47.9923439  33.2441177  48.7198601
  48.7317085  33.8234177  48.5355148  48.1101570  32.5072327  48.1203995
  24.5475883  11.7330875  82.7883759  24.4872379  12.1889887  83.6278610
  23.6442223  11.4953833  82.5794296   6.7333641  65.7922897   4.0763040
   6.7347937  66.6372375   4.5260754   7.5863194  65.7496262   3.6440089
  19.2655067  38.3365479  81.0362320  19.2782631  38.2561111  80.0825043
  19.0420036  37.4594383  81.3476028   3.8723252  51.7911263   0.2346160
   4.3811922  51.4541626   0.9720039   3.1512094  51.1692505   0.1371668
  57.5031929  54.8645172  86.2573242  57.4024887  53.9126282  86.2585373
  57.6730881  55.0862274  85.3417892  21.3313713  38.6099701  19.1189213
  20.7262001  39.2446823  18.7353306  21.4282169  37.9350739  18.4470787
  19.8011227  36.5356827   0.5149804  20.5253429  35.9098434   0.5070004
  19.6570377  36.7470322  -0.4074087  82.0587692  43.1239014  28.5707169
  81.9076691  43.8381004  27.9515877  82.9960556  43.1656418  28.7604179
  81.3754730  42.6609955  76.1472015  82.0066071  42.4079208  75.4735107
  81.8928223  43.1464005  76.7898331  14.4244938   7.4898958  52.3836327
  14.7013264   6.6778030  51.9592514  15.1799335   7.7557497  52.9079094
  76.4291840  17.2816811  63.6444969  77.0599899  16.8703213  64.2353439
  75.5772171  16.9676456  63.9474258  85.4595947  23.0396538  20.4185600
  84.9439926  22.2936306  20.7248974  86.2918854  22.9633312  20.8851318
  50.0858574  47.0515060  31.4669151  50.3121452  47.3210258  32.3570747
  49.6590347  46.2016068  31.5751972  67.8708954   8.5804853  58.7676544
  67.9987793   7.9550977  59.4809341  68.6651611   8.5061550  58.2386551
  44.4600296  46.3089676  62.1717682  44.9849243  45.9237289  62.8734169
  43.9919891  47.0307846  62.5914726  24.1516380  60.8822327  41.0054893
  24.3574467  60.6651077  40.0962410  24.5125332  60.1552544  41.5129242
  67.3833389  33.2722092  11.9625826  68.1604691  33.6618156  12.3632154
  67.5392761  32.3287659  12.0053244   6.3823242  37.6467094  65.5280533
   7.1321630  38.2194786  65.6890182   6.6503716  37.1039009  64.7866135
  80.2656250  13.8136673  27.2876816  80.6121445  14.5102196  27.8453293
  79.9566116  14.2664604  26.5030041  59.8827438  21.6900272  83.2588272
  59.6438789  21.4543018  84.1552658  59.9352570  20.8532352  82.7970352
  14.7760715  14.3426704  55.0055466  15.2175045  13.8928585  54.2851067
  15.0289888  15.2604389  54.9057236  16.1050320  27.6982174  75.8579330
  16.1713467  27.5760536  74.9108810  15.6419106  28.5296421  75.9603348
  17.8822479  38.4120255  75.7357941  17.1474609  38.9592323  75.4585190
  18.5055161  38.4627647  75.0110931  79.9204559  58.1451569  26.1244984
  79.9086456  57.7966003  25.2330933  80.3604126  58.9915237  26.0449123
  45.8409958  64.7398453  69.9677811  46.4506378  65.3074570  70.4393539
  46.3401833  64.4263535  69.2136154  58.8659592  69.3723373   9.1104889
  59.7351761  69.5456848   8.7490311  58.4079399  70.2103043   9.0451918
  74.8195267  11.5852795   2.1858189  74.6506958  11.4116421   3.1118746
  75.6667633  11.1736755   2.0155351  84.7818375  67.0875778  86.8103409
  84.0820770  66.4547272  86.6488647  84.8720016  67.1070480  87.7630844
  65.7631226  42.8669395  43.2966957  65.7065735  43.4497528  42.5394897
  64.9121246  42.9500198  43.7269669  68.2250748  15.7143688  43.1022072
  68.4872742  16.0709743  43.9509201  69.0072250  15.2678270  42.7780647
  43.9431000  64.6914749  54.5464478  43.7482872  64.4575882  55.4539604
  44.8617744  64.9599609  54.5602264  23.2909698   6.7458076  70.0252686
  23.5821552   7.3265910  70.7282104  22.3810730   6.9978476  69.8677979
  27.0834293  71.1988907  86.3216705  27.3609314  70.5017319  85.7273712
  26.9435883  71.9564285  85.7535019  11.6884623  36.1590042  75.0846481
  12.5359087  36.4643631  74.7608795  11.1619253  36.0325928  74.2953339
  77.3562851  71.4935226  31.1975479  77.2830353  71.7528534  30.2790642
  77.3707123  70.5366745  31.1758366  49.3352890  33.3506851   0.5583498
  49.0150948  33.2832909  -0.3411869  49.9249077  34.1046410   0.5468522
  73.5287857  43.3708649  51.8391151  74.1048889  43.7971916  52.4736061
  72.6914139  43.8249969  51.9329491  17.9224815  69.0435944  14.4988680
  18.8127518  69.1309509  14.8394823  17.5900784  68.2408218  14.9004927
  54.5658531  24.1758976  87.2473907  54.4499435  24.4615974  88.1535797
  54.6634026  23.2255173  87.3065033  16.6940308  56.8318672  87.0050049
  15.9773712  56.6127357  86.4095078  16.4688969  57.6991081  87.3418121
  60.3586922  28.8990841  49.8327103  60.9975204  28.4301262  50.3695602
  60.8595924  29.6075516  49.4284821  14.3001871  14.6413059  79.1853027
  13.3561239  14.7950974  79.2217102  14.6848812  15.4142027  79.5986710
  17.1231689   5.5925717  85.9820099  16.5983639   6.2726569  86.4042664
  16.4842815   4.9388957  85.6978302  84.7835007  24.0360718  82.9420166
  84.7738113  24.1135674  83.8960190  84.6022339  24.9219112  82.6279068
   4.2276344  30.0967636  57.4010391   3.4284022  29.6345634  57.1483917
   4.5267625  30.5164433  56.5944290  67.8239899  58.7606621  19.5323105
  67.4732056  58.1583977  18.8762150  67.7816086  58.2711334  20.3537693
  81.2847290  66.5325470  59.5388641  80.9215240  66.1257248  58.7522202
  82.2322845  66.4381332  59.4416389  56.4274521  48.7704163  52.0704308
  55.8424225  48.0864983  52.3963585  56.5866814  48.5339622  51.1566658
  82.4301147  34.6431351  43.8069344  82.0459290  34.3663750  44.6388206
  82.3693619  35.5983009  43.8210564  58.5609703  55.9014091  89.1453781
  58.7263794  55.1284485  88.6055603  58.0603027  56.4873238  88.5776978
  43.6501694   0.8273937  74.5466766  43.8828964   1.5166579  73.9245987
  44.1337967   1.0495366  75.3422852  39.2301788  63.6218300  80.6096954
  39.0198059  62.8117981  80.1451187  39.3726578  64.2657394  79.9159317
  51.4115143  29.1466866  71.8362961  51.9054222  28.3362827  71.7116623
  50.5424995  28.9540997  71.4842300   1.9541993  34.0367393  72.9771347
   2.2956264  33.3088799  73.4966431   1.0292710  33.8262939  72.8488693
  10.7510643  54.1442223  18.5724850  11.4698448  54.7613564  18.4356308
  11.0391493  53.5996513  19.3050728  65.0422363  13.3895369  50.6933784
  64.4976730  13.1446924  49.9452248  65.5371552  12.5964680  50.8991203
  39.7162018  49.4110527  27.8720512  39.7843208  50.1600609  28.4641457
  38.9516945  49.6036148  27.3292065  72.6534729   5.3609619  42.7715149
  72.8350906   4.5850163  42.2412758  73.5141983   5.6523066  43.0723534
   6.0444393  63.2580376  33.4589348   5.6142697  63.6826515  32.7167168
   5.9670062  62.3214989  33.2769165  83.4715271  13.5373306  26.5426159
  82.7179413  13.0522165  26.2064495  83.9714737  13.7745275  25.7615776
  67.0410538  41.9700928  62.7417297  66.2870255  42.5028954  62.4891472
  67.7177200  42.6066818  62.9722023   0.3823264  23.4601269  60.9656410
   0.3947096  22.9039669  60.1866913   1.0993041  24.0794430  60.8291779
  48.4820900  16.6654720  52.8416557  48.5915146  16.6724224  51.8907547
  49.2705917  16.2336559  53.1703339  60.9316406  33.9497910  81.8549957
  61.1125870  34.3984413  82.6809540  60.8300781  34.6555023  81.2163391
   9.9415379   6.2870655  75.7162094  10.7093887   6.8439579  75.8446960
   9.9436808   6.0884643  74.7798386   2.6193509  50.9918861  81.8558807
   2.1459637  50.2787857  81.4273605   1.9772542  51.3840485  82.4476166
  38.5199814  10.1296101  72.9163666  38.4600182  10.4141455  73.8283310
  39.4218903   9.8239326  72.8196487  29.2655296  19.9404182  87.3180695
  29.9969673  19.3712463  87.0787506  28.7897568  20.0763283  86.4986801
  41.4973526  49.3437653  47.6407509  40.8570633  48.8861427  47.0959206
  42.0991211  48.6580124  47.9303246  63.7472458  33.8114624  76.7088547
  63.7783661  32.8646812  76.5714798  64.5802078  34.1312752  76.3622589
  85.4638748  19.4706688   2.7564578  84.5097427  19.4615154   2.6804206
  85.7668076  18.9167976   2.0369511  68.9772797  66.2506332  16.8484154
  69.9022369  66.4507980  16.7048473  68.9664307  65.3221512  17.0808811
  60.5225296  47.5942230  46.0136909  61.1391220  48.3116112  46.1599846
  60.1269188  47.4397392  46.8715096  11.6782169   1.6579829  15.8823776
  10.8930407   1.1134245  15.8259411  12.3453608   1.0788697  16.2508602
  83.0010529  55.7981987  61.2994423  82.1586380  55.3505211  61.2209587
  83.4225082  55.6661110  60.4502335  83.4333191  59.6125603  71.2506409
  82.6479034  59.2299004  70.8595734  83.9088364  58.8651314  71.6132202
   6.8862410  55.1960106  70.5586853   6.4849272  55.2766685  69.6934280
   7.8231354  55.1123505  70.3813095  14.9723635  67.7506866  86.5843124
  14.6529074  67.3720932  87.4033661  15.6490440  68.3711624  86.8551331
  56.1494598  30.4023113  68.5634842  55.4362946  29.7772789  68.4332428
  56.3441353  30.7299519  67.6854248  40.3820114  55.2301903  38.6572647
  40.7127533  54.3760986  38.3791084  39.6305084  55.3932304  38.0872726
  65.5098648   1.0878674   4.9463205  64.8069382   0.6690910   5.4430566
  66.3035278   0.6283379   5.2204857  44.8530579  52.5978432  24.4262848
  44.9177170  51.9003181  23.7739754  45.7391434  52.9553871  24.4832516
  81.3528595  66.5814743  67.3363953  82.1661301  66.7940598  66.8785400
  81.1202164  65.7089844  67.0187836  51.4303741  33.1559029  38.5576935
  51.2304153  32.2766914  38.8790016  52.3202629  33.3269539  38.8660316
  57.3572350  49.7114105  82.7019424  57.2326508  49.1816406  83.4893799
  58.2645149  50.0116043  82.7563095  54.1451149  64.5202713  27.1615200
  53.2163124  64.7148285  27.2868423  54.3343391  64.8183365  26.2718105
   7.6441922   1.8291062  67.4735641   8.0427818   1.5082010  66.6646271
   7.7943840   2.7742870  67.4560242  77.4281235  22.8838348  65.6136322
  78.2502594  22.3970909  65.6719666  77.6182327  23.6038857  65.0122910
  54.5454483  33.1134109  74.9289169  53.6127014  32.9032364  74.8837357
  54.6735687  33.4445343  75.8178406  21.4139290  59.4569702  81.4843369
  20.6555767  59.9939957  81.7139893  21.0463314  58.5956383  81.2863312
  55.4808578  63.8212280  20.5338573  55.4388809  62.9745827  20.9784508
  55.0630875  63.6677246  19.6864300  63.5437241  20.1727695  13.8323851
  63.7275734  19.9854374  14.7528944  64.3773346  20.4848652  13.4803495
  43.4990692  69.7570114  11.1521807  43.6110458  69.2525864  10.3464203
  42.6243477  69.5223465  11.4620543  78.9875488  20.2009411  21.0861778
  79.6554565  20.5462189  21.6785603  79.0369720  20.7651978  20.3145542
  72.4270859  62.0686531  64.2371292  73.2264328  62.2988739  63.7635460
  72.7046051  61.4021759  64.8656464  57.4507942  51.0257225  54.1739655
  56.5825081  50.9790192  53.7738037  57.5212021  50.2213249  54.6879883
  47.5981255  48.8790321  23.0392075  48.3120041  48.8009071  23.6720657
  47.9518166  49.4374771  22.3469124  74.7228165  15.8715019   2.6881278
  74.7553406  15.0853758   3.2332685  74.5702591  16.5858173   3.3067646
  16.3765907  18.3704205  85.6972275  16.7788277  19.0103569  85.1099243
  16.5827293  18.6890640  86.5759735  44.3873634   1.8885475  31.4265041
  43.5647545   1.7030352  30.9735870  45.0544853   1.8374016  30.7419853
  45.3044510  45.2929001  24.3928299  44.4349022  44.9753418  24.6362915
  45.4107895  46.1043205  24.8893394  54.9584923   7.6130376  35.4912415
  54.8346100   8.5257282  35.7517815  55.3788948   7.2031126  36.2471886
   1.4907993  53.3023186  76.8561707   1.6021961  54.2517052  76.8062820
   2.3267198  52.9804878  77.1936493  71.4151917  58.5088005  18.4765453
  72.1500549  58.0913353  18.9259033  70.6382675  58.1648674  18.9173794
  23.7972450  31.6254673  16.4237957  23.7557850  32.2796326  17.1213493
  22.8930149  31.3294792  16.3189640  48.4798050   9.3589287  49.7143822
  48.4217453  10.0666447  50.3562546  49.1636162   9.6417542  49.1072235
  12.2007542  71.0825348  48.8073997  12.2577972  70.3201218  49.3833351
  12.4724073  71.8181839  49.3562660  82.9537964   7.4357939   0.5809470
  82.5057144   7.7297106  -0.2121874  82.2559204   7.3411589   1.2292064
  25.9120865  35.0215149  71.2480011  25.8815231  35.7984200  70.6896896
  25.4853954  34.3381615  70.7310944  61.7470474  62.6467209  63.2222366
  61.0083885  62.0454407  63.1269760  61.5815773  63.3335991  62.5764465
  57.6804848  33.7354469  34.0079765  56.9028282  34.2869530  34.0935593
  58.4051361  34.2997017  34.2776642  42.9478951  35.3488998  26.3588123
  43.3819847  35.9094048  27.0019550  42.0471535  35.6714211  26.3292198
  26.4721127  47.5391998  23.1877804  26.6644821  48.3882294  22.7898159
  26.1946888  47.7499275  24.0793304  16.0318222  67.9355316  52.3130341
  16.4945221  67.3496628  52.9121094  16.2669182  68.8149948  52.6088486
  16.2235603  19.1454277  88.5657578  15.3387547  18.9888458  88.8956528
  16.4797325  19.9816494  88.9547806  36.4487991  34.1915855  63.6787720
  35.5674362  33.8712730  63.4868546  36.4954262  34.2062721  64.6347275
  71.5817795  32.5169144   0.4001516  71.4056396  32.9157753   1.2522751
  71.8800354  31.6312714   0.6073090  81.5687485  50.7846985  52.4179840
  81.7184677  51.4180183  51.7160454  80.7714157  51.0904694  52.8504105
  50.3394737  20.6980839  19.9161568  51.1824913  20.3153839  20.1592579
  49.7751617  19.9444313  19.7435627  17.7483120  61.9768410  89.0266724
  18.2834415  62.6642609  89.4233093  16.9979668  62.4413567  88.6559372
  79.8198395  17.7371960  74.6731415  80.1665268  16.8549805  74.8063202
  80.1618958  18.2427845  75.4104462  48.7308998  29.2611847  89.2527084
  49.3553276  28.6259003  88.9023743  49.0444183  30.1069221  88.9322891
  85.6238556  51.3949661  32.7982445  84.8796082  50.9447098  33.1977310
  85.3151474  51.6406479  31.9261360   0.3283674  39.2593193  12.4590244
   1.1715522  39.6335297  12.7144423   0.0205751  38.8049202  13.2432547
  40.3370094  49.9081078  86.2193985  40.1550331  50.8361855  86.3670197
  40.5415459  49.5629539  87.0884628  71.0403900  20.5571461  14.0446415
  71.5785675  19.9593048  13.5258150  70.1423950  20.3690586  13.7717667
  30.9006882   3.3631339   2.0755031  30.7141743   2.5787938   1.5595045
  30.1541901   3.9398286   1.9130393  59.9236946  18.8080540  87.0865326
  59.7126694  19.4574318  86.4157104  60.7061501  18.3672085  86.7554092
  77.0566330  41.2874603  83.9077148  77.0847549  41.9282112  83.1971664
  76.4923248  41.6878777  84.5691223   2.1170821  10.4831448  76.0062866
   2.9419491  10.7319050  75.5892181   1.9933771  11.1324654  76.6986084
  70.2810745  20.2891731  80.5303726  69.8251495  20.5056057  79.7170334
  70.8630371  19.5669537  80.2938385  17.1712437  64.7346878  45.7022209
  17.3331318  64.0532684  46.3546715  16.2691059  65.0111160  45.8633728
   5.0045285  29.4186630  11.4046717   4.6671495  28.9507427  12.1685162
   4.3337975  29.2956753  10.7329388  23.8303642  55.0404816   2.3472779
  23.7810726  55.5163155   3.1763628  23.4452019  54.1853409   2.5386462
  46.2143211  38.3552742  13.4896402  45.3452873  38.3857269  13.0895300
  46.7638550  38.8818207  12.9091339  62.4621239  31.6048012  22.1713486
  63.1102753  30.9340191  22.3862553  61.9292107  31.2104397  21.4809017
  55.5563545  70.7540588  77.5300140  56.3204384  70.8052292  78.1042862
  55.0385704  71.5282745  77.7507324  78.6728134  52.3696632  63.1879921
  78.3588867  52.7801170  63.9937248  77.9748993  52.5260811  62.5518494
  41.2017441  63.2824707  67.1233902  41.9522552  62.6963005  67.2201996
  40.7251549  63.1997871  67.9493790  81.5809174  24.9158611  84.1264648
  81.6901703  23.9960461  84.3677902  80.6330719  25.0484695  84.1110077
  38.5295715   3.3432739  73.3941040  38.0807076   3.6150510  74.1946564
  39.3773155   3.0155098  73.6943130  62.0013618   1.5873525  59.4194221
  61.7859764   0.6605071  59.5233345  61.8178406   1.7741371  58.4987373
  39.5729980  49.3697929  40.5177689  40.3074722  48.7574615  40.4749947
  38.8443108  48.8468056  40.8520393  25.1967831  48.6144867  82.1692657
  25.4170513  47.9232903  82.7937393  24.8216858  48.1504326  81.4208069
  10.4696293  38.4003906  47.2533379  11.1138010  38.1776619  47.9253960
  10.2563009  37.5640488  46.8395081   3.8241563  46.3226776  82.1547546
   4.4380293  45.5883904  82.1402512   3.9084966  46.6880112  83.0354691
  59.0470085  59.5906258  84.5280762  59.3554802  59.3006439  85.3865509
  58.4599953  58.8931007  84.2363358  25.0597057  38.0273209  42.9166336
  25.8545170  38.4796562  42.6339607  24.9799099  37.2857628  42.3166733
  26.6599617  35.5327187   8.5448685  26.6406155  34.6284904   8.2314606
  25.7517529  35.7247772   8.7783241  63.6617279  41.5171776  26.6424904
  64.4239807  41.5477524  26.0643330  63.5390244  40.5861816  26.8280163
  77.3992920  14.4419918  65.9128036  77.5291519  14.2904816  66.8489685
  77.4856415  13.5753508  65.5156708   6.3050652  30.7871590  80.1962433
   7.1052189  30.4500961  80.5992050   6.6067543  31.2467461  79.4126663
  46.4510880  48.4370956  60.4932899  47.3482018  48.7646446  60.4290047
  46.4507599  47.8925781  61.2805214  29.9470997  42.3790054  84.1539230
  30.6105595  41.9889488  84.7230530  30.4055576  43.0875664  83.7022629
  73.8704987  45.9434624  57.0749054  74.8065567  45.7832527  57.1947327
  73.5214539  45.1063080  56.7690086   9.8368845  60.6389618  41.4379311
   9.0730448  60.0625191  41.4601784   9.7942438  61.0600510  40.5793877
  55.3492393  41.9490242  86.9397812  55.7406158  42.3681717  87.7061844
  55.7677765  41.0892334  86.8971252  41.1507721   4.8893394  76.6554489
  41.6866455   5.5273023  77.1267014  40.9279366   4.2309957  77.3135986
  85.3762589  10.2426167  12.4803905  85.0609207  11.1426640  12.5622931
  85.1991119  10.0087404  11.5692635  11.1332817  52.0939140   8.6437540
  10.2287369  52.4069366   8.6369438  11.4741049  52.3649292   9.4961758
  64.9599228  11.9822111   4.0559044  65.8010788  11.6320047   4.3492312
  64.3161697  11.5777607   4.6374869   2.6476073  23.2239532  75.2954788
   2.6502988  22.3095264  75.5784073   1.8422247  23.3147278  74.7862167
   6.4386034  63.2185364  13.4340181   6.4781117  63.3228073  12.4833345
   5.8151498  63.8851585  13.7223768  10.4837961  48.6474724  25.1084404
  10.2111139  48.1491966  24.3379879  11.4006453  48.4050674  25.2382832
  25.3270397   0.4600611  21.7171249  24.8265533   1.2466913  21.9338207
  26.0846500   0.4896842  22.3014030  20.8145218  40.9960442   5.7685585
  21.0234051  40.7464104   4.8684006  21.0160446  40.2165070   6.2861924
  78.3935318  66.2170944  78.3493729  78.4849243  65.4637527  78.9327698
  77.5627213  66.6182098  78.6044998  10.0815449  51.2898979  84.9329147
  10.7188749  50.8418999  85.4890976   9.3328972  50.6944122  84.8989258
  30.0023975  41.7064133  49.2432327  30.6061554  41.2323418  49.8150406
  30.4093094  41.6644440  48.3778496  48.2051125  27.1734200  56.7275200
  48.6490135  26.4372272  56.3065605  47.2744026  26.9580173  56.6674118
  51.9756470  47.1304855  66.8218994  52.4785004  46.3640480  67.0974808
  51.1236534  47.0226250  67.2446365  33.2886772  23.6657009  69.0640945
  33.1590347  22.7182178  69.1053391  32.5756950  24.0281124  69.5899734
  65.2059402  58.4915314  22.3883228  65.9975967  58.2084122  22.8458729
  64.8474579  57.6884079  22.0105438  54.0327415  49.9324226  39.2565460
  54.0440178  50.8886337  39.2985840  53.1347237  49.7142105  39.0071983
  17.9597721  56.2873917  47.1182556  17.2676811  56.6582985  47.6656761
  18.7728367  56.5945091  47.5193024  80.6901474  19.8336964  33.0755196
  81.1158447  20.2611771  32.3323631  80.9464340  18.9143791  33.0020103
  81.9210129  67.5739899  46.9251213  81.2771912  68.1839752  46.5650711
  82.2836075  67.1287918  46.1592484  44.2492561  51.0140762  37.8890381
  43.5146408  51.1223106  38.4930687  43.8509712  50.6814728  37.0846901
  49.6603928  43.2290802  61.7476311  49.0370331  42.6221352  62.1467209
  50.2348595  42.6716690  61.2227402  75.0476456  48.3378983  25.8403091
  74.9012222  48.8312416  25.0332108  75.7028046  47.6812325  25.6041164
  31.8551311  33.7585220  70.2221375  31.9548721  33.7137604  69.2712021
  31.2785530  33.0253716  70.4372635  37.9002266  19.2427597  13.1169424
  37.1622620  19.3912182  13.7082119  38.0550423  20.0945187  12.7085638
  43.6977348  67.4732056  21.0978642  44.4110794  68.1062241  21.1794662
  44.0602951  66.6578217  21.4441757  67.5140533   4.2482967  16.0708733
  67.8102722   3.5089748  16.6018066  67.3732224   3.8766284  15.2000914
  57.7734680   4.8730927  59.5502586  57.3864861   5.5385175  58.9813232
  57.2650375   4.0816183  59.3733406  33.0216637  60.7539215  81.2809601
  33.2889709  61.4104843  80.6377640  33.7032852  60.7848854  81.9522781
   4.5907116  36.7701683  62.1279068   4.7691402  37.5197945  61.5600548
   5.3518286  36.7213173  62.7063065  62.6421776  47.5816727  31.8748302
  62.1246681  46.8655777  32.2431068  62.9954414  47.2269478  31.0589828
  13.8057861  68.3901978  14.3451080  14.6777763  68.4030075  14.7396975
  13.4949961  67.4949570  14.4799662  62.6441498  51.1161995  38.1640625
  62.1312332  51.1928673  38.9685936  61.9915733  51.1080437  37.4638405
  20.8911610  19.2131958  75.0841751  21.3645649  19.9952164  74.8003464
  20.8053703  18.6841202  74.2911148  74.3056641  11.7779512  46.0623360
  73.9839630  12.0439091  46.9237328  74.7418900  12.5574780  45.7184219
   0.1828405  26.4513874  -0.2871212   0.9950655  26.7003002   0.1539731
  -0.1288951  25.6875134   0.1982124  46.8755188  -0.2135480  42.8859673
  45.9282761  -0.2719185  42.7612648  47.1352806   0.5617898  42.3883667
  81.3696899  63.8914986   0.4640677  80.9428177  64.0029678  -0.3853977
  81.2378540  62.9681129   0.6790305  68.1693115  38.9706268  23.7061577
  67.7405624  38.7588234  22.8769760  69.0989380  38.8116493  23.5425682
  62.4005280  13.2553082  18.3660126  61.5283775  13.2212362  18.7589855
  62.8389282  12.4673786  18.6872654  84.0452881  42.3069992  68.9207458
  84.8534241  42.6891098  68.5784836  84.0281906  41.4203911  68.5603790
  20.3635178  48.8817101  52.2330246  20.5489788  49.0493889  53.1569939
  19.9865551  49.7008629  51.9119034  52.7276993  36.5761108  35.5761566
  52.0959320  36.9619217  34.9693184  52.1931076  36.0741653  36.1913795
  67.0491333  50.5659981  81.0305634  67.8692322  50.9201431  81.3744354
  66.6727600  51.2841759  80.5218353  10.8340569  30.2866821  42.6301384
  11.6494465  30.7443142  42.8349380  10.4793282  30.7557411  41.8749008
  48.0581322  23.1638832  75.8537445  48.4593811  23.7320900  76.5112991
  48.7978020  22.7287407  75.4297485  35.0953064  31.8404274  84.0583267
  35.8124847  31.3727188  83.6303864  34.3028450  31.4144688  83.7315292
  19.3467178  26.5309753   6.1626172  18.9313583  25.7383251   5.8228931
  18.9107094  26.6898727   6.9998026   2.2030141   3.7351298  67.4809113
   1.2785041   3.5576289  67.6541290   2.3710921   3.3238819  66.6330566
   7.2019300  46.4035110   5.2409205   6.9059224  46.4755287   4.3334928
   6.4143920  46.1689987   5.7318563  61.1907310  19.3821831  24.5231152
  61.7880478  19.0033722  25.1680546  61.1719666  18.7438488  23.8100872
  26.3194485  26.4611015  15.4406776  26.4351082  25.5195580  15.3128157
  25.9385624  26.7694664  14.6184444  45.0908394  21.8442059  72.9408340
  44.8934593  21.9772606  72.0137100  45.5582924  22.6374760  73.2024460
  59.3269043  11.1689053  77.7896042  59.0710030  12.0912495  77.7844620
  58.7569771  10.7658691  78.4445724  16.8381844  43.1672440  17.1411018
  15.9279461  43.2968330  16.8748264  16.8211212  43.2392044  18.0954418
  40.6869049  39.6907768  86.4299774  41.1575813  40.1105347  87.1500397
  41.3653755  39.2291794  85.9371872  17.4762840  70.9849625  81.5020370
  17.0479488  70.4154434  80.8629684  18.2907295  71.2526779  81.0763168
  53.6557159  30.8909092  33.6846237  53.1529121  30.0768433  33.7114296
  53.9078751  30.9865494  32.7662048  15.5005827  15.8882074  85.8485794
  15.9498672  16.7119350  86.0379181  16.1356621  15.3793297  85.3446426
   3.5263970  69.9370499  26.8808804   3.0767884  70.4970474  27.5137196
   4.0519261  69.3434525  27.4172497  72.6153107   3.2427142  80.1049271
  73.1194687   3.7926793  80.7045898  72.6971893   3.6767411  79.2557220
  43.7791862  33.2141113  80.0086670  44.4236755  33.2414932  80.7158585
  43.7176285  34.1199455  79.7055054  42.6256981  46.3922310  82.1985092
  41.9899902  47.1070595  82.1648865  43.4322357  46.8033981  82.5094223
  34.1794243  49.9295998  75.2363205  33.7662201  49.4380264  75.9461441
  33.5924263  49.8111076  74.4895782  47.1250343  50.1770630  71.5897141
  47.4164047  50.9850349  71.1671982  47.2275124  50.3461151  72.5262756
  67.6265869  45.2637138  18.4738274  67.8369064  44.3343239  18.5645695
  66.8056183  45.3715019  18.9540615   3.3820894  26.9193420  70.9102478
   3.8267746  27.7440491  71.1060638   2.6087911  26.9243755  71.4743576
  45.0864105  12.6472607  39.4859734  44.5697899  13.4406357  39.3449287
  45.7688446  12.9122972  40.1026344  63.1579514   6.0678725  13.6197767
  63.6696167   5.5170021  13.0273476  63.6552429   6.0663667  14.4376583
  84.1128693  64.2281494  24.1575260  84.7537994  64.9271927  24.2870293
  83.4161453  64.6344833  23.6420708  33.4100494  37.2396164  63.4217377
  32.4970093  37.0977135  63.6716461  33.4784088  36.8671646  62.5426254
  71.5643845  33.8013649  42.9002419  72.4719467  33.9761963  43.1492348
  71.0647430  34.5125008  43.3013344  58.6162453   5.8058963  61.8658829
  58.8028183   6.7429762  61.9233513  58.6740837   5.6070380  60.9313545
  20.8371925  61.9701157  14.1449909  19.9357986  62.1063385  14.4368229
  20.9844437  61.0304756  14.2528296  77.0574265  64.4738693  48.3702164
  76.4327469  64.9807968  48.8888931  77.7621536  65.0911026  48.1737099
  17.5517654  10.8759184   5.1240702  16.9799576  10.1115561   5.0532308
  17.1568604  11.4072008   5.8154607  83.1037369  45.6361923  67.5074387
  83.7551880  45.4675140  68.1881638  83.6019592  46.0305901  66.7915802
  84.1918182   7.9610720  62.5854530  83.4669037   7.3535299  62.4384041
  83.7785263   8.8238649  62.6172638  65.0845642  29.8905277   9.7648840
  65.0520706  30.8058720  10.0429525  65.1799240  29.9325047   8.8133707
  82.5911179  52.2040062  44.2957268  81.8998795  52.3982086  43.6627121
  82.1753159  52.3256760  45.1492729  62.3612099  33.0558243  13.0242815
  62.8601303  32.2522240  13.1710119  61.5644341  32.7653847  12.5804005
  15.8570604  29.4805012  79.9769592  16.3578796  30.2123356  79.6166306
  15.1751699  29.8943844  80.5060654  27.3713989  52.9625320  59.0792885
  27.1189766  52.8531914  59.9961090  28.3245735  52.8748665  59.0812073
  31.3382206  59.7979813  20.5343952  31.8640079  59.0773697  20.8815308
  31.6624813  60.5733871  20.9924679  54.4953346  70.3890762  62.4166298
  55.3320999  70.4754562  62.8733559  53.8447533  70.6945648  63.0488129
  80.2279358  69.0222778   6.6313028  80.0054932  68.1935272   7.0554781
  79.6096649  69.0925903   5.9039593  66.7733002  63.9625015  33.7272034
  67.0979385  64.8629532  33.7321663  66.2690430  63.8941612  32.9164696
  81.8300934   1.1243120  49.1340752  81.5048447   2.0011535  48.9301262
  81.8356400   1.0873767  50.0905495  61.7295647  23.3724346  72.0533905
  62.5077438  23.5531807  72.5806427  61.9306030  23.7440281  71.1944733
  40.2633553  64.4853592  12.5160332  39.7868156  65.2196426  12.1287708
  41.0184669  64.3600693  11.9412804  72.3002090  45.6334496  83.0414581
  72.8751907  45.1526642  82.4460831  72.8849640  45.9669495  83.7219467
  10.2713070  47.1877060  57.3555374  10.5474558  48.0163460  57.7471123
  10.9995222  46.5893745  57.5226746  76.1904449  37.2512474  46.6458893
  76.8967743  36.7640038  46.2217140  76.2060776  36.9527893  47.5552368
  28.3228951  48.7777481  29.4342613  29.1635494  48.8260651  29.8894501
  28.5071430  49.1086998  28.5551968  26.0127716  56.6227379  55.2531395
  26.4149647  56.7657318  56.1098900  25.6628380  55.7329407  55.2983284
  69.0620728  13.9107533   5.0354128  69.8162079  13.4682951   4.6458688
  68.6233063  14.3318558   4.2962289  69.4534454  64.7132339  39.5572395
  68.8823166  64.0590668  39.9598579  69.2076569  65.5371780  39.9778900
   1.5622188   3.9133570  47.6524162   1.6859421   3.7083848  48.5791893
   1.3927363   4.8552899  47.6359901  34.9212303  61.3761330  43.5510674
  35.4986458  61.8205261  44.1718254  35.4852524  61.1677132  42.8063049
  50.8236618   0.9875920  33.8433647  51.1946487   0.9451032  32.9620094
  51.5655060   0.8177935  34.4239388  48.8920784  27.3776798   2.5925825
  49.7057915  27.5291119   2.1117797  48.2364769  27.2255173   1.9119457
  13.6104136  70.6073380  22.1246300  13.9265938  71.1551971  22.8430405
  14.2411575  70.7502136  21.4189529  47.1429939  45.4907417  19.3232975
  46.8336334  45.6694298  20.2113304  47.2939415  44.5456429  19.3078842
  58.0678558  71.3796158  26.0012817  58.4553108  70.9562531  25.2352066
  58.1000481  70.7115479  26.6860313  23.4832382  47.7285004  32.7145882
  23.2945671  48.5830688  32.3268394  24.3261395  47.4754982  32.3381042
   3.7864108  57.6109581  20.4372711   3.5690699  58.2105026  21.1510906
   3.6461279  56.7388039  20.8059158  22.0420437   0.8561998  84.6882095
  22.1951694   0.8970738  83.7442245  21.1106148   0.6517536  84.7711334
   0.6912832  60.9958305  64.8202972   0.7708488  61.8366928  65.2706833
   0.8010363  60.3426514  65.5113449   5.2530756  58.1165733  29.6816196
   5.6572247  58.0597420  28.8157883   4.9067383  57.2388268  29.8423595
  13.3913355  56.1483688  18.5591011  14.1224604  56.2584114  19.1670303
  13.5201397  55.2768364  18.1848392  78.6048508  51.2114334  24.3306561
  78.3074188  50.9026260  25.1864643  77.8585281  51.0632019  23.7499065
  25.5625210  45.0661125  69.4113007  26.4168587  45.4846954  69.5167923
  25.2359924  45.3958397  68.5741119  51.6873283  51.9845543  78.9047012
  51.4940529  52.2728310  78.0126419  52.5710640  51.6205101  78.8525848
  79.5646973  48.0375633  16.3079700  79.5479965  48.9884415  16.4165039
  78.6695709  47.8093643  16.0571594  36.3207703  68.8700180  20.1651058
  37.2236633  69.1798172  20.2361431  36.3405342  68.2369614  19.4474163
  28.6014671  30.6915684  18.2669926  29.0031013  31.4604778  18.6715908
  28.0146389  30.3459892  18.9396286  79.5479507  56.6985435  43.3616676
  78.7394943  56.1862068  43.3731918  80.1719208  56.1507072  42.8854637
   7.1803799  46.9799385  55.7883110   7.3046041  46.1435623  55.3396797
   8.0376749  47.4036751  55.7467499  35.3270264  43.5223503  49.5364075
  34.4700241  43.9469109  49.4973297  35.1530418  42.6098862  49.3053970
  54.6809502  55.8614235  30.1386108  55.2136917  55.8823204  30.9335842
  54.4255753  56.7730560  29.9973927  68.1399841  14.8727818  34.1279793
  68.8340607  14.3156567  34.4802589  68.6023636  15.5377693  33.6178513
  27.2174282  54.8296432  69.9646072  27.6478081  55.6792336  70.0605469
  27.9290619  54.1924019  70.0256958  64.3737335  38.3960342   4.2017279
  64.6246948  39.2763176   3.9218156  63.7675362  38.5395088   4.9284821
  39.4481812  65.3937378  32.8947525  40.1819916  66.0052872  32.8334427
  39.5605659  64.9692688  33.7452965  45.8207626  65.2270050  66.2215195
  45.7375298  64.3644562  65.8149261  45.0530472  65.2995758  66.7885971
  24.6576614  33.3354797   2.8179710  24.7734680  32.4656754   3.2004154
  23.7359772  33.5436134   2.9709642  82.7485886  70.4875793  15.6844969
  82.9989166  70.7992020  16.5542469  81.9029388  70.0593796  15.8177099
  70.7437668  59.6778488  28.3178215  71.2199783  58.8612442  28.4681759
  70.1989288  59.7844391  29.0975819   9.5018196  48.8443413   8.1190538
   9.0556822  48.1208916   8.5592947  10.4189320  48.7529297   8.3774729
  25.4250870  54.1021996  13.6783514  26.1963024  53.7053146  13.2734575
  25.7586937  54.8898544  14.1079311   3.6806359   2.1497393  87.4033737
   4.3835831   2.4923058  86.8513412   2.9468708   2.0184979  86.8028793
  15.9714947   4.2272277  18.9703026  16.1305065   4.0990176  19.9054546
  15.2332525   4.8354349  18.9340591  50.0938683  50.7948494  32.6754913
  50.1296692  51.7329330  32.8624496  49.5615540  50.7287712  31.8827095
  80.1568451  11.8809538  58.8389587  79.3559113  12.1766386  59.2717438
  80.6736298  12.6779909  58.7210655  11.4369135  21.2289124  64.7909393
  12.1813488  21.3598251  65.3782272  11.3415880  20.2782154  64.7333221
  30.6531868  18.8771400   3.1832201  31.2028866  19.4078465   3.7597735
  30.2845936  19.5035877   2.5603750  63.8506470  14.7691393  13.7964058
  63.3388977  14.5638037  13.0139847  63.2047501  14.8075552  14.5017929
  40.7167702  42.0204086  39.2653198  40.7185287  41.6603394  40.1522102
  40.5721245  41.2621841  38.6992760  30.4396572  39.3703117  61.9917603
  29.9236012  39.2307205  61.1977654  31.3443813  39.2168121  61.7194672
  17.6391182  21.6629868  86.1129761  18.2780571  22.3707027  86.0285492
  17.3797932  21.6830616  87.0341568   3.2969971  61.4057312   3.7218735
   3.9719014  61.2492599   4.3823681   3.6607246  62.0952530   3.1664536
  66.0224762  31.9872723  47.5346069  66.4919815  31.4166660  48.1430550
  65.6720276  31.3930931  46.8710060  26.4412403  45.3112373  63.3396912
  25.8824406  46.0246696  63.6478958  26.7547245  44.8897438  64.1398773
  45.8531075  47.4279442  51.6474495  46.1901016  47.2512016  52.5257568
  45.9411926  48.3753738  51.5432816  65.3966599  26.2533684  12.7297821
  66.3045273  26.5494099  12.6637125  65.4379807  25.4767971  13.2878723
  51.3069954  27.4725151  45.0984459  50.6333237  27.0684948  44.5514870
  52.0833092  27.5025196  44.5392761  15.4386120   6.0468392   4.2980471
  15.4949026   5.2053547   4.7507792  16.3406849   6.3659868   4.2726884
  72.3279800  36.8696060  54.2385368  72.9244919  37.4112320  53.7217712
  72.5210876  35.9728279  53.9651642  62.5599709  18.5894070   5.2128782
  61.7040596  18.5214672   4.7897539  63.1587753  18.1415062   4.6153412
  45.2164536   2.0798094  20.2783756  45.2730141   2.1807024  21.2285614
  46.0779266   2.3465154  19.9574947  63.1464729  36.2512054  56.2748871
  63.3690453  37.1788292  56.1960831  63.7812767  35.8041840  55.7150459
   1.6874788  68.5543213  68.9624100   2.4465268  69.0712738  68.6925125
   1.3927233  68.9673691  69.7740402  51.4914818  36.1351814  51.9584999
  51.1099777  36.2430878  51.0872726  50.8027077  35.7116623  52.4708023
  47.4679527  33.9696312   3.0221777  46.8768654  33.3887482   3.5011644
  47.8817406  33.4049568   2.3693740  26.7547112  50.8839149  43.6356087
  27.6986713  50.9451180  43.4892464  26.4123173  51.7301064  43.3475838
  62.8975563  58.8356552  15.2388725  63.3057060  59.6892548  15.3838377
  62.2023354  58.7880478  15.8950996  52.9004745  33.3175240   8.3268805
  52.1044388  32.9935684   7.9054384  52.5944672  33.7193871   9.1399612
  11.6811333  58.4416008   8.7450628  11.4928331  59.1337776   8.1112919
  11.6192179  57.6309509   8.2398443  46.7881851  35.5264816   7.2427688
  46.0720749  34.9531555   6.9694204  47.5302391  35.2577324   6.7011433
  81.2609177  59.1253433  15.3879290  81.5705261  60.0065956  15.1787300
  82.0580978  58.6293449  15.5742483  36.4035988  58.7635536  65.4856415
  37.1943359  58.6371155  66.0100250  35.7193069  58.9559555  66.1267014
   9.9454775  64.5263824   7.8487816  10.7624950  64.1336670   7.5413904
  10.2150068  65.1270065   8.5436430  35.5645142  58.6358337  30.0476685
  34.8233032  59.1171722  30.4152908  35.1912537  57.8012238  29.7642345
  15.6124792  49.0932236  27.1748562  16.5603867  49.1278992  27.0463963
  15.2484589  49.1633148  26.2923546  12.8632975   5.5543532   9.4404640
  12.1065979   5.4160728   8.8708000  12.4936705   5.6030660  10.3220730
  55.2387238  28.5099735  65.4514236  54.6633377  28.4750519  64.6872635
  55.7896385  27.7312241  65.3722076  19.3027039  41.3547173  18.1076336
  20.0759468  41.6429710  17.6226196  18.5632591  41.6910172  17.6013165
  74.5603714  68.3725281   6.0872936  75.1587677  68.4982758   6.8237324
  74.3352280  67.4426804   6.1176939  16.4451675  66.7912064  58.5448685
  17.0768185  66.7613525  59.2634468  15.6314487  67.0865326  58.9533730
  43.2804985  50.6986923  17.3552132  42.5480843  50.2057457  17.7250862
  42.9280853  51.5762405  17.2070847  74.7840576   3.2673378  11.6371355
  75.0472183   4.0154557  11.1011333  75.0617523   2.5022686  11.1333656
  73.0925674  12.9811230  16.5510597  73.4817123  13.8292904  16.7641468
  73.4049149  12.3944550  17.2398930  32.0251846  31.3155785  73.8284454
  32.9284706  31.0591202  74.0142746  31.5899563  31.2941360  74.6807022
  62.9088936  62.1550331  75.4244156  63.1410713  62.1017647  76.3515015
  62.0677528  61.7024994  75.3617706  27.9569912  62.6564636  71.2340851
  27.5856762  63.2600365  70.5906143  28.8631115  62.9464111  71.3394699
  57.6007309  69.7781372  37.5894585  58.4311676  70.2218399  37.7619171
  57.6861725  69.4493561  36.6945648  40.5176315  32.0877457   3.3783059
  41.0833931  31.3274822   3.2435918  39.6705437  31.7154884   3.6234527
  83.8924942  25.2277336  45.3648224  84.0576935  25.5378571  44.4744492
  83.0051193  25.5275269  45.5620918  59.1689301  41.7539177  58.5104485
  59.7145844  40.9916496  58.3169518  58.2895584  41.4951706  58.2347946
  69.6712952  29.0990715  17.6505718  69.3007202  29.7963295  17.1095219
  70.3204346  29.5403652  18.1983967  49.1685257  50.8777199  41.1852570
  48.8884621  50.9329567  40.2716141  48.3939362  51.1281624  41.6887665
  42.7813835  38.2905159  28.3593388  41.8507957  38.2195930  28.5719471
  43.0738754  39.0751762  28.8230076  71.6985245  68.5083694  66.5715103
  72.3382111  68.1197739  65.9748306  72.1209106  68.4757004  67.4298477
  83.5286179  53.6636620   6.7942767  83.9850998  54.1268845   6.0919356
  84.0457687  53.8479767   7.5783796   6.8484964  54.9078484  87.4267197
   7.1616950  54.7973785  88.3244553   5.9257131  54.6559830  87.4622803
  34.3109512  55.8700752  22.3312550  34.5563889  56.3325386  23.1325798
  35.0748863  55.9568634  21.7610779  37.3216362   3.2091281  70.8492889
  37.6262474   3.3508561  71.7455902  38.1212273   3.0552409  70.3460922
  60.6441994  58.3775711  65.1023865  59.8495979  57.8900566  64.8852081
  60.8215828  58.1519279  66.0155411  13.5713587  19.3421078  12.1857519
  12.7644291  19.7363243  11.8545570  13.3036060  18.4800854  12.5042763
  32.8025475  39.2928467   0.7058759  33.4924088  38.6847801   0.4402055
  33.2710228  40.0315628   1.0945381  72.6696091  40.3252640  87.1945114
  73.5674286  40.5095177  87.4705582  72.6600723  39.3834915  87.0236130
  17.8342381  13.6306610  61.0943108  18.5994358  14.1747313  60.9080505
  18.0173264  13.2450924  61.9510765  43.4824944  16.7593002  10.5172195
  43.2498779  17.3273983  11.2516479  42.7964325  16.9141960   9.8679438
   7.5244212  26.4726982  65.5794983   7.8938518  25.6219234  65.8160019
   7.0093770  26.7310047  66.3438492  38.9773254  54.1901550  21.8975182
  39.7288475  53.6393127  21.6783905  38.2336121  53.5876465  21.9077034
  84.8397446  57.1641388  68.4582443  84.9095688  56.3224792  68.0077209
  84.0053711  57.1174545  68.9250183  26.5222492  43.9789009  84.9168549
  26.0197525  43.1904106  84.7118835  26.8908424  44.2530594  84.0770874
   1.0313106  62.8552704  24.9498787   1.5925598  62.4391441  25.6041489
   1.0034460  63.7762680  25.2091465  23.4439297  32.6516800  61.7382050
  23.1598091  33.1029396  60.9433022  24.3208942  32.3293571  61.5301857
  73.8031311  42.8074989  45.7376556  73.3372650  42.9477577  44.9133186
  74.0772476  41.8909721  45.7049103  81.2309875  29.2709255  83.6796951
  81.6698456  28.4635029  83.9474640  80.3179398  29.0151520  83.5486755
  49.2843170  17.5335369  50.3405800  49.6783905  16.9306660  49.7101135
  48.6165314  18.0015297  49.8393059  74.5169525  15.5149288  15.2293558
  74.6115112  15.0986462  16.0860920  74.3260956  16.4315853  15.4282207
  61.3119316  69.4114990   7.8788619  61.4746628  68.4705429   7.8129530
  61.2440300  69.7070007   6.9709506  81.6039886  39.8428802  14.6666145
  81.2242584  40.2644348  15.4375391  80.9541092  39.9756775  13.9765024
  68.2154999  10.1268549  26.8340473  68.4005280   9.5000687  26.1346664
  68.9101868   9.9811420  27.4762325  62.9048347   8.1806555  54.0494423
  62.3280563   8.5134306  54.7370605  63.3352356   8.9607487  53.6995239
  46.1663094  29.0839138  85.6083908  46.1606903  29.8195019  84.9959259
  47.0934219  28.9319515  85.7917023  77.5688934  33.5319824  17.2638817
  78.4625778  33.4181557  16.9404640  77.0563507  32.8799896  16.7859287
   7.9297953  65.3043060  83.1927414   8.4485025  65.5588226  83.9558945
   7.0224581  65.4506760  83.4602280  23.1472969  48.5759697  57.2139091
  23.2624626  48.5902939  56.2637711  22.7369347  49.4162827  57.4181290
  41.2795830  47.1636047  27.1981926  40.7157860  46.4297676  27.4428310
  40.6945839  47.9211273  27.1851788  70.5028458  32.8678741  30.4200058
  70.1653137  33.1565666  29.5720901  70.0458603  33.4151840  31.0586395
  54.6627617  12.6177521  34.7957687  55.5818176  12.3642216  34.7103767
  54.2333794  12.2207212  34.0379906  35.1357727  50.4964867  40.0811920
  34.4414711  51.0867386  39.7883148  34.8277435  50.1641045  40.9243240
   8.8617840  16.3799877  84.9110260   8.3922548  15.5478306  84.9683838
   9.2478590  16.3772869  84.0351486  86.3588181  21.5820847  88.5902863
  85.9002151  21.9635391  89.3388901  86.2630539  20.6368656  88.7070084
  82.5754089   6.5723567  52.2045135  83.2929611   5.9995790  51.9338074
  82.8903351   7.4563427  52.0157738  24.9005756  19.1396198  77.6110611
  24.2274227  18.6699829  77.1185837  25.6833038  19.0802746  77.0633011
  59.2851677  64.0846710  81.5135422  58.4696732  63.6926308  81.2012863
  59.3292656  63.8412323  82.4382172  35.3664474  21.6219215  67.2752762
  34.8714867  21.7983646  66.4752045  35.0779800  22.2972622  67.8892212
  52.6255913  26.6333370  63.6567307  53.2207870  27.0366516  63.0248222
  53.1522865  26.5292187  64.4491806  40.1133614  70.8911514  43.8307495
  39.4601479  71.5802765  43.7096863  39.5998573  70.1021805  44.0041580
  74.1555405  49.0303802  86.5900192  73.2471237  48.9016838  86.8628540
  74.5067291  49.6624870  87.2171860  34.0936508  32.0683212  12.7186069
  33.8462448  32.9842758  12.8452921  33.3006516  31.5748577  12.9280787
  55.6225510  54.9566193  75.7761993  56.3884468  55.5303345  75.7981262
  55.5041466  54.6803398  76.6849823  39.1506004  24.1257076  44.8233719
  38.6211815  24.0005722  45.6109543  39.0533943  25.0547791  44.6145477
  47.7822952   3.0200996  10.4138212  47.3906593   2.6817923  11.2190542
  47.0713654   3.4942310   9.9825344  44.8012047  32.5564041  85.6744919
  45.2520142  31.8914089  85.1541214  44.4754677  32.0818634  86.4393082
  58.6691780  45.3852386   1.9762702  59.4218483  45.4897614   1.3942113
  58.5941238  44.4394722   2.1032629  79.2583237  41.0626640  19.3338127
  78.5268936  40.7529335  19.8679638  79.8436508  41.4941177  19.9562874
  60.8519287  41.5279388  25.9783688  61.7869225  41.6775780  26.1184864
  60.4389648  42.3600540  26.2091961  45.4558182  63.8463135  44.8070755
  45.5539322  62.9946861  44.3812408  45.8116913  64.4720078  44.1761246
  64.9697037  53.3034668  -0.0607630  64.4215622  53.9698906   0.3535489
  65.4352722  52.8903084   0.6664073  54.8998566  64.2190018  50.1824226
  54.8295975  64.5605698  51.0738411  55.6358910  63.6080437  50.2173500
  29.9307747  32.9761658   1.0430156  30.4146805  33.7647057   0.7975053
  29.2096119  32.9324913   0.4151237  84.1172562  16.0804043  27.8659401
  84.2049408  15.2242861  27.4468899  83.3558807  16.4773064  27.4428501
  37.0525398  38.3815842  27.4095440  36.1756668  38.5882912  27.0861340
  37.2913704  37.5739365  26.9546776  10.0711269   9.2070160  70.2926788
   9.9634342   9.7772770  69.5314713  10.2400246   8.3411255  69.9212723
  26.3684635  59.3804970   5.2311940  26.7419720  60.2002945   5.5546989
  25.4354839  59.5671806   5.1266322  47.9622345  49.4305115  15.7505388
  47.7660675  50.1214104  15.1177568  47.1158028  49.2189789  16.1442852
   6.2156596  36.1406555  85.0889740   5.9554515  35.9080315  84.1976776
   6.2285204  35.3074150  85.5599060  81.2719574  10.5847206  45.9130478
  81.5401154  10.1184025  46.7047997  81.0974503  11.4781961  46.2088165
  78.6885834  48.0397911  69.4279861  78.8172760  48.8930817  69.0137863
  79.5505066  47.6248283  69.3944244  63.7710953  68.1268158  65.7649307
  64.6029739  68.2161102  66.2299347  63.7570724  67.2156601  65.4719620
  35.3139839  33.3676224  66.2484818  36.1534042  32.9736099  66.4858780
  34.6614342  32.8286896  66.6956635  69.5681915  57.6348572  22.7710075
  69.0985641  58.4550209  22.9227238  69.7510071  57.2977715  23.6480389
   3.7352080  66.9004059  43.7736855   3.1939349  66.1212006  43.9005508
   3.1097383  67.6244125  43.7448349  75.0910110  38.5579376  59.3529396
  75.7354813  38.0466080  59.8422546  75.6068954  39.0333138  58.7017021
  79.2278214  51.0950546  15.1844254  79.6009445  51.8318214  14.7004957
  78.5131607  50.7817039  14.6300802  77.8184280   7.8547878  56.5418930
  76.9701767   7.9381094  56.9775047  78.3424377   7.3200130  57.1382675
  63.4821091  14.7524729  68.6286392  63.9885483  15.4149246  68.1586227
  63.1268272  14.1898222  67.9405746  73.8507690  38.0149117  52.4172516
  74.5692215  38.4622459  52.8644104  73.6613312  38.5658417  51.6577682
  82.7049408   6.6397624  43.7963753  82.8889160   5.7235885  43.5889854
  82.1864471   6.6039276  44.6001854  53.5520897   8.7993441  54.5950165
  54.2799416   9.4190903  54.5462952  53.3978157   8.6843090  55.5326691
  10.5010271  71.6700516  56.7992439  10.5316410  71.3611526  57.7047157
   9.6755295  71.3270874  56.4569588   4.3134103  19.8985634  17.7611332
   4.4684939  20.7174129  17.2903175   3.5481601  20.0776749  18.3075237
  75.7750931   2.5302384  45.0572662  75.2627869   3.2551098  45.4155083
  75.6059647   2.5598199  44.1155891  56.2629433  63.1170006  34.2937889
  55.9844551  62.2018700  34.2589302  55.4626274  63.6035500  34.4912605
   4.3896971  46.3560791  50.2524796   3.6164088  46.9160805  50.3207016
   5.1272955  46.9661026  50.2451782   8.5954714  53.9635582  85.5054626
   8.0151844  54.3363190  86.1692047   8.9052486  53.1440773  85.8911133
  61.3075676  48.1699448  56.9088249  62.1308670  48.4252129  57.3250580
  60.7747879  48.9650154  56.9242554  62.2766495  66.7140121   0.4538792
  62.6674881  66.5793762  -0.4094568  61.5222778  66.1250305   0.4697713
  67.9007568  67.8829727  51.9880753  68.2577820  68.5484924  52.5761642
  68.1946487  67.0516510  52.3605957  70.1736526  10.7189884  22.4448662
  69.7686157  10.5106249  21.6029835  69.6742477  11.4670582  22.7723064
  85.3947372   4.4144812  38.3933105  85.4948959   5.3656306  38.4322205
  84.5606003   4.2434006  38.8305550  73.8542404  43.7908936  81.8319550
  74.3584824  44.3879776  81.2792740  74.1580658  42.9184494  81.5814362
  62.6649475  52.6059647  53.3034401  61.9233780  52.5909805  52.6983948
  62.4961052  53.3582840  53.8706627  20.8676319  30.6487808  31.1384525
  21.7163277  30.2127018  31.2145081  20.8115005  31.2012444  31.9181099
  29.3328915  24.8307171  66.0840378  28.6774044  24.3673477  65.5626373
  30.0685062  24.2209053  66.1408920  44.4427986  43.8604584  85.1487122
  43.7537422  44.3225250  84.6712952  44.3918076  44.2081795  86.0390625
  24.9654655  42.1413040  66.6149521  25.5642681  42.8044815  66.2716446
  24.1432114  42.6107635  66.7554398  36.9482384  36.2889786  18.7823868
  36.8628197  36.6950912  19.6449471  37.6663895  35.6640167  18.8819580
  64.3777313   2.2516780  46.0408554  64.1651459   2.4074481  45.1206551
  64.7983627   3.0614645  46.3298988  22.8417168  48.4933891  73.1885223
  22.3719120  49.2664795  72.8757095  23.3609161  48.2081375  72.4366608
   7.9735842  34.0849113  81.3713226   8.3961201  33.4483871  81.9479752
   8.6229610  34.7801132  81.2653046  52.8601532   9.9302540  47.8854675
  52.2043915   9.7751341  47.2056503  52.6038437   9.3500538  48.6023369
  44.7497559  16.0695477  86.0220261  45.3815231  16.2951336  85.3392258
  43.9539871  16.5420246  85.7775955  17.0952816  38.7279892  53.7030258
  18.0251980  38.5102158  53.7667503  16.9631767  39.4094887  54.3620682
  75.6485367   8.2183666  83.8013000  76.2877655   7.5222206  83.6496506
  76.1508789   9.0283070  83.7125015   7.4710274  41.8896675  67.7326355
   7.9299870  41.0530510  67.6574173   8.1540461  42.5492744  67.6116562
  10.0357533   0.3042762   0.1832157  10.0562601   0.4703917   1.1256683
  10.9274931   0.4884795  -0.1119142  86.0819626  66.6898270  54.4872704
  86.1084900  67.6360092  54.6296310  85.2189102  66.4239807  54.8045921
  73.0494003   9.5595074  83.6169891  72.7059326   8.7936106  83.1569214
  73.9940033   9.4103699  83.6583786  86.0792923  25.7565308  18.8714008
  86.5810318  26.3403606  19.4402828  86.3419495  24.8761959  19.1402035
  46.3845940  11.8569517  11.4011889  45.5831757  11.9863586  10.8940315
  46.0939865  11.8598289  12.3132029  63.4486351  58.8003464  35.5843811
  62.8907242  59.4401283  36.0267029  62.9212685  58.4914398  34.8477058
  83.6399612   9.3905296  53.1745949  83.9577026   9.0187826  53.9974403
  84.2050552  10.1474419  53.0197220  73.1390381  44.2740593  77.8147049
  72.9145584  43.3440208  77.7851944  72.8995667  44.6058197  76.9493561
  49.0349846  54.5508575   2.9223850  48.2448807  54.9029999   3.3322196
  48.7553520  54.2955437   2.0432649  16.5041180  64.1745224  10.4293613
  16.3614159  63.4753876   9.7913399  17.4534874  64.1995163  10.5489731
  46.0538788  18.8928680  60.2038307  46.5286865  19.2653809  59.4608498
  45.1548920  18.7964687  59.8895607  21.0037498  17.4941616  82.3243179
  21.8748150  17.5430794  81.9305038  20.5337925  16.8558712  81.7876968
  49.5426369  45.6748428  27.1533737  49.1159630  46.0466690  27.9253349
  48.8374214  45.2352333  26.6783504  75.9346008  57.4203491  49.8715973
  76.0019073  58.1964951  49.3154526  76.4269333  57.6475029  50.6604195
  56.5330620  58.1555405  47.5463295  57.3453293  57.8610191  47.9582863
  56.4506569  57.6113205  46.7632141  56.8080902  43.7532959  76.5489578
  56.0889511  43.1485558  76.7315979  56.7401123  44.4197350  77.2326736
  24.7059364  45.4896088   2.3883686  24.2325115  45.0086746   3.0671933
  24.2771568  45.2351151   1.5712931  49.7174950  71.3792496  70.7080765
  50.3481140  70.6616058  70.7675323  49.8672714  71.8959274  71.4998093
  30.6036777  -0.1948378   9.5413570  31.3789005   0.0183989   9.0219412
  29.8901157   0.2763515   9.1111927  75.3687820   7.9718642  71.6396103
  76.2872314   7.8748894  71.3880539  75.3406754   7.6943936  72.5552826
  40.8920937  48.2803650  66.1768799  40.5632286  48.2224083  65.2798233
  40.5846596  49.1309853  66.4901962  64.7724457  19.5980721  44.3418388
  65.1303253  20.1284981  43.6299362  63.8237534  19.6497555  44.2254715
  71.5314331  42.4390106  48.6870537  71.2329254  42.1448593  49.5476379
  71.3482971  41.7014809  48.1050377  82.2053986  41.5792198  32.8165283
  83.1450729  41.4483871  32.6895752  81.8304977  40.7008057  32.7527275
  60.9706726  15.7731953  52.6740303  61.8038063  15.7748947  53.1453285
  60.7297897  14.8485737  52.6167374  62.8772545  24.9881172  61.1410179
  62.6519890  24.9416676  60.2118607  62.4700584  25.7989445  61.4459457
  86.7331543  21.2446232  26.7030907  85.7796097  21.3238449  26.7294655
  87.0272217  22.0387306  26.2568245  63.6398582   3.8638041  80.2347565
  64.3488922   3.2800164  80.5043793  64.0666580   4.7084074  80.0908203
  78.7703018   4.2076125  76.2251129  78.4745483   3.6431458  76.9393539
  77.9636154   4.4969883  75.7987900   9.2954273   9.9007931  72.8306274
   9.3209257   9.6188841  71.9162369   8.4556494  10.3515711  72.9189606
  63.1667786  29.5818729  51.9401512  63.3974495  30.5106792  51.9586220
  63.3929672  29.2615013  52.8133240  84.6445618  26.4899368  81.9040909
  84.4374390  26.3428307  80.9812241  85.3622208  27.1231899  81.8905029
  17.6213131  67.9075470  48.8159637  18.1073284  67.6680298  48.0268822
  17.2856121  68.7851562  48.6333466  49.2529793   5.6289816  39.1974297
  49.1804962   5.6105285  38.2431564  48.9377480   6.4982715  39.4448090
  49.1846085  50.2901917  20.1200771  50.0586586  50.2174034  20.5034409
  48.9560204  49.3941002  19.8730869  65.7914047  63.6828308  30.9858265
  66.5353088  63.7150650  30.3843250  65.7125168  62.7580376  31.2198448
  67.3177109  38.5467072  82.7209167  66.3938980  38.4268074  82.5008545
  67.6600494  39.1039429  82.0219727  17.9782429  28.7734051  10.5609465
  18.4994488  29.5748253  10.6089277  17.6493816  28.6479206  11.4510784
  81.4145508  45.7102699  80.6847687  82.2564850  45.2929382  80.8670120
  80.8870926  45.5359077  81.4642715  49.8058434  36.3759193  32.3028145
  50.2763710  35.8073273  31.6932716  49.3955078  35.7739563  32.9237022
  16.1642323  16.8503094  69.2836761  16.0490494  17.1117496  70.1972504
  16.9546280  17.3101749  69.0007782  13.5443144   5.7457767  19.4541092
  12.7835665   5.6682930  18.8783588  13.2013769   6.1502414  20.2509995
  70.8473740  67.9627457  80.0535278  70.3975449  67.9189453  79.2097473
  70.4609833  67.2540588  80.5680084  23.0449028  62.1053314  83.5974503
  23.3289833  61.6394730  82.8109970  23.8582726  62.3340645  84.0472717
   2.4063799  67.0768661  87.5693130   2.4917226  67.8841553  88.0764999
   1.9207376  67.3361740  86.7862778  82.0211639  47.8887596  83.1476974
  81.8193283  47.0315132  83.5226898  82.0021973  48.4873123  83.8944244
  74.8576813  39.2185936   0.0499835  74.5548935  38.3109703   0.0221604
  75.8123322  39.1520538   0.0713049   5.6253915  14.9262009   4.9729786
   6.2333136  14.9080667   5.7121224   4.7813306  14.6793833   5.3509660
  51.5381851  38.4726028  33.2071304  52.2691994  38.4921989  32.5895042
  50.8387184  38.0197334  32.7360802  68.0277557  21.1790791   0.5596334
  68.6378326  21.9131088   0.6319602  67.4593506  21.2637444   1.3251257
  12.1642904  69.1378708  87.1556091  11.7820435  68.2746353  87.3135681
  11.4793224  69.6224747  86.6949463  43.5968056  30.3303890  86.8101273
  42.9562492  30.0360680  86.1625977  44.3311310  29.7240620  86.7133560
   7.0516019  18.2887630   8.9907885   6.2587581  18.5734348   8.5362635
   7.7244191  18.2705936   8.3101864  74.5060959  22.9259796   8.6186800
  74.5520172  22.4340343   7.7988548  73.9854355  23.7001400   8.4046173
  58.1552849   2.7631302  26.8504868  58.3093529   1.8707634  26.5403633
  57.7166710   3.1983731  26.1194515  67.0835876  29.3886528  79.5455322
  66.9265747  30.3296337  79.4672165  66.6929092  29.0141182  78.7560196
  37.2164154   3.2055593  15.6468220  36.2643242   3.2973931  15.6105061
  37.5140686   3.9823129  16.1204128  60.5874405  29.6812401  71.6397324
  60.6415787  28.7277946  71.5745697  60.4398689  29.9747581  70.7406769
   6.9000492  33.9808350  56.1603203   6.5788622  33.1252670  56.4450493
   7.7377324  33.7933769  55.7367897  79.4305878   9.5465508  86.1483917
  78.5622559   9.2363873  86.4053497  79.7154007   8.9297409  85.4741058
  40.9898415  52.0626068  61.0525780  41.6907730  52.6856842  61.2441597
  41.3559952  51.4899940  60.3785744  82.4511490  47.1087456  86.4175262
  82.9252777  47.8154831  86.8556519  81.5465317  47.4185333  86.3734818
  82.7160110  22.4346771  82.4667130  83.4253998  23.0379124  82.6883087
  82.2534866  22.8631191  81.7464752  31.9754562  68.9847565  79.4617844
  32.8459473  69.3488159  79.3007126  31.5742493  68.9305878  78.5944138
  81.0630417  11.5631065  28.9336109  80.5462036  12.3666143  28.8745480
  80.8045883  11.0550127  28.1646690   6.4486670  42.7540779  83.9030685
   6.2757220  42.8190613  82.9638672   6.0058637  41.9495430  84.1730423
  55.9732361  49.0387230  20.9725628  56.7430763  48.4707413  21.0038490
  55.9371300  49.4412193  21.8402748  59.6795464  41.4656372  32.7357407
  59.4800224  42.1250725  32.0712395  60.2307091  40.8278046  32.2822876
  57.5436211  47.3675156  29.7704754  57.8443298  46.8796959  29.0037689
  57.9485893  48.2300491  29.6795387  33.8494682   8.3872681  30.0198860
  34.7415962   8.0668974  29.8868542  33.4911499   8.4719734  29.1363335
  57.9650307  32.4722939  31.6938286  57.1265411  32.0188560  31.6068592
  57.8918228  32.9554024  32.5169182  74.0300369  66.5750504  66.7501907
  74.5238953  67.3912811  66.6720581  73.6943436  66.4128876  65.8685760
  56.7577896  36.2409058  16.8078136  57.5095024  36.0031586  17.3506203
  56.3724937  36.9972038  17.2502937  21.5080547  31.2955036  77.6413879
  21.4085636  32.0887833  78.1677399  22.4428921  31.0945587  77.6853790
  68.5127029  61.5941200  81.1254349  68.0439072  60.8219910  80.8087692
  68.6310654  61.4351196  82.0618820  80.0927353  61.2257309  77.3600311
  80.0359116  60.9414787  78.2722778  80.7610626  61.9109726  77.3638611
  81.2026291  31.9952412   5.2996874  81.8967743  32.6402588   5.1642289
  81.2005463  31.8404198   6.2442813  68.0830307  41.0273323  10.6405134
  68.1921310  40.4615555   9.8761673  68.8446655  41.6067581  10.6202660
  57.8224144  46.6218338  41.1714821  58.2161636  46.9476433  41.9808273
  58.4016342  46.9392166  40.4786568  64.1601028  34.9308472  83.8025284
  65.1063843  34.8821373  83.9382172  64.0628891  35.2367172  82.9007339
   7.4348865  66.7978439  76.4568787   7.7397127  67.4173737  77.1198196
   7.9093690  67.0440063  75.6628418  73.8861313  25.3410034  66.1377182
  72.9740143  25.6020279  66.2647629  73.8337097  24.5046864  65.6750488
  46.9763107  49.2722092  36.9093475  46.4179802  48.7804832  37.5116005
  46.3888893  49.5397415  36.2025261   5.1558409  24.5430870  70.8496017
   5.3062983  24.6902332  69.9158249   4.5899210  25.2669182  71.1180038
  31.3626270  29.2398605  80.6036453  31.6687317  29.5611076  79.7555161
  30.6046638  29.7876015  80.8078690  50.4923363   1.9755691  50.6980400
  49.9063301   2.2475870  51.4043236  51.3693619   2.0410593  51.0758858
  67.0004501  57.9382896  66.4987411  66.8749237  58.6325073  67.1456909
  66.6989975  57.1434746  66.9387665  41.6791420  39.4300461  61.1431046
  42.2750549  38.6839561  61.0762901  42.0092545  39.9344101  61.8866577
  37.6817780  62.0212250  33.5463257  38.6191978  61.8617935  33.6561203
  37.4152451  61.4156876  32.8545761  25.0961227  48.4833412  45.2415543
  24.2015553  48.4220963  44.9065437  25.6233101  47.9980659  44.6068802
  62.2026978  19.9649200  81.1826324  61.3903694  19.4801884  81.3288879
  61.9795456  20.8732376  81.3860855  45.7300758   4.8410125   9.8607206
  45.4701500   5.5690017   9.2961836  45.7424278   5.2140336  10.7421598
  17.9960155  47.7252998  76.2788696  18.8748837  47.9923401  76.0095901
  18.0686722  47.5786705  77.2219772  72.6013412   7.4107447  79.2968369
  71.9961395   7.9914913  79.7580261  72.1817932   7.2499552  78.4516449
  24.0363464  35.1879425  14.5938177  24.4936295  34.6273575  15.2206078
  23.1956711  34.7527199  14.4521198  22.0129280   1.0912087   0.2446948
  22.2709999   1.4046403  -0.6221333  22.5387955   1.6100813   0.8533549
  32.5785942  43.6895142   5.9163494  31.6898708  43.8142014   5.5834012
  32.8043327  42.7934151   5.6667838  43.5570602  69.3736420  81.9555435
  43.3024635  68.4509659  81.9642563  43.7516632  69.5597458  81.0369949
  39.3962440  20.9572620  15.5545530  39.4398651  21.5528717  16.3026009
  38.4691162  20.7302513  15.4828873  59.2576675  47.4890747  63.9247665
  59.5632286  48.0941048  63.2488937  59.6940804  46.6619225  63.7208214
  10.5094471  10.8132038  18.2636871   9.6001234  10.9330492  17.9898281
  10.4551449  10.6326752  19.2021389  43.2979622  20.9724941  17.8425369
  43.4391365  21.5783825  17.1150742  44.1308708  20.9663315  18.3141918
   9.5132008  56.9931107  25.5228996  10.2501755  56.7558861  26.0857716
   9.9184980  57.2643890  24.6992645  22.1918697  29.6034813  22.8092804
  22.1182938  30.3570881  23.3948536  21.6235619  29.8184834  22.0696621
  69.8314590  25.4818916  87.3323364  69.6451340  26.3374424  87.7190475
  69.3311844  25.4738102  86.5163116  46.8308716  60.5364075   5.9470201
  46.1450157  61.1092262   5.6039319  46.7601128  59.7380333   5.4237385
  13.4666729  56.5852432  82.9767532  12.9467068  56.7855911  82.1984711
  13.5985546  55.6379089  82.9393463  68.2528458  60.9165039  46.8395004
  68.2512512  60.4428902  47.6713181  68.4599228  60.2497635  46.1846657
  32.3509369  19.7730598  73.5067749  33.2905693  19.6527863  73.6441193
  32.2868729  20.5588684  72.9639740  23.3584232  55.4351959  64.2888870
  22.4412193  55.2122231  64.4477997  23.4674358  55.3405685  63.3426361
  68.8416977  29.1078625  10.9528732  68.8631439  29.5383015  10.0981836
  68.1757126  29.5871620  11.4457865  84.3616943  35.6706543  37.5569534
  84.9417648  36.3296165  37.1754875  84.2316589  35.9600067  38.4600563
  56.5695610  22.3811245  35.1023369  56.5302925  22.3303814  34.1472893
  56.9970894  23.2188473  35.2803001  72.4349747  62.8179398  57.8472061
  72.6340561  62.5936279  56.9382057  71.7638168  62.1872749  58.1080513
  64.2037354  57.7872772  46.0467033  64.4266586  58.3293991  45.2899742
  64.5085907  58.2917709  46.8008842  82.9251328  53.7150650  71.5500183
  83.8617325  53.5834312  71.6973190  82.8463898  53.8378105  70.6039886
  14.6145439  67.5548401  27.7949429  15.5213699  67.8518372  27.8703880
  14.2563639  68.0616684  27.0662041  53.8777847   8.4790163  57.3559189
  53.8343163   7.6509933  57.8341675  53.2103043   9.0283375  57.7669487
  71.4236984   5.0854983  84.9881363  71.2383881   4.2358499  84.5881500
  72.2890244   5.3233504  84.6551590  83.9442978   1.6868495  77.6569061
  84.1371231   2.6217718  77.5864029  84.4196396   1.4024570  78.4375458
  83.2072525  36.0804138  85.1505127  83.6350250  36.5599976  84.4411163
  82.5305481  35.5619888  84.7151489  82.1895142  22.6966343  76.6686859
  81.3752823  23.1256084  76.9318390  82.3747406  22.0795307  77.3765717
  46.3957710  11.0536089  29.9990520  46.9425812  11.8094435  30.2133942
  45.5009651  11.3508797  30.1639385  69.5296249  25.3267403  46.8979797
  69.8846436  26.0733833  47.3803864  70.2695236  24.7262211  46.8076706
  38.7066269  43.7972221  37.4443169  38.2137222  43.1790009  36.9048004
  39.1843491  43.2461548  38.0642624   3.3291893  51.6026764  24.3774929
   3.7849674  51.2137299  23.6310215   2.4425755  51.2451134  24.3295784
   4.4995260  52.1072884  36.1487389   5.4096203  51.9888306  36.4206390
   4.4395871  51.6530800  35.3083038  75.7631607  62.1019783  81.4154663
  76.6825409  62.0055695  81.1671295  75.2941895  61.5022507  80.8352737
  81.1292267  59.1190376  53.7730141  81.0658646  58.2011642  53.5089531
  80.8397369  59.6100273  53.0040169  43.8855209  71.4531937   2.4514165
  44.8348846  71.5321426   2.5447183  43.6426888  70.7531815   3.0574274
  13.0300283  49.7483139   7.7149153  12.7967529  50.6750870   7.7688589
  12.5801010  49.3444939   8.4570236  20.6206875  30.8875141  57.7237511
  21.3628139  30.8781528  57.1192780  19.9383640  31.3708286  57.2578392
  85.6613464   6.9558315  44.7325706  84.9178009   6.8965187  44.1326866
  86.0435562   6.0782652  44.7277718  83.9869232  47.5921364  53.6921043
  84.6168137  46.9732323  53.3227463  83.2852707  47.6361389  53.0425034
   0.8129060   0.5486428  77.1761017   0.7904144   0.8970642  76.2848511
   0.8017101  -0.4016789  77.0621033  13.9655972  13.5929718   3.1037421
  14.2951736  12.9062576   2.5240569  13.9157782  14.3713274   2.5488439
  77.9027557  39.3652267  30.2184734  77.0652390  39.6914825  29.8893070
  78.1240463  38.6405144  29.6336174  52.1207275  16.4169121  36.6565742
  52.5097046  15.5577850  36.8203697  52.8217773  16.9228420  36.2457275
  19.9116879  28.9334221  77.6677551  20.3734798  29.7230034  77.9497833
  20.1676598  28.2659798  78.3043289  15.7914467  23.7384415   6.3760738
  16.1333504  24.4095325   6.9668117  16.5641880  23.2446804   6.1016650
  61.6425247   7.7339706  63.4019470  61.1544914   7.2088451  64.0362167
  62.5535316   7.4641204  63.5180397  54.2662086  38.7231598  24.8090439
  54.2216797  38.4442749  23.8944550  53.4576035  39.2159615  24.9488144
  15.2429943  54.0795212  49.3295174  15.7789660  53.3067818  49.1510773
  15.6730680  54.5029449  50.0724716  69.6424408  65.1624298  79.8783569
  70.0092468  64.2800446  79.9338989  69.6484070  65.3658524  78.9430389
  25.9357948  39.7284737  63.4258461  25.1116543  39.7471313  63.9123383
  26.3462219  38.9024048  63.6815567  73.6630020  65.2523117  32.4234085
  74.0848007  64.5433578  32.9088936  74.3418808  65.9218216  32.3390503
  48.2486763  66.9553070  50.8907700  49.1548386  67.2303467  51.0302582
  47.7753944  67.2961273  51.6497688  12.1221771  70.2165298  15.6395826
  12.7437649  69.6765671  15.1514263  11.4885674  70.5054474  14.9828501
  58.9708748  64.2228241  36.4575768  58.7313919  64.7542801  37.2168083
  58.5962677  64.6897049  35.7106361  72.4290924  14.1951790  35.8751831
  73.2993851  14.0584145  35.5008583  72.5806274  14.2539797  36.8184814
  79.1065063  53.6525192  45.0135498  78.9720917  54.5650024  45.2695580
  78.4956284  53.5143738  44.2896881  82.5310593  20.3807755  15.6199293
  82.9173508  20.0477619  16.4299393  81.9162292  21.0556660  15.9075680
  10.5946121  43.7304916   4.7965183   9.9582596  44.4344978   4.6713653
  10.9172573  43.5398979   3.9157202  67.8633957  16.5652237  12.2607584
  66.9079208  16.5928268  12.2103424  68.1365585  16.1879349  11.4245377
  62.6908302  26.8091793  85.5873871  62.9426918  26.1504307  86.2345657
  63.3700485  26.7563152  84.9150009  27.2284012  45.4156113  49.1226578
  27.0602894  46.3383980  49.3135300  27.3175335  45.3804016  48.1702652
  83.8838043  14.2338371  12.5264320  84.6984100  14.7353935  12.4933271
  84.0638275  13.5251350  13.1441431  44.9042168   9.2003145  68.0926514
  45.7168007   8.7010374  68.1742783  45.1799698  10.1157875  68.1384811
  48.4905090  39.8141708  39.0214996  49.2788048  39.2743835  38.9627457
  47.7676697  39.1886024  38.9725227  68.4133682  54.7084312  24.1305866
  68.0263138  54.7794304  23.2580185  69.1452789  54.1016769  24.0192928
  17.6138535  30.7805882  87.2722015  17.9585838  31.5733051  87.6832886
  17.7724857  30.9074745  86.3368073  35.0540962  46.4996605  45.2997971
  34.3680382  46.4011612  44.6395988  34.9643707  45.7256660  45.8557739
  28.5242443  65.0309906  77.8307800  28.8245544  65.8806305  78.1535187
  28.7536011  65.0330963  76.9014664  81.5751572  69.8282242  87.5574417
  81.2500381  69.1868973  86.9255981  81.3059769  70.6743774  87.1999359
   8.5659628  33.6121941  77.7510757   8.8763227  34.4630013  77.4411774
   9.1852999  33.3672180  78.4385605  47.6024818  62.0737419  17.0692463
  46.9132652  62.4576874  16.5272160  47.5163994  61.1301651  16.9332924
  15.4308605  39.0646553  58.0396385  15.8814802  38.5382652  58.7000084
  14.8467274  39.6317215  58.5430832  46.8958321  45.1961060   0.9901089
  47.2908173  44.3371773   0.8402239  47.6397667  45.7962990   1.0406860
  82.6119614  44.4651566  64.2574539  83.0736923  44.0674210  63.5193214
  83.2795639  44.5543823  64.9375839  39.7486382  44.3125916  66.5369263
  39.2852173  43.5060539  66.7626801  39.3234673  44.9887848  67.0643921
  29.3115082   9.3609781  77.1016846  29.5933552  10.2284298  76.8113098
  29.8930531   8.7543268  76.6434174   2.6830106  58.8029060  12.7993679
   2.1634357  59.1157761  13.5398989   3.4731522  59.3429337  12.8160019
  50.5324974  12.7090683  87.9438019  49.9973221  13.4697962  87.7177124
  50.7915573  12.3391275  87.0998459  51.6132889   4.7503161  33.9213295
  51.3405266   5.1600170  34.7422905  52.2815475   5.3389387  33.5703468
  33.8513336  49.6221733  33.6026688  33.1515083  50.2741127  33.5646286
  34.1811829  49.6769218  34.4995689  76.8282089   4.9748669  10.6693735
  77.4831772   5.3889561  10.1074343  77.1577377   4.0867791  10.8070107
  64.8951187  52.4703255  55.7260017  64.0383072  52.3655128  55.3123360
  65.2126160  53.3156509  55.4084282  49.9415398  26.3288383  65.5323105
  50.5592995  25.9331799  66.1471786  49.6966324  25.6135731  64.9452438
  53.8738022  40.8807297  84.6331329  54.3936119  41.6344376  84.3539352
  53.8953896  40.9159126  85.5894394  31.8621140  10.0810947   5.0821247
  32.2212219   9.7774115   5.9158216  31.0127068  10.4586716   5.3105426
  17.5455360  43.0348434  86.5491104  18.3485641  43.4888000  86.2935791
  16.9635792  43.7309380  86.8540878  37.2312164  59.2343216   2.6769745
  36.3993225  59.6623116   2.4744709  37.6540871  59.1180305   1.8261576
   3.2437770   5.9176526  19.3069649   2.9412954   6.7960119  19.5376625
   4.1296372   6.0503392  18.9695072  66.1698761  23.9241695  55.4162483
  65.8506775  23.4262466  54.6636429  65.5854111  24.6804142  55.4684296
  38.6532822  56.1926651  75.6983871  37.9260750  55.6426277  75.9897079
  38.5130348  56.2964172  74.7572250  67.1037750   2.8111789  38.5445862
  67.7847748   3.3808820  38.1869354  66.2825546   3.2448096  38.3126602
   9.1832113  56.5539246  38.1998978   8.6795692  57.2958984  38.5346336
   8.8547764  55.8005905  38.6906624  22.5109024  52.5325623  30.3379784
  22.5703945  53.4738541  30.1747055  22.1528111  52.1710091  29.5272484
  17.2682343  29.7572613   1.0260102  16.6184464  29.7475567   1.7287984
  16.9987717  30.4811306   0.4606470  33.4663010  50.7078094  64.0136108
  34.4099197  50.5500603  63.9830971  33.1346703  50.0576057  64.6328812
  23.9681339  29.5460567  67.6939621  24.7529430  29.6709785  68.2275391
  23.3542576  30.2079334  68.0122452  84.7384720   0.1608441  48.7570267
  84.1463776   0.5454612  49.4033470  84.2319489  -0.5476559  48.3599129
  61.8338432  46.9323425   4.3916988  61.7466393  47.1729164   3.4693377
  62.7669373  47.0350609   4.5788293  42.2504616   3.8674490  49.4270248
  41.3377571   3.5812240  49.4628181  42.4497757   3.9159482  48.4920654
  74.4483261  55.6217499  70.0882416  75.3758698  55.8581390  70.0931015
  74.2473755  55.4593735  69.1665649  11.1606913  26.1978951  12.7455359
  10.2588425  26.0147209  13.0088778  11.1841135  25.9909992  11.8112574
  33.1163559  55.2337189  14.4167089  33.6228180  55.7729454  15.0241337
  33.4931870  54.3580093  14.5024700  28.1546745  60.0514565  46.0452690
  28.3596897  60.9284439  46.3694534  28.4948330  59.4617767  46.7181740
   1.7689786  33.5285873  46.7092590   2.0420954  33.5809364  47.6251755
   0.8727760  33.1942902  46.7453003  47.7444839  23.3265209  79.1579285
  47.1828079  23.0614071  78.4296036  48.1024971  24.1724377  78.8886948
  58.4884109  51.7458191  45.7752953  58.5006790  51.2319145  46.5827522
  58.0972366  51.1617775  45.1255989  41.8985786  53.5800438  49.9921684
  42.6703987  54.0963974  49.7599945  41.9593048  52.7983704  49.4430466
  64.3618011  28.9350338  17.9565639  63.7194824  28.9974461  17.2496262
  63.9974670  29.4730949  18.6594009  60.9428291  58.3176537   2.0860555
  60.9860382  58.2535477   1.1319823  61.1124001  59.2411842   2.2719810
  70.1215057  38.6506729  83.3893661  70.6739044  38.0739670  82.8616409
  69.2620773  38.2292519  83.3847198  68.1916275  13.6160631  11.3258877
  68.1453857  12.7212925  10.9890223  68.3180389  13.5107470  12.2688408
   1.7971910  24.4127350  77.6909790   1.8485470  24.0214138  76.8189316
   2.5511622  24.0541935  78.1591721  68.4897461  30.3847847  56.6196442
  67.9703293  29.5968933  56.7798615  68.4313736  30.8803501  57.4364929
   1.7130291   3.5285764  29.0794125   2.6467562   3.4922600  28.8718872
   1.6214067   2.9908798  29.8660011  70.2833939  20.5389786  38.0221214
  69.7914047  20.4290867  37.2084274  70.7256851  19.6997433  38.1497879
  22.1443748  66.1494370   2.9326320  21.7327709  66.1719513   3.7965226
  21.6250763  65.5167923   2.4363165  11.9233494  39.1205368  31.9729462
  12.1759319  38.2125053  32.1400261  11.5995378  39.4380493  32.8158951
  61.6567307  39.2037315  62.3242455  60.8586769  38.9302750  61.8719635
  62.3265686  39.2179375  61.6406212  31.7986679  37.6565475  33.6513634
  31.8529091  37.7563553  34.6017990  32.3646355  38.3466263  33.3053780
  50.8528709   1.3764821  23.0679951  51.5561867   1.7013997  22.5058517
  50.0909500   1.9034575  22.8271523  68.7385178  32.9304085  47.7226067
  68.9445572  33.6759186  47.1586914  67.8004303  32.7872772  47.5971947
  30.8819847  15.3556423  83.6152954  30.1787052  14.8911953  84.0690765
  30.5702438  16.2583599  83.5508652  45.9363174  53.7321129  79.7748337
  46.7497940  53.3615189  79.4325714  45.5095367  53.0011444  80.2217941
  38.6141052  17.9669647  86.0618744  38.0386353  18.1353188  86.8080139
  38.3480988  18.6097832  85.4044113  33.0159760  28.3179626   1.1285825
  32.1797028  28.5104008   0.7044961  33.1892166  27.4018574   0.9118589
  75.6365967  47.2156296  37.1664200  75.7658463  46.6921234  37.9572830
  74.6948853  47.1709099  37.0008354  79.1436996  52.8612061  -0.1388199
  78.6463470  53.0459099   0.6578943  78.8643494  51.9829369  -0.3973540
  67.0404663  57.2125702  55.5442352  67.3146286  57.7496147  56.2876434
  66.1178131  57.4332123  55.4167137  15.2587271   7.5866942  77.7784042
  15.7273684   7.8916521  77.0014877  14.6123972   8.2709990  77.9522324
  14.1197777  11.6026382  14.0501404  13.9485283  10.7964945  14.5370064
  15.0605068  11.5811977  13.8746386  83.4678040  29.8649960  10.0327129
  83.9151001  30.6920357  10.2120657  83.6666260  29.3158054  10.7910624
  71.0759964  54.1877289  87.4338150  70.6656494  54.2577782  88.2957535
  72.0137939  54.1361427  87.6184845  20.7480373  57.2538795  52.1817131
  20.4025478  57.0570297  51.3110123  21.3991680  56.5706177  52.3411293
  82.6916504  62.2466125  85.7335358  82.2088089  61.5544510  86.1851959
  83.1548157  61.7945480  85.0283051  79.6771545  52.0049286  83.9589462
  79.3619843  52.8905144  83.7782898  79.1309967  51.4401398  83.4121857
   3.1817446  59.1850891  52.6983986   2.8019536  58.3064575  52.6994934
   3.4757891  59.3177910  51.7971992  63.1451988  37.5488205  52.3703918
  62.2535019  37.5531693  52.0224075  63.1870346  38.3230438  52.9316902
  50.5358772  45.3996048  13.3155632  49.9333649  46.1333656  13.1938801
  51.4066658  45.7889862  13.2359257  71.0421982   2.3293123  21.0176201
  71.0754242   2.8440175  21.8239746  71.5745239   2.8246946  20.3951588
  73.8348618  23.2465019  46.3311272  74.1877136  24.0970726  46.5923843
  72.8852310  23.3552284  46.3822060  24.4436932   1.2659824  72.9858017
  24.6281204   0.3712748  72.6999359  24.9251652   1.8182681  72.3698502
  49.1369972  15.3217297  40.4458275  48.3867416  15.8047771  40.0993958
  49.9001503  15.7809963  40.0952530  15.6503620  21.2007160  70.6746826
  15.8036175  20.3068314  70.9808121  16.4969330  21.6362877  70.7738190
  55.7979889   6.8343439  82.1511230  55.6810646   5.9594784  81.7807541
  55.2875099   6.8218741  82.9607468  35.0274734  25.9064693  69.4835968
  34.4214859  25.2116966  69.2261047  35.4181709  25.5933342  70.2993927
  21.1552505   4.5824428  32.2578392  20.7281456   4.1210084  32.9795685
  20.6275558   4.3655639  31.4892483  56.3974953  56.1403923  49.9732399
  56.0333405  56.0794182  49.0901184  56.7818489  55.2785912  50.1338577
   5.2023792   1.6368347  50.5022888   4.3066659   1.4124721  50.2501183
   5.7520719   1.0586691  49.9733315  32.9650002  30.1415615  82.8501740
  32.4968452  30.9002037  83.1987686  32.2737999  29.5394573  82.5745926
  73.6964417  29.5651798   5.6215353  74.6112747  29.8427982   5.5742431
  73.7397842  28.6323948   5.8319349  26.2861309  63.4633980  57.2774544
  26.1098461  63.4845047  56.3368645  25.4840813  63.7976112  57.6790161
  59.2445335  35.1270714  72.5666351  59.9099579  34.5901642  72.9969559
  58.4120216  34.7720871  72.8783188  22.6977024  19.3250198  72.1514359
  22.3863106  18.4388618  72.3358002  23.1741467  19.2444038  71.3251572
  82.0877304  43.3055916  72.8283539  81.6926651  43.1265717  71.9750595
  81.4982300  43.9394302  73.2369766  84.2797623  36.4349403  52.0905914
  84.4154282  36.9881439  52.8598709  85.1569138  36.1323357  51.8554916
  59.9228172  33.6269836  38.7926407  59.5117874  33.1864777  38.0488396
  60.7762108  33.2024879  38.8806763  68.0078735  37.1883125  84.9718094
  67.4879608  36.3927269  85.0856476  67.5091171  37.7127800  84.3453827
  68.7175369  43.0772667  40.3135719  67.9930496  42.5204506  40.5987167
  69.4092560  42.9178162  40.9556999  19.6258640  12.0940914  15.3326311
  19.2941036  12.6043882  16.0713882  19.9755535  11.2966499  15.7301702
  23.2837391  50.3494797   6.6793280  23.3214912  50.1666412   7.6181450
  23.4289780  49.4995193   6.2637525   1.6836672  62.9115219  59.2283249
   2.5513873  63.1597557  59.5471878   1.2569443  62.5084076  59.9843941
  51.2239227  37.3621330  19.9392681  51.7695007  37.3409348  19.1530571
  50.4247818  36.8985825  19.6888180  22.6989689  48.6249657  43.8671608
  22.2966213  49.3749123  44.3052521  23.1394253  49.0008240  43.1049500
   5.1977925  42.0307465  87.5384216   5.8295383  41.5770416  86.9804993
   5.5853553  42.8933182  87.6867447  40.9879112  55.2218781  57.3823204
  40.2631416  55.5439873  57.9182167  41.0833664  54.3037109  57.6354866
  19.2896404  70.3942184  62.2907753  18.9516239  69.5163040  62.1140137
  18.5093765  70.9208755  62.4641418  72.6827927  18.0635204   6.8900928
  72.0958633  18.7435112   7.2207937  73.5009003  18.2001553   7.3678594
  86.2628937  30.9941864  67.0279770  86.2090378  30.4770432  66.2242966
  87.1982269  31.1624794  67.1422653  13.5174170  53.6500168   1.2158787
  12.7982845  54.2796593   1.1645672  13.0978832  52.7973747   1.1009027
  50.4980431  58.6003227  17.7142849  50.2068520  59.3345261  18.2550106
  50.1121254  57.8291054  18.1296406   3.2860832   2.5664191  61.9048615
   3.0102818   2.6842752  62.8138580   2.8125179   3.2432144  61.4212112
  13.0672417  33.5526581  74.1873550  13.4777441  33.8996773  73.3953323
  12.6364613  34.3092918  74.5850525  67.6482010   3.9230080   8.7444153
  68.0012360   4.0107455   7.8590341  68.3700333   4.1827002   9.3169117
  15.9538460  59.5653114  88.4448013  16.5255566  59.6214905  89.2104568
  15.0731449  59.4777870  88.8094101  35.1965675  59.5893631  38.8928795
  35.9214058  59.1871758  39.3715057  35.5847931  60.3548737  38.4692001
  26.4629002   7.2319169  61.9001274  26.1063538   6.8177834  61.1142540
  25.9875431   6.8226838  62.6231766  28.2580185  69.5131454  82.5431519
  28.9839611  69.8441010  82.0142746  28.0997257  68.6308975  82.2072754
  78.0469971  34.5604057  35.8021317  78.2018890  34.8691673  34.9094391
  77.1232224  34.3098526  35.8120117  66.2934418  25.9776974  39.2046509
  66.8482513  26.3250008  39.9030762  65.4010010  26.1831970  39.4831390
  36.8129234  54.3903351  46.1082420  36.3971405  53.6581497  46.5634995
  37.3266106  54.8321533  46.7843742  82.1220932  70.0620117  10.6873875
  81.8424377  70.0044937  11.6010151  82.1591949  69.1527557  10.3905668
  10.3698864  58.9378510  68.7723618  11.3019819  58.9273720  68.5548325
  10.3290997  59.3584290  69.6312485  71.5142593  13.0579615  29.4208279
  70.8165817  13.7130032  29.4008713  71.7681961  13.0065041  30.3422947
  49.5367775  47.4829826  59.5090103  49.8155098  47.2944183  60.4051056
  49.3974113  48.4298897  59.4957771  23.1206856  58.1784172  68.9256821
  24.0157032  58.0399704  68.6158371  23.2206020  58.7041893  69.7192917
  80.6610565  69.7626724  79.5871582  81.0588531  68.8939972  79.5289459
  81.0948639  70.2711563  78.9019623  85.0396423  42.7000122  38.6003227
  84.4951935  43.0874710  37.9149933  84.4548340  42.6192513  39.3537865
  46.6796265  27.7844963  28.0403309  46.3014793  27.7229748  28.9175148
  47.4332047  28.3654289  28.1445770  12.3889704   4.4628439  78.0663986
  11.7785177   5.1881151  78.1989212  13.2325344   4.8020797  78.3656464
  84.3438034  54.7105865   9.2009277  85.0175400  55.1754799   8.7047567
  83.9250870  55.3892822   9.7303362  25.9192028  62.0609474  27.0100784
  25.7247353  61.3621407  26.3855095  25.9869556  61.6154060  27.8545513
  28.6668625   9.7013893  85.1449966  29.4678516   9.7356377  85.6679459
  28.3778496  10.6122332  85.0896225  19.4864559  46.0475273  70.6489944
  19.5004902  45.5070915  69.8590851  20.4089565  46.2188110  70.8384323
  38.2644348   0.7698798  15.4123087  37.8725281   1.6324228  15.5489149
  38.2092323   0.3435543  16.2675476  24.1909161  67.8294983  81.1730499
  23.3469296  68.0295334  81.5778961  23.9761200  67.2396469  80.4504318
  85.5513458  34.1595154   5.1955824  85.8927841  34.2431717   4.3052688
  86.3310623  34.1430893   5.7505631  37.9544983  13.3661366   3.6731269
  38.0317993  13.8383389   2.8441029  37.2399864  13.8061438   4.1336684
  30.9051228   5.0500207  76.9428940  30.1364536   4.7756972  76.4427643
  30.6021900   5.0800943  77.8503952  58.6690369   0.8543004  20.7116947
  58.6836548  -0.0974665  20.8124809  59.1583023   1.0173011  19.9052944
   8.5702953  69.3115005  88.4997635   7.6387348  69.5240784  88.5566559
   8.9987164  70.1527481  88.3416824  50.9173393  71.3151474  82.1282654
  50.1997681  71.0060196  82.6812286  50.7500648  72.2513733  82.0199738
  86.6264267  23.5155392  52.3162651  87.2574310  22.8880978  51.9635773
  85.7727737  23.1152611  52.1511154  49.4160805  31.8774414  69.1162949
  49.5142441  31.9618473  70.0646973  49.2393913  30.9472637  68.9756317
   2.6353750  61.1293373  44.9204445   3.1978281  60.5234108  45.4028625
   1.7888148  61.0749016  45.3638420  67.1267624   7.3384686  29.4669228
  67.2369080   8.2367735  29.7786064  67.0146179   7.4254532  28.5203018
  16.4324970  26.3665504   6.2863488  16.2151966  27.2132454   5.8963227
  16.1757259  25.7248402   5.6241488  58.6913719  42.6109467  18.0289211
  57.8893166  42.6831779  18.5463409  58.4467735  42.0629768  17.2831802
  14.2222872  53.9501457  82.1670303  13.7034540  53.2383957  82.5418015
  14.3264217  53.7113533  81.2459564  83.6241379   4.4332371  81.5899811
  82.9967728   4.7842517  80.9579773  84.4578018   4.4233780  81.1197205
  69.5364761  70.4687576  26.1905556  69.7456970  71.3405151  25.8551579
  68.5812225  70.4581680  26.2506847  84.6763611  24.3197556  32.8604736
  84.1801529  23.6497574  33.3307037  85.1757355  24.7701664  33.5416374
  52.9665985  49.1699905   2.5848525  53.6169434  49.1913223   1.8828355
  52.7604141  48.2414474   2.6922078  60.9371719  33.2044640  73.8611755
  61.3491554  33.7276039  74.5487976  61.5909653  32.5409546  73.6408386
   0.9576988  58.2206039  44.1445885   0.8506014  59.1630974  44.2729225
   0.4156988  57.8229752  44.8260307  82.5097733   8.4531841   5.3829179
  83.2432404   7.8747325   5.5918465  81.7520218   7.8705058   5.3325224
  77.9969330  69.5787048  12.2027702  77.1600342  69.9509430  12.4807491
  78.0230484  69.7273865  11.2575502  54.9698334  60.7755127  33.9847794
  54.5157394  60.1982193  33.3709717  54.7188683  60.4506531  34.8494835
  32.9275551  40.1189842  76.5575714  32.3843727  39.7511940  77.2546463
  33.4159050  39.3706703  76.2143936  72.5275421  53.6038094   5.9870405
  72.4211502  54.0819931   5.1646934  71.8555984  53.9669952   6.5639467
   1.5343350  24.9494534  36.4234047   1.2102520  24.7868843  37.3092804
   2.1612294  24.2437840  36.2644501  36.5521164  40.9732933  55.2703590
  37.4743919  41.0642471  55.0308533  36.3848801  41.7067986  55.8621635
  55.9450645  35.9920959   6.1749701  56.1774635  36.9191513   6.2278409
  56.0825157  35.7627563   5.2558713  41.0373459  38.8784142  72.1714478
  41.5744324  38.1340981  71.8998489  41.4566689  39.6371193  71.7655334
  40.2159309   5.3567519  54.7907677  41.1230545   5.0989609  54.6267509
  40.0264893   6.0087523  54.1160545  17.5269737  14.6214266  84.4908447
  17.6253109  14.2223797  83.6263657  18.0081196  14.0396776  85.0793152
  38.9447556   5.2394013  13.1209736  39.1791649   5.7105460  12.3214073
  39.7727852   5.1370511  13.5901489   8.7729301  36.3675346  76.9977036
   8.9362364  37.3007545  77.1343155   9.5327482  36.0613899  76.5025406
  43.0741730  43.4141998  44.3749542  43.3643265  43.9953995  45.0779800
  42.2054825  43.7393608  44.1385574  82.6917419  30.1408596  54.6323967
  82.8403778  30.6885357  53.8615608  83.5693207  29.9508400  54.9640350
  64.9889832  68.2952118  19.9394646  65.5161133  67.4977112  19.8908768
  64.6750412  68.3201065  20.8433743  28.7854309   2.1358538  32.2379227
  29.7191257   2.3389702  32.2944107  28.4041519   2.8864839  31.7824974
  52.5137291  24.0963326  22.2114449  52.6503944  23.1508446  22.2714920
  51.5814819  24.2155819  22.3929024  19.2978840  61.8795586  39.7860222
  20.0278645  61.2613564  39.8204613  19.2154503  62.2030487  40.6831245
   1.1852157  14.1459599  55.0406227   1.4680960  14.6609497  55.7962646
   0.2803415  14.4192162  54.8897400  77.6181183  26.8263245  19.3568916
  77.6765976  26.5168438  20.2607918  76.8375702  26.3969440  19.0067425
  46.6989594  45.1544609  50.3198776  47.2987289  45.5556755  49.6909637
  46.3490257  45.8912811  50.8207512   0.5577840  70.1786957  17.7233944
  -0.0114244  70.2628174  16.9584389   0.1968934  69.4377213  18.2101593
  61.0783463  -0.3406757  46.2806206  61.0559731   0.2479991  45.5261726
  61.0230942   0.2402213  47.0393944  41.8859940  59.2880325   3.1457052
  41.6408501  58.4053879   3.4233313  42.7229805  59.1737328   2.6955776
  12.9963675   9.1833935  14.8825312  12.1960335   9.5011168  15.3005619
  12.9296942   8.2297621  14.9312582  52.9574966  46.9149094  28.0091763
  52.8077583  47.3745003  27.1829910  53.5142136  46.1729317  27.7730160
  12.4819765  61.2190132  60.2020111  12.3870535  61.8130798  60.9465256
  11.5869761  60.9508438  59.9939461  16.8588543  44.9864426  80.2631531
  17.5589638  44.3372383  80.1952744  16.0581322  44.4678688  80.3416367
  59.2037506  47.4975433  48.6080551  58.2498093  47.4574623  48.6760330
  59.5188484  47.0371017  49.3858337  35.8364906  34.3022003  83.0951538
  35.3717117  33.5484428  83.4585571  36.4000664  33.9314423  82.4160690
  37.4876213  67.2718582  86.6057663  37.8833237  66.4234543  86.8053894
  37.6030960  67.3736496  85.6610260  70.6567688  69.0608215  45.2191811
  70.0093384  69.4876251  45.7803383  70.5427399  68.1259384  45.3901215
   2.0711253  22.5761738  65.6798019   2.6002970  22.8692360  66.4216385
   2.5241525  21.7980309  65.3550034  58.3058662  56.1049728  76.7987976
  58.5916557  56.5744514  77.5824738  58.3199577  56.7650108  76.1057053
  59.8038979  44.3634796  66.9705124  60.6474304  43.9119339  66.9986115
  59.5682297  44.3732147  66.0428314  54.0216599  58.7186089  61.2506599
  53.7729988  57.7943306  61.2612686  53.7272758  59.0555611  62.0968513
  84.4732666  70.6656723  56.4034576  83.9290848  70.7061996  55.6170387
  84.0873413  71.3114319  56.9953117  73.4210892  52.1339226   0.9546653
  74.2822189  51.8133240   1.2228094  73.0556335  51.4248772   0.4255824
   5.5576234  64.4509735  48.1538315   5.7662239  65.0519714  47.4386253
   5.0896668  63.7302094  47.7322311  81.7938385  46.5299759  20.6631527
  82.5996246  46.0564613  20.8698425  81.8689423  46.7351608  19.7312241
  59.7386932   0.6663188  52.1428604  59.3293839   1.5309908  52.1750870
  59.0751305   0.0738900  52.4963303  64.1930847  62.0121918  63.4897842
  63.3088036  62.3568497  63.3652992  64.1820145  61.1607208  63.0526199
  21.5450726  55.6369019  82.4727402  21.0888977  54.8151894  82.6541901
  21.5676327  56.0895538  83.3158493  69.5307465  45.5599861  23.8817596
  70.2468643  45.1466560  24.3640041  69.6323013  46.4954491  24.0573254
  74.4400101  16.9692554  61.1503143  74.0097961  17.7126293  61.5728607
  75.3164902  16.9496956  61.5345459  72.8255615  39.9270401  79.5329361
  72.4324112  39.0620995  79.6492844  72.6592636  40.3789673  80.3601837
   4.9083881  42.4531021  67.0952148   5.8567948  42.3710175  67.1953049
   4.7320614  42.1309509  66.2112732  17.1401062  26.9071083   1.1928904
  17.3524818  27.8339291   1.3030442  16.2803650  26.9067631   0.7720877
  73.7573547   9.4472084  63.2112694  73.1979294   9.8412209  63.8806190
  73.3219757   9.6526546  62.3839417  58.2996216  27.2593956  22.3237438
  57.6606941  27.4109554  23.0201874  57.7785530  27.2384720  21.5210724
   5.0094337  44.0829315  41.0934410   4.3414664  44.5955620  40.6381874
   5.5481343  43.7153893  40.3927650  27.9390202  24.7182255  63.2837296
  28.3551540  23.8562183  63.2806549  28.3227482  25.1721077  62.5334129
  25.1949215  14.8582935  70.3449707  25.9360523  14.7128801  70.9330292
  25.4793262  15.5711193  69.7729416  33.8301086  55.8640404  56.9343758
  34.0829353  56.7794647  57.0539970  34.6601410  55.3965874  56.8407707
  32.1776352  56.8250008  29.1795979  32.3675117  56.4327393  28.3273602
  32.4884720  57.7270508  29.1026745  68.4185181   6.7360067   8.3462353
  67.5872574   6.5311904   8.7743511  68.2963333   6.4554620   7.4392633
   7.4391479  38.9059944  85.9629288   7.2353616  38.0042877  85.7146912
   8.1203775  38.8225975  86.6301651  34.3781815  30.8132534  10.2230396
  33.7913017  30.1253777   9.9089870  34.3910370  30.7015839  11.1736174
  60.2672310  24.7669067  51.8954468  59.4282265  25.1037102  51.5810242
  60.1576691  23.8160019  51.8983574  33.2630844  49.8783798  16.0426941
  33.0094643  49.1420479  15.4861650  32.5022888  50.4591789  16.0329094
  30.7389526  45.3237724   1.0638654  30.9537411  45.0757751   0.1646455
  30.3976555  44.5213203   1.4586058   8.2988176  61.9484863  52.4800224
   9.1860952  61.7177887  52.2047997   7.8484631  61.1081886  52.5655022
  54.0313492  42.3775291  60.6738472  54.1031609  42.0709190  59.7699318
  54.3390808  43.2834435  60.6446419  46.5267677  69.9678650  79.0239334
  46.6863060  69.4176102  79.7907410  47.3509293  70.4356537  78.8891678
  64.9319534  62.2285271  66.1253052  64.8952484  62.0864983  65.1794128
  64.0151215  62.2596321  66.3985901  28.2087955  58.8013000  12.2104130
  28.2729778  58.3851967  11.3507795  27.6640835  58.2055511  12.7248106
  45.4531746  39.6725502   1.8461858  45.2331810  39.9129410   0.9461600
  46.3116570  39.2544785   1.7794095  71.8745270  28.1375465  66.1232147
  71.4799118  28.7712097  65.5240707  71.1401901  27.8087044  66.6417236
  46.4465256   1.0061641  12.4684582  46.0822029   0.4086831  13.1215410
  45.7493401   1.1065359  11.8203144  24.6431427   1.9720782   1.7656913
  24.8881283   1.4741559   0.9857631  24.9273014   2.8666103   1.5778114
  67.8521194  36.8737907  14.3880329  68.2351685  37.6100464  14.8649406
  66.9229965  36.8975258  14.6169300  59.2448692  58.9066734  43.5133362
  59.1622391  57.9535561  43.5444870  60.0411072  59.0944252  44.0103149
  81.5257416  33.8192940   2.0100145  81.8651428  33.0488930   1.5544647
  80.8230591  33.4796295   2.5641716  10.1318808  -0.0633297  78.4849472
   9.2439661   0.2619045  78.3364105  10.6596985   0.7264783  78.6026077
  26.2102242  22.2859249   5.4094291  26.4007969  21.3614826   5.5685511
  26.1971664  22.6812649   6.2810755  66.9450607  65.1202087  15.3342419
  67.7795486  65.5195923  15.5798874  67.1902161  64.3302841  14.8524151
  56.6703911  65.9847870  52.4849167  57.0368347  66.8661194  52.4127388
  55.8896446  66.0937500  53.0278702  61.1414719  20.8733826  15.6766014
  61.9561119  20.3976250  15.8386097  61.2086716  21.6564083  16.2230339
  77.0654984  42.5045090  79.3243408  77.8511353  42.0123215  79.0861053
  76.7488022  42.8655701  78.4963455  81.0982971   3.4308372  84.1650009
  80.7966385   2.5763261  83.8567123  80.8765793   4.0335007  83.4551697
  56.9697533  13.9184732  12.0884848  56.7849464  13.3586073  11.3344107
  56.1084557  14.2114630  12.3860674  26.7158051  65.7200928  44.7443924
  25.9356289  65.9998016  45.2232666  26.7225304  64.7670517  44.8332634
  25.4097004  55.8075027  29.9093056  26.3122196  55.6788826  30.2011070
  25.0280418  56.3938904  30.5625439  72.2257309   6.6169267  15.0501118
  71.7779922   5.7851348  15.2046680  72.6068573   6.5251398  14.1768694
  58.0933762  29.4604073  26.0201950  58.5828743  28.6660271  26.2337017
  57.1745949  29.2054825  26.1043758  25.3197308  52.0884476  51.1400948
  24.7757301  52.2303658  50.3653984  25.9102669  52.8415260  51.1593094
  58.8949280  13.8613787  33.1575279  59.7235870  14.3399448  33.1805382
  58.3049660  14.4277849  32.6601715  35.5792198  36.3810081  16.1451454
  34.7370224  36.8121147  16.2903347  36.0109749  36.4050751  16.9991016
  43.2664986  41.8090630   3.3082061  43.2545471  40.9209061   3.6649554
  44.1523781  41.9161415   2.9618208  23.8765488  38.3689117  74.5283737
  23.0470963  38.0977097  74.9216766  24.2137756  37.5766106  74.1103134
  84.4847641  50.5928917  69.5326843  83.5980301  50.9458199  69.6060638
  84.4532776  49.7646446  70.0114822  81.0905304  52.9130363   5.9771066
  80.4517059  53.2584152   6.6006799  81.9106216  53.3494072   6.2079115
  83.6674271  59.9686737  54.7443733  83.1082535  59.3861923  54.2303009
  83.4415665  59.7759781  55.6543655   5.8979249  70.4473801  88.6116409
   5.1090536  69.9074402  88.6603699   5.9914498  70.8146667  89.4906082
  49.9539032  69.2210922  68.3897018  49.1371117  68.9349442  68.7985992
  49.8445854  69.0095139  67.4626007  55.9256325  60.3864403  66.5133438
  56.0789871  60.2385635  65.5801468  55.1144676  60.8936043  66.5453491
  73.3103638  50.2651787  81.9895477  72.6280060  50.4800949  82.6254959
  73.1764069  50.8877449  81.2749176  50.7694092  50.2713318  82.9895248
  51.4965210  50.8853989  82.8872375  51.1592827  49.4107437  82.8358536
  17.7773666  41.4569016  84.1335297  17.7334805  41.5930939  85.0799789
  18.7022457  41.2823296  83.9593048  19.8290310   3.5195820   8.8872957
  20.1870518   4.0434003   8.1705894  18.8856087   3.5060861   8.7260380
  66.1364746  28.0641956  51.9214401  66.5630875  27.3748837  51.4124374
  66.8592682  28.5615044  52.3041725  22.6150417  27.6930218  79.1753540
  23.1731491  27.3271427  79.8615646  22.5330734  26.9886856  78.5323792
  36.7850533  41.6353073  23.3904610  36.0506554  41.5059738  23.9905987
  37.4351196  40.9883652  23.6645184  74.6331482  40.7834549  20.6395321
  75.1698990  41.4475822  21.0720520  75.1114349  40.5742111  19.8372269
  79.0378342   7.1643138  53.7527504  78.3335037   7.2570739  53.1112289
  78.8440094   6.3427825  54.2041359  84.3304138  29.3017464  85.7440262
  83.8722534  30.1084785  85.5084381  83.8709335  28.6153545  85.2603226
  48.7732391  64.2906189  56.1859779  48.9563828  64.8343964  56.9521370
  49.6001205  63.8429565  56.0068169  61.6513519  42.6649666  14.8830872
  61.2284622  43.3534431  14.3698654  61.5910149  42.9698029  15.7884417
  23.6164761  22.6318913  87.8931961  23.7810612  22.4514484  86.9676819
  22.7219524  22.9718323  87.9155579  80.0792160  58.3078575  35.3576431
  80.2852478  58.0918961  36.2671165  79.1592255  58.0638733  35.2560425
  24.9236679  34.8936234  84.3482666  24.4476814  34.4989738  83.6175690
  25.5497608  35.4871712  83.9336014  68.4190903  71.6488113  17.0397034
  68.6558380  71.3576050  16.1591454  67.5173721  71.3496857  17.1565495
  59.6866570  21.2857780  51.1472321  59.7835617  20.7583237  51.9400940
  60.5284386  21.2018452  50.6993523  30.3239746  33.0240250  58.9651527
  30.1453686  32.6631622  59.8335495  30.3223400  32.2630043  58.3845673
  19.3236370  57.7118034  31.6006031  20.2078667  58.0783653  31.5984421
  19.2911224  57.1601944  30.8190002  56.2680664  46.6238670  37.0335884
  56.6276131  47.3739319  37.5072594  55.4413528  46.4343185  37.4772644
  51.7332687  59.9772644  74.9191971  52.3062134  59.8400040  75.6735992
  50.9147377  60.3004532  75.2957458  30.3780823   0.8266801  16.2514153
  29.7923298   0.9115946  15.4991417  29.8192616   0.4939792  16.9537392
  11.6398373  15.3859205  68.8714752  12.5727425  15.4825077  68.6801834
  11.5995426  14.6805792  69.5173111  68.9376297  12.1014938  72.9530106
  68.2149124  12.4635220  73.4656982  69.5198975  12.8458652  72.8010178
  75.5066833  25.4771461  40.6270218  75.3323593  24.6616039  41.0968437
  74.8332901  26.0817909  40.9387627  83.4218445  20.3994160  37.7173882
  84.1607437  19.8951454  38.0579338  83.5699463  21.2885571  38.0394516
  66.5537262  31.6102581  30.9933167  66.8167496  32.5124855  31.1750660
  67.3329468  31.2058258  30.6118889  68.8395081   9.3082008  24.1542492
  69.2930984   9.9628181  23.6232433  68.7328033   8.5577583  23.5697136
  75.3866501  53.5721664  16.3438358  76.0500031  53.6433258  15.6574402
  75.1457672  52.6457863  16.3490105  44.9321785   9.9554586  83.4163589
  45.8254013   9.8165951  83.7311554  44.9957123   9.8606396  82.4659882
  29.7740440  51.7141228  56.4913673  29.7834568  52.4825211  57.0620728
  29.4444942  51.0074463  57.0465584   6.8208494  56.7221413  22.6079140
   6.2172637  55.9806709  22.5616894   7.5561199  56.4002838  23.1294670
  13.6987066  56.6860085  36.0960503  13.9100170  55.9467583  36.6662178
  12.7638645  56.8367958  36.2359238  32.7511864  57.7805939  33.7789497
  33.0425072  58.6496582  34.0548058  32.4773407  57.3513145  34.5894775
  67.9649277   9.0815687  65.9330292  67.8949203   9.8248262  65.3339462
  67.9172668   9.4720001  66.8056793  15.9947443  37.6080818  67.7336731
  15.5186682  37.9747162  66.9885864  16.1198540  38.3493652  68.3261948
   0.5425158  33.1662178  82.3144226  -0.2146105  32.5843925  82.3812790
   0.1918588  34.0376930  82.4982834  58.7237434  25.3010674  39.0628166
  59.2226486  25.5452614  39.8423653  58.0031281  25.9303875  39.0327759
  34.3166275  60.1892738  55.8622856  34.2844009  59.4596100  56.4809799
  34.5193329  60.9528236  56.4027863  60.8495598  68.0753326  75.2584457
  61.3026848  68.3258896  74.4533768  61.0869942  67.1576080  75.3912354
  15.9872103  61.5226822  71.3240356  15.6900673  60.7592125  70.8290100
  15.1935015  62.0375557  71.4695206  50.6940994  35.3703232  36.9928741
  50.8727608  34.8219719  37.7568245  49.7731667  35.6149826  37.0837631
  73.9177475   4.9743514   5.6318707  74.2724152   5.1569872   4.7617621
  72.9682693   5.0090942   5.5156298  10.8868790  43.6062584  73.0386505
  10.2437458  43.6317329  73.7471466  11.5619116  44.2302895  73.3053818
  14.4525843  25.5013943  75.7779922  14.0154781  25.6429863  74.9382782
  15.0381508  26.2526207  75.8728714  54.8772545  65.9403076  81.9345016
  54.6332436  66.8066788  82.2602081  55.4649887  65.5896301  82.6037064
   2.1969981  61.7939720  75.6096802   1.7324687  62.5136108  75.1824036
   2.1939662  62.0249596  76.5385895  57.0290680  16.5200138  84.9468155
  57.0822029  15.9209127  85.6914520  56.0953674  16.7121658  84.8601532
  27.4061546   8.1205368   4.8841023  27.8243866   7.5256538   4.2616644
  26.8524761   8.6831551   4.3426867  55.7858047  31.6310997  12.5575304
  55.0485878  32.1414719  12.2224712  55.8103333  31.8315830  13.4931774
  81.4702606  45.1461372  27.0248184  81.1593323  45.4392090  26.1682777
  81.6396713  45.9550323  27.5077496  54.8845787  49.9505081  64.0573807
  55.5182190  49.6111221  64.6894836  54.1566315  49.3298759  64.0911789
  77.9356155  32.2557449  23.5210648  78.1001740  32.5551720  22.6269207
  77.4149399  31.4595757  23.4150238  27.6196480   4.7868557  31.6246510
  26.9365788   4.7845330  32.2952042  27.4272366   5.5567479  31.0894165
  48.6902390  45.8816223  16.9221573  48.0727882  45.7415352  17.6400433
  48.5117073  45.1677895  16.3099499   9.3231287  28.3008022  71.5796509
  10.0942221  27.9988289  71.0995865   9.6762552  28.6894188  72.3799667
  30.7686615  36.9460258   2.2405391  30.3265476  36.6291237   1.4529243
  31.4448833  36.2915154   2.4153845  12.3603554  21.4845676  75.9313965
  11.5769539  21.6144199  75.3969269  12.3965321  22.2573490  76.4950714
  13.3915520  45.8094635  44.4634056  13.4564981  45.5275154  43.5509834
  14.2552137  45.6256981  44.8329315  84.7392883  16.1011581  84.9403458
  85.1695251  15.6955900  84.1875839  83.8165054  16.1506081  84.6908493
  73.0275040  41.4162788  54.1644135  72.4016342  40.7976189  54.5409470
  72.8841248  41.3570290  53.2198677  71.6627274  27.9119835  60.0822945
  71.1784821  28.5262604  59.5305748  72.1630936  27.3785686  59.4647675
  15.1932745   8.1224136  10.4312754  15.4114437   7.7254329   9.5880432
  15.2232275   7.3953867  11.0531807  80.3003387  16.6690197  25.6265450
  80.4535522  16.7973766  26.5626450  79.7036362  17.3764935  25.3822899
  43.2708473  69.0806122  79.0493240  42.3464661  69.3038712  78.9402084
  43.2790985  68.1267624  79.1288910   3.3598247  38.7702789  86.2147217
   3.5357592  37.9716682  86.7122192   2.9764752  38.4614983  85.3937912
  30.3838444   6.4147520  85.7614059  29.9182053   6.2443299  86.5801697
  29.6984730   6.6741767  85.1456146   3.8229640  44.8245201   3.6627724
   4.7716775  44.9176559   3.7493725   3.6833978  44.6500626   2.7320099
  25.5293274   8.3548374  16.5444298  24.7448101   7.9430852  16.9066811
  25.7182236   7.8537288  15.7510567  76.7430267  63.1560593  26.4169827
  77.4627838  63.5704117  25.9410667  76.1597824  63.8795090  26.6464901
  22.6247387  12.7204037   7.4144425  21.7238731  12.5176744   7.6665792
  22.6574936  12.5378141   6.4753900  62.4500275   3.3602495  21.4360275
  63.2277145   3.9183130  21.4348412  62.0559692   3.5004053  22.2970181
  26.3407879  36.1378059  27.3400879  26.1770096  36.5637131  26.4986534
  26.1843433  35.2084503  27.1725922  48.7134476  42.2375488  55.5507126
  48.8504753  43.1798630  55.6481667  48.9509926  42.0537071  54.6418648
  36.8699608  48.0875702  77.8600311  37.0601349  48.1467628  76.9237823
  37.7293587  48.0119019  78.2746811   2.1725125  51.7460022  45.5009842
   2.5477877  51.6829567  44.6226730   2.8872283  51.4935265  46.0855064
  61.1529045  70.5805054  24.8500919  60.9611320  69.9071579  25.5028210
  62.1087532  70.6251907  24.8257828  76.8022156  25.9428577  30.6361122
  76.6429291  25.0210743  30.4331932  75.9284821  26.3195572  30.7406044
   5.5041213  65.5943832  66.4803238   5.1963329  66.2798233  65.8873062
   5.3874474  65.9645309  67.3553162  73.3826370  21.8727837  87.2313080
  72.9014511  22.6711292  87.4488678  72.7161560  21.1857719  87.2244492
  73.5716324  34.7609673  39.9630814  74.4280701  34.4340057  39.6876755
  73.1512299  35.0447235  39.1513138  59.1218300  35.7182732  35.1046982
  59.0855026  36.5820732  34.6938934  58.9141731  35.8816681  36.0247040
  80.2570343  45.4716988  67.6429825  81.1334457  45.8556519  67.6162338
  79.7005157  46.1142426  67.2029266  73.4898605  10.7665777  40.9325333
  74.2899017  10.2635593  41.0846329  73.4253693  10.8316736  39.9797287
  55.4067993  66.8788300  65.7456665  55.0696754  67.6258011  66.2402496
  56.1500587  66.5659332  66.2613220  48.9923782  32.3558426  83.4918747
  49.4053421  31.5047398  83.6378784  49.7242012  32.9697495  83.4303894
   8.7614069  44.0906639  75.1488037   8.1709261  43.4702759  75.5762177
   8.1981373  44.8221130  74.8959427  10.9333439  48.3120766  76.2858276
  11.0504532  48.7774963  75.4576340   9.9861708  48.3031998  76.4237213
  13.7139740  21.0867882  66.2917709  13.6565409  20.7069588  67.1685104
  14.2871218  20.4907589  65.8096085  22.6852245   1.6583996  53.0793533
  22.0227585   1.0914479  53.4742393  23.2057228   1.9702280  53.8196754
   9.1313705  17.9267368  51.1529961   9.3725023  17.5549927  52.0014610
   9.2806692  18.8669910  51.2523193  44.5670013  33.6426964   6.6453400
  44.5306740  32.6873474   6.5982175  43.8416824  33.8817940   7.2223835
  49.4440727  44.4624062   8.5918455  49.1469040  45.2860298   8.9785843
  48.9379044  44.3809776   7.7835164  60.7392731  58.5848656   6.0594983
  60.6854362  59.5359764   5.9661345  61.0639954  58.4495850   6.9497156
  54.1245079  19.2966995  16.5216846  54.1656952  19.7298222  17.3742924
  55.0400925  19.1701279  16.2728577  50.4221649   5.6270204  24.7083912
  50.2851677   5.9704962  23.8255043  49.7371597   4.9674435  24.8177528
  78.2550278   3.2237058  20.0099792  78.6458893   3.9755700  20.4551334
  77.7827606   2.7563372  20.6990089  49.1808624  34.7448196  52.3389015
  49.0224419  34.1018944  51.6476822  48.4624367  34.6132584  52.9575996
  65.8797760  65.2515182  57.3216820  66.7746811  65.5824280  57.2449913
  65.5062408  65.7390289  58.0558701   2.6290352  59.9453812  57.3298759
   2.8625896  59.7973366  58.2462616   3.3831635  60.4059410  56.9618988
   8.6293640  25.6058998  47.0111580   8.5355587  24.7783356  46.5393867
   8.0693426  25.5074482  47.7811699  67.4844284  60.3786774  86.0742111
  66.5629807  60.6097641  86.1915359  67.5138321  59.4323425  86.2149963
  80.6162109   9.2683897  58.2179031  80.4515305  10.2112989  58.2238274
  81.4628754   9.1703825  58.6535378  36.9745636  19.7892151  84.5028687
  37.2979584  20.5721226  84.0571060  36.6799736  19.2153931  83.7956390
  51.1544647  54.5262756  16.7336769  50.6291122  54.7158012  15.9563017
  50.7007675  53.7977982  17.1576023  69.8585968  52.8892136   8.9871407
  69.9058914  52.0769043   8.4830093  70.5068970  53.4627800   8.5785351
  71.4164047   9.5305099  68.5114441  71.0970917   8.6349659  68.6222153
  72.3698196   9.4457445  68.5048599  75.2333527  31.0812454  61.7144585
  76.0981369  30.8703365  62.0664444  74.6212234  30.7753372  62.3837471
  31.6083183  59.0199280  74.1165695  31.9861298  58.5086174  74.8321457
  30.6635818  58.9772911  74.2645187  74.2777023  13.8061085   0.7728188
  74.3552322  14.5264502   1.3983812  74.4675674  13.0211639   1.2866710
  22.7631283  27.4611301  86.4042664  22.5936928  26.5515823  86.1588211
  23.6222610  27.4394073  86.8257523  16.7165527  54.7979317  76.0149078
  16.4687557  55.7198257  75.9446411  16.0637436  54.3338280  75.4908142
  34.4369621  41.2025719  25.2123089  33.6626320  41.5542717  24.7730427
  34.4624596  41.6579399  26.0538692  32.6050377  35.9201012  83.4859848
  32.8930054  36.8289604  83.4006424  33.0685158  35.5934105  84.2571487
  63.3648720  67.5760422  38.9595337  63.4088974  68.3078537  38.3441086
  64.0078964  67.7920227  39.6348877  51.4923630  43.9294777  16.9613953
  51.8108978  43.8019447  17.8549862  50.8741875  43.2119255  16.8227882
  55.0048943  44.5402489  17.1736126  54.5832748  45.3133736  17.5487728
  55.3783302  44.8480988  16.3477764  27.1383629  56.1902122  78.8233871
  27.9947262  56.5878410  78.6660233  27.1862411  55.3386078  78.3889847
  74.9367676  52.6378899  57.4118423  75.5026550  53.2409821  57.8937950
  74.4901505  53.1898346  56.7698746  76.8774490  47.6307678  15.0727539
  77.0438538  48.3991661  14.5267677  75.9261475  47.6127167  15.1773148
  57.8921967  55.8161430  57.2448196  57.2154846  56.3823357  57.6159248
  57.6885414  54.9448929  57.5849342  16.9202747  54.7195244  89.0016327
  16.8453293  55.2871780  88.2345734  17.2562160  53.8926353  88.6557617
  41.9053802  45.6042976  73.9104385  42.5414162  46.3188858  73.9429626
  41.3158951  45.7747192  74.6450806  66.8877106  60.8090324  30.9050026
  67.6327667  61.1530342  31.3977261  66.2065048  60.6743240  31.5638256
  54.6641426  20.9427586  67.3088150  54.0979156  21.7116108  67.3757782
  55.1711159  21.0875187  66.5099030  37.7135429   4.1792803   9.2139320
  38.4202576   3.5880151   9.4731464  36.9265862   3.7963798   9.6016369
  60.8214340  46.8603859  79.4463654  61.3448486  47.6393585  79.6346893
  61.3324051  46.3802757  78.7947235  46.3601646  47.4987411  75.1999512
  45.7566452  47.9857216  75.7610626  46.2897682  47.9249306  74.3457642
  68.0693512  47.5039139  83.5981827  68.9154205  47.2228661  83.9466171
  68.0428696  47.1418686  82.7124863  40.9255066   2.8537116  74.6562195
  40.9241371   2.1400840  75.2941513  41.1279182   3.6348457  75.1710892
  69.8581848  41.8584137   0.5526821  70.7912445  42.0607948   0.4842853
  69.8061066  40.9146423   0.4016376  19.3868141  59.6271629   2.9300053
  19.2151680  60.2125282   3.6676471  20.3018246  59.3677025   3.0380225
  19.4982376   6.1178217  58.7351761  19.3071899   5.6354122  57.9308052
  18.9615898   5.6914663  59.4033546   1.8988249  63.9558144  21.0942650
   1.3032167  63.2611923  20.8132286   2.3856423  63.5731239  21.8241882
  41.2747765  40.3235550  33.7976608  41.5112686  40.4011459  32.8733864
  41.9046364  39.6971931  34.1542854  84.1277466   2.5028682  12.2935266
  83.8333664   2.3531899  13.1919508  83.3317261   2.4352860  11.7662573
  66.5678253  17.0767517  83.8251114  65.8558502  16.4559078  83.9796295
  66.7907562  17.4069805  84.6954498  39.2358665  60.5604782  21.0778008
  38.2856750  60.6560364  21.0127068  39.4807739  60.0644226  20.2966595
  58.1670837  31.4855442   4.2085991  57.5741730  30.7827454   4.4746161
  58.8441048  31.0458946   3.6942241  33.4137573  65.6354065  29.5093536
  34.1210518  65.3860703  30.1041622  32.8122940  66.1446762  30.0526047
  75.3051529  58.7119293  87.2378998  76.2399216  58.6330376  87.4282074
  74.8766174  58.2063980  87.9285736   0.0579061   8.6125536  31.0261173
   0.5267957   7.7819476  30.9456959  -0.1657122   8.8494787  30.1260662
  66.6406631  21.6370735   3.1284409  66.1917953  20.8978043   3.5386002
  65.9964600  22.3449574   3.1403794  40.7357140  36.4381523  34.4061546
  41.5477333  36.2104416  34.8589249  40.2811966  37.0252914  35.0102386
  48.3756676  52.9092064  78.2785950  49.0418739  52.9582977  78.9641495
  48.7770233  53.3390694  77.5233688  83.3955841  65.6223831  26.6775227
  83.3388824  65.0085602  25.9452362  82.5594254  65.5286560  27.1339054
  27.6517925  10.5992718  73.8412781  27.7203808   9.6883869  73.5552444
  28.5588551  10.8954334  73.9171600  37.5290184  67.3487625  48.1537933
  38.1344452  67.5216980  47.4328346  36.7320213  67.0342331  47.7270622
  83.7547531  10.4059629  63.4589539  83.5153351  11.2810917  63.1538963
  83.6937256  10.4597540  64.4126892  22.6826420  61.7858467  66.8010864
  22.2416668  61.4081306  67.5620728  22.2157021  62.6049156  66.6357803
   7.2726464  34.1696587  66.1215057   7.1168914  35.0959663  65.9373169
   6.7474561  33.7043839  65.4704132  49.2317200  33.6465912  21.5656166
  48.8427887  34.2394600  22.2086296  48.5004997  33.1077652  21.2635937
  61.3055458  68.6056061  22.2251110  60.8404884  68.0931473  22.8864269
  62.1972237  68.6819763  22.5646763  69.7314682  41.5947952  77.4482498
  69.5201111  40.7013054  77.1776276  69.6232834  41.5889168  78.3992996
  64.7181931  21.0144520   9.0520220  64.0316467  20.6200314   8.5141382
  64.2754974  21.2573109   9.8652096  13.7396212  37.4995651  73.8827591
  14.6016998  37.7723122  73.5686569  13.1980505  37.4628143  73.0943527
  71.8660202  40.4724426  23.6674957  71.3763885  39.6788025  23.4515800
  71.9035721  40.4779434  24.6239433  16.6823540  70.1349335   6.3807983
  16.1315975  70.2449112   5.6056828  16.6850815  70.9969406   6.7969432
  85.6693420  41.4862823   5.7033386  85.4618149  41.8512993   4.8431478
  86.2778625  42.1157913   6.0901809  85.1305389  58.6960411  29.7235832
  84.4389343  59.1576576  30.1977444  84.7325211  57.8631477  29.4703922
  75.2487259  65.6496964  50.0177879  74.4096146  65.3213120  49.6948547
  75.0973740  66.5820389  50.1729164  32.0190620  23.0665588  80.6505280
  32.3212967  23.6707039  81.3286819  31.4082317  23.5829086  80.1246948
  64.6247330  43.1775513  55.2883224  64.2814255  43.3030357  54.4036598
  65.2669144  43.8788757  55.3977432  84.8245621  51.9259872  73.7874908
  84.8081131  51.0222359  73.4725418  85.0696182  52.4426994  73.0199051
  69.0144424  66.9037170  21.2701397  68.5284424  67.0538712  20.4592819
  68.3433151  66.8895035  21.9524994  42.1933327  67.9787445  14.9499416
  42.0632210  67.9842606  14.0016413  42.4849663  67.0884933  15.1465130
   2.8747118  31.4450245  18.9905300   2.8998036  31.5239067  19.9441433
   2.6687875  30.5238247  18.8317356  43.2168236  17.4139481  56.1970444
  43.6909256  17.0076103  55.4715462  43.8235855  17.3669662  56.9358711
  25.5765038  48.9506035  48.8056755  25.3234119  48.5618515  47.9683914
  26.5114994  48.7614670  48.8846817  30.8361645  36.0142593   5.9425626
  30.2522049  35.9179192   6.6948538  30.9396610  36.9602280   5.8392911
  25.9647865  30.6373768  74.5240021  25.1810246  30.1090183  74.6749420
  25.8216362  31.4309673  75.0397034  42.7354012  60.8250313  12.9054241
  42.8630600  60.0011253  12.4352026  43.0799179  60.6561852  13.7823677
  15.1007948   1.3025982  57.2823906  15.3183756   0.3736249  57.3591957
  14.2158127   1.3119637  56.9177666  53.0001564  37.6768494  60.7448769
  53.3885803  37.1978035  61.4769135  52.4587975  37.0284386  60.2946243
  69.6940002  67.7422562  37.4070473  69.2879791  67.2428894  36.6985168
  70.6082153  67.4586487  37.4066200  19.9637604  61.4063721  28.5540009
  19.4815140  60.6161308  28.3107071  19.3201656  61.9489632  29.0096474
  64.2507248  30.9054794  13.0670929  64.0151978  30.8276539  12.1425924
  64.0312958  30.0528603  13.4427547  70.2363663  39.4254799  73.7563400
  70.8758469  40.1080055  73.5527191  70.5368042  38.6613197  73.2643814
  80.2718658  40.8810997  16.8808613  80.3192673  41.8368492  16.8579006
  80.0898819  40.6722641  17.7971039  85.1304626   2.5606267  56.3705254
  85.5783157   3.3861198  56.1855354  84.5248947   2.4472709  55.6379509
  20.2825508  37.8096695  87.3420105  20.7774296  38.5321426  87.7284775
  20.6186867  37.7400665  86.4484787  58.1907272  24.1446781  41.7868919
  58.6213188  23.9828949  42.6263237  58.3520241  23.3502178  41.2779236
  26.0788288  45.8823013  39.6851273  26.7520733  46.5562973  39.5918312
  25.8933926  45.6032639  38.7884789  57.9735336  54.1662369  73.2633820
  58.8264236  54.3136139  73.6721420  58.1330757  54.2844467  72.3270035
  70.3980179  31.8618546  65.8835526  70.0679703  30.9900475  66.1009293
  69.7315598  32.4609909  66.2198563   1.7488978  36.2083702  31.8021622
   1.1922680  36.6252861  32.4598694   1.1583499  35.6283646  31.3214531
  31.8508167  47.3598213  79.1061172  31.2018929  46.7126198  79.3822708
  31.6173649  48.1535378  79.5875168  51.4042778  21.9974384  63.1050148
  50.7784195  21.6746120  62.4566956  51.2283058  22.9366665  63.1608315
  36.8817215  60.7148094  23.6021805  37.0964203  61.5951691  23.2937851
  36.3455620  60.8583374  24.3820305  73.3123016  15.4726009  52.5254555
  72.5658035  15.3045244  51.9503746  74.0765533  15.3972759  51.9540710
   6.5518103  59.6834068  78.0439835   6.5240622  59.9385414  77.1218338
   6.8682237  60.4638367  78.4990082  25.4628239  60.1485138  53.0183334
  26.0510731  59.4255981  52.8001976  25.3559761  60.6268044  52.1961098
  50.2162704  19.6637897   5.8826437  50.2597237  19.7098083   4.9275389
  51.1124496  19.4649830   6.1538768  18.4524498  65.3894424  26.7559643
  17.9548950  64.8837662  27.3985806  18.9150162  64.7302094  26.2385921
  51.0611420  67.4788742  81.2869873  51.1442070  67.4868164  82.2405472
  50.1215401  67.3868179  81.1291733  83.2558823  65.8003464  37.5262718
  83.4344406  65.0434418  36.9681931  82.4602203  65.5640106  38.0030327
   2.4924159  21.2315617  29.4321232   3.1505511  21.1348553  30.1204090
   2.9527092  21.6783657  28.7216816  18.4298916  13.8852091  70.5402527
  18.7074890  14.1892176  69.6761017  19.1961021  14.0179777  71.0983963
  21.9639664  66.7000656  11.3027220  22.0310535  66.5367813  10.3619413
  22.7067432  67.2705536  11.5003653  32.1209641  42.7008400  18.3670635
  32.6611023  42.0057793  17.9910717  32.4441681  43.5033760  17.9575424
  39.2282562  41.9880333  29.7630463  38.4730721  41.6552658  29.2780762
  38.8969688  42.7599411  30.2219982  75.1674042  33.4736977  82.7562103
  74.6533279  32.9654236  82.1288300  75.5830460  34.1556625  82.2285767
   9.8904915  64.3522491  37.1465111   9.2738247  63.6449661  36.9575691
   9.3666515  65.0115204  37.6016884  34.7237129  58.5988922  13.5256844
  35.0044441  57.8274956  13.0333767  35.0977669  59.3381577  13.0463095
  62.9199753  42.8779373  59.7144051  63.7263985  43.1712570  59.2902870
  62.9246292  41.9268990  59.6060753  57.5377655  64.3686829  65.5027313
  56.6296272  64.0753403  65.4288330  57.5149345  65.0522003  66.1724472
   5.7152567  57.7697182   3.8317726   5.5982847  58.5886765   3.3502553
   6.4920254  57.9178543   4.3711419  42.3337631  60.5323906  68.3844147
  43.0402832  60.6453972  69.0202560  41.5883026  60.2336655  68.9052658
  47.8919907  14.6787395  74.4866409  48.7702637  14.6291151  74.8640060
  47.3141060  14.8000164  75.2400131  66.8217621  46.3013077  70.4710388
  65.9610596  46.0714264  70.1209259  67.4394379  45.8078804  69.9313736
   2.0546501  69.1809769   9.3966579   2.5312104  69.0751114   8.5733032
   2.7116442  69.5026321  10.0140162  41.5215950  59.4446335   9.1078215
  40.5889931  59.2325706   9.1467724  41.7961922  59.4863586  10.0238380
   4.7462821  46.2181854  56.8809166   5.6527429  46.2782822  56.5793419
   4.5274553  45.2899933  56.7984276   1.8612192  49.6616211  36.9842682
   1.0815793  49.6240654  37.5383301   2.2293987  50.5299835  37.1474228
  85.2484818  61.7767487  53.2866669  84.7310715  62.5009727  53.6388206
  84.8953400  60.9983749  53.7175484  73.5613403  40.2369156  57.3031311
  73.1834259  39.8935776  58.1127777  74.5072403  40.1947784  57.4436150
  74.6414871   9.0337667  36.4666252  74.4384460   8.3346272  37.0880814
  74.4995041   8.6383982  35.6065369  20.8605480  40.2530556  74.4402771
  20.8693542  39.7596970  73.6200638  21.1255836  41.1381912  74.1902237
  67.7837753  70.0637970  34.6169701  66.9137802  69.9688263  35.0046768
  68.3868408  69.9554825  35.3523674  39.4845924  57.7158241  62.7338600
  39.8152390  57.6786194  63.6313667  38.6273689  57.2920685  62.7766571
  42.9318237  41.8184242  66.3614044  42.9623451  42.2763329  67.2014160
  43.2632904  40.9414520  66.5544891  75.5627899  60.3165207  41.4243431
  76.1609268  60.2186317  42.1652107  76.1366501  60.4192505  40.6651573
  56.7819748  51.8252907  70.8997498  57.5104752  51.3707657  70.4767609
  56.3923492  52.3535538  70.2030716  54.9125214  70.3880005  19.7777271
  55.3939590  69.8015442  20.3612652  54.0715446  70.5231171  20.2144661
  61.1999702  15.9577074  69.6896133  62.0249634  15.6632433  69.3037338
  61.1272469  15.4629498  70.5057983  16.3159962   8.1508770  17.0494614
  15.6617804   8.1250057  17.7477188  17.1216202   7.8427739  17.4645233
  38.0210419  24.1898232  64.7279129  37.2900238  23.6223087  64.9723892
  38.6934471  24.0108337  65.3852310   6.4774580  45.4269753   9.5487480
   5.8731365  45.6351738  10.2612658   7.2676172  45.9280510   9.7507458
   2.9674711  54.0608330  11.2590170   2.5458696  53.8784485  12.0987902
   2.7073367  54.9580460  11.0502768  19.7866058  52.4666367  36.1884117
  19.8943558  52.5476418  35.2407532  20.4256382  51.8022461  36.4461975
  18.7707672  10.3052053  23.5748825  19.0269585   9.4527044  23.2229748
  18.8187428  10.8981161  22.8249569  74.9708710  14.8303165  87.4242096
  74.8110657  14.3511276  88.2372742  74.1447983  14.7701302  86.9444046
  67.6611710  42.8711014  75.4770966  67.6949539  42.5468292  76.3770599
  68.5787506  42.9786720  75.2266617   1.7766563  33.8362465  37.4038086
   1.7780352  33.6020889  36.4756927   2.6338651  33.5544395  37.7231979
  35.9943161  63.3490105  12.2780628  36.1075478  63.8631935  11.4786730
  35.3540916  63.8419533  12.7912416  68.6808548  16.0847244  59.0385170
  68.8033524  16.3741341  58.1343765  67.8684845  15.5788021  59.0200729
  44.7421188  36.6267586  57.9003029  44.7560120  37.5785866  58.0005875
  44.2870216  36.4798965  57.0711174  52.6829758  25.4438267  82.0686646
  53.0703163  25.2968884  82.9315720  53.2834969  25.0133858  81.4601212
  18.9460011  10.0577707  19.5636387  19.3050747  10.6387272  20.2343006
  18.6159458   9.3035078  20.0518837  82.0718765  37.1049919   5.0809798
  82.3146286  37.3000565   5.9861073  81.2001572  37.4870377   4.9791427
  60.3494492  59.3102722  51.5151291  59.9485054  59.3614922  52.3828011
  60.6969948  58.4198570  51.4640694  80.8435287  23.3544331  50.3371429
  80.2696304  23.8457203  50.9249458  80.5057678  22.4592533  50.3655396
   2.0388622  10.6906958  38.6912689   2.8283844  10.3092680  38.3073463
   1.7129900  11.2916298  38.0212555  42.9565773  28.7780685  12.0899897
  43.2935829  29.4523392  12.6799202  42.8424187  28.0079231  12.6468325
  11.2815561  50.5211182  80.8440475  10.3316822  50.6380615  80.8612061
  11.4659538  50.1872635  79.9661102   6.5001864   5.0808482  12.1667938
   7.2124062   5.6115618  11.8099766   6.3604779   5.4285474  13.0475998
  60.5947189  47.9293518  76.1059341  61.0483398  48.0516510  76.9398956
  60.7712440  47.0190239  75.8685074  59.5419655  56.6684418  30.8365765
  59.7433586  57.6021500  30.8987465  59.0134773  56.5897751  30.0423813
   7.0619187  14.6491041  48.6150169   7.7261896  14.9081554  47.9763718
   6.2467723  14.6194801  48.1141281  75.4280472  58.6934586  14.2409573
  74.8964233  59.4818535  14.1312513  75.3133087  58.4532356  15.1603928
  40.5116806  41.3529930  57.6330261  39.7187195  40.8172150  57.6526527
  40.6731682  41.5754738  58.5498962  33.7504349  34.9592323  85.5578308
  33.9734077  35.5280380  86.2947006  33.1267242  34.3303986  85.9208450
  33.4945946  33.4947929  56.9505005  34.3869667  33.6900444  56.6645241
  32.9709167  34.2223167  56.6147995   4.3329663  15.0364323  19.3783607
   4.0039611  14.3629150  18.7830772   3.5450935  15.4348097  19.7482014
  63.6505470  15.4364786  43.3950195  63.5331802  15.8277321  44.2606850
  62.8127251  15.5758533  42.9535942  84.2321472  23.4449234  54.4253311
  83.8172989  24.1191654  53.8872528  84.9570084  23.8961658  54.8579826
  77.1758881  15.6841927  70.5863724  77.8262787  15.2876844  71.1660309
  77.2247009  16.6209717  70.7768860  73.0720215  32.3544922  48.1651077
  73.0635605  31.5741081  47.6108856  73.9815140  32.6522751  48.1455879
  13.8724699  10.3568363  81.0130539  14.7992315  10.4233007  80.7829971
  13.7150440  11.1033802  81.5910873  81.1383438  20.0775146  53.7416306
  82.0834351  20.1618443  53.6154404  80.8770599  19.3827648  53.1372414
  80.8550797  17.4366150  52.4999084  80.7012863  16.9737492  51.6763000
  81.7775421  17.2742634  52.6972580  51.5537453  35.8231049  64.7842789
  51.8070335  36.1070137  65.6626129  51.5831947  34.8671761  64.8237534
  65.3283615   2.1326067  75.1002197  66.2279510   2.4216928  75.2531891
  65.3191681   1.2183058  75.3834229  72.6511612  62.6804352  68.0237122
  71.9508057  62.0820961  68.2839661  72.2142868  63.5240479  67.9066849
  76.5118179  64.6147003   5.9294767  76.2262268  64.0465698   6.6449447
  75.7642136  64.6420517   5.3323393  42.3737297  42.2829742  74.9487000
  42.3847809  41.3464622  74.7510757  43.2504387  42.5875473  74.7144928
  51.8624077  58.0268440  45.2176895  51.0778122  58.4577866  44.8786812
  51.8420029  57.1521988  44.8293419  68.5520325  70.3876572  46.7744102
  67.9496307  71.0178604  46.3792038  68.0302811  69.5923462  46.8815956
  81.1865005  51.7571869  30.9597607  80.5019379  51.3843689  31.5152893
  80.8056488  52.5676613  30.6216660  85.2538071  66.0315018  15.9607334
  85.7367706  66.2411346  15.1613369  85.4509354  66.7545242  16.5562267
  35.7847595  28.8815765  64.5762329  36.3311958  29.3522129  65.2056274
  36.2519035  28.0608215  64.4201279  30.3073559  66.4798584  54.7418480
  30.1344833  65.6173859  54.3643799  29.8930416  66.4512787  55.6042633
  74.7620087   1.8550386  14.0655489  75.1712189   2.4759810  14.6682186
  74.6963577   2.3320310  13.2382641  64.8385620  65.1756439  13.8422546
  65.7320862  65.3338852  14.1468897  64.8923874  65.2561646  12.8899679
   3.4049246   6.1473341  57.4135818   3.0669105   6.2070661  56.5200424
   3.1214004   6.9603367  57.8317604  12.4009676  54.0793762  60.4357262
  11.4763002  53.8932610  60.2726822  12.7453051  53.2698784  60.8130608
  10.0174093  41.1275749   3.8973866   9.9375467  41.9238739   4.4225192
  10.9265785  41.1282997   3.5979819  76.6471100  67.4289246  63.7207222
  77.1500015  68.0285187  63.1695213  76.4680328  67.9288635  64.5171051
  38.7720375  65.3231659  78.0260086  38.6445503  65.9859467  77.3472595
  38.8737373  64.5027313  77.5435333  71.6346283  48.1635437  36.1334457
  70.9328842  47.5694809  35.8672295  71.3433304  48.5169029  36.9739876
  26.4633083  12.4366713   8.5766096  27.0192127  12.8293228   9.2496815
  26.4744358  13.0688810   7.8579865  34.3648491   0.5122313  71.8011093
  35.3190002   0.5765272  71.8421783  34.1191559   1.0660236  71.0600433
  12.4743986  54.4127922  50.3968544  12.3575010  55.2720490  50.8021240
  13.1308374  54.5567665  49.7152481  10.6540937  61.8777695  45.7627373
  10.8268032  61.8219681  46.7025719  11.0278721  62.7189102  45.5000572
  52.9974289  70.1350403   8.8632221  52.1849861  70.4279327   9.2759991
  53.6472092  70.7879562   9.1234484  69.1283264  33.1528969  75.9533081
  69.5116882  32.5004005  75.3672104  69.4602432  32.9203453  76.8204727
  29.6828690  69.0037994  16.2679768  29.0092983  68.5403290  16.7657032
  29.2308998  69.7655106  15.9050007  64.3836975  28.6299839   3.1073196
  63.5717125  28.5797596   3.6116955  64.1775589  29.2162685   2.3793027
  18.5715923  30.8813114  65.9093246  19.0134239  31.3230438  66.6345062
  17.7478447  30.5701370  66.2846146  34.0540886  44.4677582  26.3094406
  33.1297379  44.7087440  26.2483482  34.4168167  44.6903763  25.4520607
  67.8356400  18.9836369  81.3512650  67.9872208  18.8356075  82.2847214
  68.6181488  19.4466190  81.0520096  20.1836491  12.2921877  48.0465240
  19.9119091  11.3766499  47.9818726  20.0024853  12.6575212  47.1805305
  72.8684387  17.9674625  44.3062401  72.0407410  18.2530003  43.9194412
  73.5384827  18.4472675  43.8193512  65.2863998  27.2445145  10.0744343
  65.2842331  28.2014828  10.0953665  65.2655258  26.9847507  10.9954767
  85.8119431  36.2122726  30.6074142  86.1790237  37.0821190  30.4497833
  85.3567352  35.9934578  29.7943096  78.2897720  10.3880224  78.2743454
  79.2375336  10.5221167  78.2749252  77.9331970  11.1969385  78.6414185
  41.9450073  24.0873280  11.0537996  42.7856140  23.9435368  11.4884624
  42.1666336  24.5698090  10.2573538  35.8036995  13.6317348  81.8429947
  36.5626183  14.0118942  81.4005508  35.2705345  14.3858385  82.0945740
  70.8448868  54.3948555  60.1007919  71.4681778  53.7364349  59.7938194
  71.0644226  55.1827240  59.6035004  11.9813423  54.4100304  27.6808414
  12.2122231  55.3318024  27.7959900  11.0245209  54.3979683  27.7048912
  41.7420959  32.8586731  27.8889942  41.9800453  33.7348328  27.5857468
  42.0293350  32.2757530  27.1861935  44.1903381  71.0458832  42.5933533
  44.2012177  71.8934860  42.1487389  43.7455902  71.2166061  43.4235840
  81.4734726  46.9446373  78.1306686  81.2231750  46.4026451  78.8788834
  81.7223206  47.7847443  78.5160599   6.9961114  20.4741535  82.6590576
   7.9461575  20.5312214  82.5571365   6.8392315  19.5731697  82.9416275
  24.7897491  65.7732391  23.5209179  24.4193134  66.6436005  23.6674595
  25.0748482  65.4851685  24.3880768  77.6006775  29.2377853  56.1685715
  77.4233170  30.0820179  55.7537880  78.3239517  28.8690395  55.6614876
  49.4542007  38.2118340  67.7027664  50.0618973  38.7797279  68.1765060
  49.5272293  38.4912682  66.7901764  55.1041946  47.7226639  33.5541496
  55.6235962  47.6477814  34.3546829  54.7793732  48.6230240  33.5627365
  60.8468704  24.3140965  44.5904083  61.0149956  25.0822201  44.0445595
  61.5503807  24.3228569  45.2394295   7.9673419  14.5974808  51.1911697
   7.7198324  15.5194216  51.2618561   7.6525378  14.3305082  50.3275414
   6.9024148  56.1062126  80.8827515   7.6254864  55.6377563  80.4656830
   6.7895308  55.6696548  81.7270889  62.8499680  51.7009430  87.3088989
  62.8350639  52.3807602  86.6352081  63.6118393  51.9143066  87.8476562
  32.4727287  57.5565300  67.4279709  32.1417236  58.2352066  66.8396988
  32.3138237  56.7363091  66.9608307  56.0989304  21.7818069  55.7549858
  56.8259506  21.3305969  56.1840363  56.3652344  21.8469391  54.8378868
  69.4343109  55.4852600  40.9113388  69.6112671  54.9718132  41.6995544
  70.2997742  55.6701279  40.5466042  21.8112068  64.5697556  19.8677444
  22.6720123  64.2141037  19.6469288  21.8316994  64.6733017  20.8191071
  19.5315838   7.5889854   8.3409739  19.0099583   6.7882648   8.2863398
  18.8905811   8.2971306   8.2787046  25.6922913  52.2596512  24.1296425
  25.9177685  52.8526115  24.8464317  25.7856903  52.7922668  23.3398132
   8.6487617  47.1172333  10.2112942   8.0243073  47.8302193  10.3452358
   9.0131025  46.9514427  11.0807772  31.4706345  36.7111664  42.2016106
  32.0351143  36.1089020  41.7169800  32.0758972  37.2447090  42.7166100
  72.8360138  35.0747681  14.3343287  72.5494766  34.7240410  15.1776075
  72.5336456  35.9829521  14.3374405  11.0727835  53.7236595  80.7151184
  11.8626156  53.2221375  80.5129471  10.9818230  53.6544380  81.6654663
  34.1113167  50.9401245  85.0081940  33.5225716  51.6604691  85.2333832
  34.9479027  51.1812668  85.4059448   1.5339215   3.8612325  40.2267685
   2.1412039   4.2979851  39.6295357   0.7462779   3.7150693  39.7028542
  38.9421577  61.6673737  51.7764359  39.1452332  61.1188354  51.0187454
  38.0217819  61.4841232  51.9650040  26.9828815  19.5925674  82.9586868
  26.6656933  18.9405212  82.3338242  26.4876900  20.3847713  82.7502899
   2.0764072  11.3969212   2.4872506   1.2017494  11.7378387   2.6742828
   1.9238653  10.5062027   2.1716838  24.5236950  59.2819672  64.8006439
  23.7073898  59.0685654  65.2526855  25.1990356  58.8148041  65.2924881
  29.5163631  48.1253433  43.4972878  28.8796940  48.2598915  42.7953033
  28.9942303  48.1359901  44.2994690  48.9193726  44.2090645  58.0260696
  48.2685814  44.7701225  57.6042671  48.6032066  44.1087532  58.9239616
  27.8841515  47.1880302  15.9299593  28.1887913  46.3423653  16.2590141
  26.9363117  47.1691208  16.0621567  10.5887957  -0.1128952  65.7382202
   9.8910894  -0.1423494  65.0835648  11.3222103   0.3061098  65.2879181
  49.1043892  25.1245041  77.7401581  49.2659378  25.8594837  77.1485977
  49.7418938  25.2396164  78.4448318  50.7763824  25.2698498  80.1438599
  50.4119339  24.3888798  80.2293015  51.4401131  25.3222084  80.8315735
  55.7541389  18.1770954  88.2974777  56.6179733  18.1144600  88.7050323
  55.4562607  17.2701645  88.2269363  58.5087891  39.3617134  12.1926661
  57.5847206  39.3963585  11.9454308  58.5672989  38.6222687  12.7976675
  65.3323593  33.9836426  68.5802689  65.1212692  34.7498970  68.0468521
  64.8528595  34.1210709  69.3972321  75.7469788  62.1172218  21.7589760
  75.5174942  62.9605713  22.1492748  76.5323563  62.2980843  21.2425499
  31.1205063  50.9595528  45.8198586  30.5781155  51.7448463  45.8930702
  31.7756939  51.0557022  46.5110283  86.0539246  31.5016785  86.7251587
  86.6775436  31.9837780  86.1820984  85.7155075  30.8156910  86.1497269
  41.7334175  23.3554916  83.6923904  42.2291145  22.9511719  84.4044647
  42.3972702  23.7817917  83.1503601  65.8276443  30.9398727  50.9186287
  65.1158447  31.4605560  51.2907410  66.0913315  30.3533478  51.6276360
  75.4538116  59.8500824  23.0352287  75.3424301  60.6463394  22.5158062
  76.3898697  59.8223648  23.2333908  84.1480560  11.5488586  18.9057293
  84.9397812  11.4820242  19.4395237  84.0968857  12.4746685  18.6680527
  27.4434834  53.1532784   8.3037033  27.8683472  53.9096756   7.8992462
  27.0396252  52.6859970   7.5724163   0.4408599  16.2217979  22.3045578
   1.3833132  16.3100948  22.1623707   0.3130307  15.2919178  22.4922142
  11.4580278  46.7568169  18.5584526  11.5447483  47.3792152  17.8364220
  12.1975451  46.9527893  19.1337280  53.9153366   1.2791753  28.1086102
  53.6075096   2.1632757  27.9090118  54.2146759   0.9341743  27.2674179
  73.0123444  43.1189575  56.3246155  73.1247940  42.4692688  55.6307182
  72.4561310  42.6847649  56.9714050  56.6353836  48.3102837  64.9950027
  56.2110901  47.4792175  64.7816010  57.4664612  48.0584564  65.3976517
  76.7644196  19.2729168  29.1317825  77.1027603  20.1652775  29.0579605
  77.5346451  18.7403927  29.3302898  61.5428429  26.7204762  24.4246521
  61.2253494  27.6231136  24.3987064  60.9921150  26.2915993  25.0796299
  61.8348732  36.4673004  59.8004036  61.8211708  36.6656723  58.8640862
  62.3160248  37.1959381  60.1925926  59.8902855  17.3459129   7.1028109
  60.4894485  16.6095066   6.9805737  59.9984970  17.8763180   6.3133855
  29.7306271  24.6753559   7.9864674  30.3607407  24.0561695   7.6179643
  30.0171127  24.7985744   8.8914394  23.8495045   0.2200507  58.6079102
  24.4950256  -0.3861231  58.9713478  24.0636864   0.2677242  57.6761971
  32.7969704  39.6078873  39.5001297  33.5426636  39.2317429  39.9677773
  32.2024727  38.8700638  39.3644066  23.5382042  12.9297504  69.0813141
  24.2211876  12.2608242  69.0333176  23.9896431  13.7103672  69.4023666
  37.1536789  25.6487083  61.5245438  37.8057480  26.3236027  61.3359833
  36.8426819  25.8557091  62.4058266  51.2268906  55.7484627  88.2933731
  52.0458260  56.2431145  88.2634354  51.3322372  55.0701904  87.6262360
  74.7304306  19.6810303  59.4953003  73.9888992  19.7760792  58.8975258
  74.3989639  19.9887123  60.3389206   5.2636070  14.9229250  68.9189453
   5.6984711  14.0702381  68.9259720   4.7631826  14.9298563  68.1030045
  16.9387360  32.2779236  64.0261688  17.4140987  31.6514111  64.5718231
  16.1399136  31.8160553  63.7716179  14.9889221  65.1820679  21.4522381
  15.2834558  65.7273102  20.7227230  15.7724333  65.0537186  21.9869041
  63.7541924  43.2962646  73.9543686  63.8575706  44.2436752  74.0435791
  62.8239059  43.1735878  73.7653122  20.1048203  15.5876722  80.5691071
  19.5505486  16.0575142  79.9459991  20.5969124  14.9671907  80.0314484
  30.4895191  21.5973072  83.0381012  30.7246609  22.4443893  83.4167709
  31.3228569  21.2232113  82.7520294  70.6244049  65.3339615  35.1414909
  70.0081711  64.6865692  35.4840851  71.4782104  65.0466003  35.4650230
  28.8230362  64.5712509  37.5986366  28.9588718  65.5149231  37.6837997
  29.4004345  64.1857224  38.2575874  45.5795898   2.9104030  38.8465652
  44.8680916   3.5082588  38.6172905  45.5775528   2.2564507  38.1475830
  50.2892609  29.8169651  83.5176926  49.6476021  29.1069298  83.5366364
  51.0792351  29.4361839  83.9013367  59.0341415  12.5895529  38.7351074
  59.7987900  12.1911325  38.3194084  59.0541801  12.2643547  39.6351509
  85.0788040  50.6912651  78.8694763  85.1297302  51.4950333  79.3867722
  85.4169693  50.9385185  78.0088120   8.7299099   6.7139063  84.9055481
   7.8662133   6.3640275  84.6868134   9.3007126   5.9458585  84.9283295
  76.6501923  23.6734753  13.3707981  76.0146713  23.6946297  12.6553297
  76.1234436  23.7837563  14.1623831  65.4462204   6.4292655  70.9522476
  65.4769974   7.2313766  71.4736862  64.9938889   6.6836710  70.1479416
  48.9202194  44.3077545  43.4181023  48.6944542  44.1835365  42.4962387
  48.9008408  43.4261131  43.7903404  78.6877670  60.7999344  33.0598373
  78.3092194  61.0530319  33.9017830  79.6281891  60.9421425  33.1676140
  24.2367401  61.9754601  87.6526184  24.2573700  61.0207787  87.7188873
  24.1640606  62.1488838  86.7140732  47.2500725  60.0664253  79.8085938
  47.4760704  59.1815186  79.5220718  47.9821968  60.6079636  79.5136948
  77.9807587  42.2835655  14.6277113  78.4030457  42.9164238  15.2085676
  78.6426544  42.0884972  13.9643373  27.5753555  55.0942802  72.8057785
  26.8600903  55.1445847  72.1716614  27.8581963  56.0015411  72.9202652
  20.8300858  57.1677971  61.0874405  20.9266071  56.2996864  61.4789734
  20.3092422  57.6601372  61.7219124  84.0804062  51.5894814  30.6033306
  83.1859055  51.8957062  30.7527237  84.2526703  51.7925529  29.6839199
  13.5231371  20.4530258  62.7469139  13.0754919  21.2569122  63.0107536
  14.3843384  20.7453651  62.4484177  44.7356911   3.4935770  26.6921558
  44.6093102   4.4189801  26.4826603  43.8487244   3.1447649  26.7807713
  73.2320023  28.1739159  12.7781506  73.1128006  28.1167526  13.7261782
  72.7599030  28.9671135  12.5247898  76.1119614  57.5940742  17.1079731
  75.6816635  57.0129929  17.7352066  76.6599350  58.1645889  17.6469231
  77.6933289  56.3100586  15.4259129  76.9370956  56.7890930  15.7648439
  78.4264908  56.6078415  15.9644594  81.6179657  14.5756550  32.9091797
  82.1298065  14.1106977  32.2473183  82.0586548  14.3776007  33.7355003
  41.2826462  18.9182053  57.4242859  41.7407990  18.1792583  57.0239258
  41.2438202  19.5790005  56.7328568  48.3801155  27.9722157  34.8029060
  47.4328384  27.8683052  34.7128906  48.5562172  28.8550167  34.4775085
  48.9156151  42.2087669  26.4046707  49.8461876  42.1102104  26.2032871
  48.5657768  41.3188057  26.3620796  54.4275932  44.6944771  56.9914055
  53.8809166  45.4793358  56.9543076  54.2888451  44.2658081  56.1468811
  61.5198631  51.3382339  14.2787733  61.0918465  50.6616821  14.8034735
  61.5221176  50.9855499  13.3889189  50.4667625  57.2660980  13.7114677
  49.5270691  57.1879349  13.8760920  50.5912323  56.8783493  12.8452187
  15.6374025   3.8187401  75.2936783  16.1739025   4.6060843  75.2015457
  14.7901316   4.1408825  75.6012344  18.5825024  41.9187851  40.3337212
  19.1576481  41.1536713  40.3402901  18.1775646  41.9214745  41.2010460
  73.7849350  69.0027771   0.5690795  73.4036026  69.8564301   0.3639124
  74.7295074  69.1379318   0.4932175  66.1716766  60.8531189   1.1012875
  65.9069290  60.2544289   1.7996479  66.9219437  60.4242172   0.6897373
  27.9406929   2.1800013  73.8890839  28.0662632   1.3918488  73.3606186
  27.6740646   2.8502803  73.2599030  56.3856621  69.2360458  43.8289680
  55.9410095  68.4260941  43.5789833  55.8177948  69.9325714  43.4994011
  76.5344391  46.6368523  68.8885803  77.2124405  46.9711113  69.4757843
  76.4359360  47.3185196  68.2238541  83.2123947  34.9493637  15.5551281
  83.0644302  35.8222809  15.9189291  84.0588379  35.0144806  15.1129551
  76.6047134  68.7283020  81.3508224  76.6158600  67.8491058  81.7291412
  76.1906052  69.2721405  82.0208817  81.5413284  22.3757057  28.8574123
  81.7527390  23.3091202  28.8739319  80.7618866  22.3164043  28.3049774
  12.3790894  11.4765205  11.2267427  13.0711508  12.1309500  11.1318512
  12.3908195  11.2485838  12.1563339   7.6991763  70.1658859  46.3485718
   8.2150898  70.8965454  46.6894646   7.2091513  70.5397873  45.6162453
   3.2448010  46.4960938  46.3800850   3.9927664  45.9172020  46.2328873
   2.4905446  45.9079590  46.4179001  56.5307770  35.8359146  21.7732410
  56.8594704  35.0752869  22.2524452  57.2457428  36.0745850  21.1832485
  74.6674500  39.4961891  82.5066605  74.7048264  40.2872734  81.9690475
  75.5221405  39.0829201  82.3844070  62.5178986  63.9719353  16.6841869
  63.4119644  64.3078995  16.6209145  62.6249619  63.0439377  16.8929634
   2.8914423  48.4050102  69.2711029   3.6231856  48.3927841  69.8880615
   3.2382691  48.8484116  68.4969330  67.4780579  32.0131531   5.4806843
  67.9544525  32.2583733   6.2738729  67.3284073  32.8417206   5.0253692
  76.9849091  50.0754890  13.2603188  76.3411636  50.7835159  13.2376328
  77.6836853  50.3682785  12.6753178  55.3289833  69.0910416   4.6187673
  55.1980972  69.0124893   3.6738172  54.4438286  69.1375351   4.9801211
   4.9162588   3.7473218  10.1437893   5.0683918   2.8027430  10.1144962
   5.4790425   4.0586901  10.8527012  77.8813477  38.3910103  41.8556938
  77.3754807  37.6896477  41.4453011  78.5875702  37.9385948  42.3170013
  63.6761665  26.7671585  39.6766434  63.2352028  26.0270405  40.0937881
  63.0770760  27.0428391  38.9828720   8.2482576  15.0560741  11.8297815
   7.4553723  15.3067989  11.3557549   8.9645948  15.4082289  11.3015013
  65.5761719  16.7782116  75.4593735  65.1922989  16.7857990  76.3361969
  66.1593933  16.0192146  75.4598160  27.6097717  57.9842415   2.9935884
  27.1914024  58.4822426   3.6958661  27.1628170  58.2713013   2.1973097
   3.1074748  67.1011810  81.6934204   3.2688346  67.8097305  82.3164368
   2.7614191  66.3864670  82.2279053  39.2344704  16.3021088   3.9220414
  39.4983940  17.1743221   3.6290894  38.3049469  16.2461147   3.7004938
  68.5511475  63.8345795  47.5582619  67.6485596  64.1521759  47.5316505
  68.4784393  62.8929939  47.4021797  74.5985947  59.7696228  20.2250423
  74.9879608  59.6524353  21.0915852  74.1373901  58.9479523  20.0565929
  85.1750793   8.0438337  18.8865070  84.5930939   7.4620280  18.3976078
  84.7333374   8.8928633  18.8709221  39.6806488  45.6722412  41.8075523
  38.7975311  45.8727684  41.4975128  40.0729713  46.5275879  41.9827538
  73.5380173   6.5603786  30.9025307  72.8450165   6.0330033  30.5052261
  73.6749191   7.2796717  30.2860012   2.8691103  46.4508476  15.8680372
   3.8138437  46.3509865  15.9852495   2.6112103  47.0883293  16.5338726
  47.9536934   2.8145022  58.4612389  47.6077614   1.9418529  58.6484413
  48.8969421   2.6827655  58.3655167  63.5224533  46.2266121  51.4065704
  63.4090919  47.1770744  51.4046860  63.6725655  46.0051231  52.3256111
  -0.1132575  51.1233673  40.7676773   0.7303585  50.6715736  40.7883530
   0.1107520  52.0423965  40.6212845  21.8581963  55.4529190  77.0359497
  22.7664146  55.6322708  77.2792740  21.9083080  54.6755524  76.4796906
  51.2536507  31.2719212  54.4539795  50.9611702  30.3804150  54.6434669
  50.7904434  31.5103683  53.6509743  82.9641037  36.7391968  18.0837326
  82.2750626  36.7980576  18.7455444  83.6573486  36.2305298  18.5043240
  73.7675171   6.8224683  10.1845121  73.7099304   7.5448351   9.5591307
  73.6862869   6.0340238   9.6478662  39.6709442   5.0839386  70.2536392
  40.0221901   4.2155938  70.4507065  40.3230095   5.6911125  70.6034698
   3.0548968  69.4453125  59.1560440   3.3335967  69.1804733  60.0326424
   2.1017165  69.5085831  59.2166748   1.3104221  19.9708405  36.8294449
   1.2598629  20.3879013  35.9693642   2.1753423  20.2111645  37.1616936
  86.4318085  66.8584976  30.3463593  86.6655350  66.0234222  29.9410782
  86.2300873  66.6355362  31.2551117   4.7474513   1.7641506  53.3294334
   5.2340288   1.3906745  52.5945930   4.1961465   1.0464262  53.6411514
   8.7486048  59.9442902  32.6941643   9.1308928  59.8686409  31.8198833
   9.3248892  60.5535049  33.1556664  51.4564934  62.5140724  19.2781029
  52.1198006  62.8961563  19.8527889  51.8738441  61.7316933  18.9176350
  34.6276321  15.2349491   8.7067890  34.9361725  14.3618202   8.4645548
  34.9218254  15.3508339   9.6102552   4.4663496  46.6207619  28.3485374
   4.1039481  45.7746010  28.6110401   4.1109676  46.7722168  27.4727554
  14.6625986  61.9639587  31.6547508  14.1143074  62.5245132  31.1057644
  14.0814714  61.6760330  32.3587570   3.4594460  57.1871643  43.4769707
   2.6295547  57.4294014  43.8878632   3.9679761  56.7867508  44.1821632
  49.6520805   8.5917616  87.7128143  50.5620613   8.6691675  87.4261627
  49.1865997   9.2651958  87.2167892  24.8149204   7.0542617  84.6077271
  24.6115723   6.1931992  84.9730377  25.1649342   6.8682141  83.7364578
  58.9968758   4.3684649  40.9605446  58.1569138   4.5951118  41.3597031
  59.5067520   5.1776166  40.9996872  51.1173897  61.3883324   8.6584568
  51.7344360  61.1386261   7.9706140  51.1551285  62.3445816   8.6784658
   2.5159190  11.9558992  67.7992859   1.9515698  12.5357771  67.2879257
   2.7207758  11.2349119  67.2039337  78.6460495   3.2391045   3.0050564
  78.7242737   2.8689983   3.8843369  78.7718201   2.4928117   2.4190016
  50.0844269  35.1151505  70.5850296  50.9133186  34.6435204  70.6671143
  50.0894814  35.4543571  69.6899643  82.8557434  28.2763500  48.8265610
  83.8018341  28.3767681  48.9317627  82.5261459  28.1644478  49.7182274
  29.9498577  29.8172493   2.1857693  30.7807426  30.0865631   2.5773473
  29.3422012  29.7677727   2.9236968  74.8917160  11.4671583  79.1094055
  73.9572830  11.6165152  79.2535172  75.2110596  12.2892075  78.7372742
  33.8226509  60.9744225  65.7560349  33.7361565  61.1722374  66.6885681
  34.0927505  61.8027153  65.3595428  28.3787460  49.4298630  14.4660959
  28.2199879  48.6556435  15.0061045  28.0417118  49.1925392  13.6022005
  51.6888542  37.7855911  86.7502060  51.1336823  37.2273636  86.2057877
  52.5466080  37.3611450  86.7318268  86.4509735  29.2959499  40.2356758
  86.3593826  29.9687729  39.5610275  86.6271973  28.4909267  39.7487335
  49.0980530  64.2746429  74.7681122  49.7812538  64.4791260  75.4065857
  49.4977951  63.6256065  74.1891556  80.8417892  13.0089922  69.2164383
  81.2250595  13.7593279  68.7621994  81.0721512  13.1423941  70.1358795
  51.2537766  54.4075699  24.9805508  51.3832779  54.3372345  24.0347633
  50.9412193  55.3024635  25.1136055  36.2558174  46.0341187   2.0048156
  36.5748367  46.7830658   2.5083399  35.3095589  46.1677322   1.9502883
  57.2353745   7.1519003  52.5984917  57.5147400   6.6805820  51.8136063
  57.5588112   6.6196241  53.3253326  58.2587357  10.9028091  28.3099480
  58.3118896  10.0501060  28.7415771  57.3301430  11.0093107  28.1035480
  29.9724503  64.0795898  34.9172440  29.4346752  64.2360077  35.6934929
  29.7275467  64.7789536  34.3113136  57.6072121  27.6019726  44.3018188
  57.2453613  26.8199444  43.8850098  57.1776123  28.3317413  43.8555984
  56.7314034  27.9445171  81.6182480  56.7332420  26.9893551  81.5558395
  57.5457077  28.1562881  82.0746384  11.8871965  15.4943104  79.0591965
  11.7672148  15.5233431  78.1099854  11.8856936  16.4126968  79.3290024
  59.2480202   5.0694818  45.8774948  58.4053688   5.5223761  45.9100266
  59.4740982   4.9179921  46.7951927  42.9877892  45.4407768  46.3428268
  42.1960297  44.9152374  46.4575310  43.1718216  45.7900772  47.2148094
  54.4798660  36.4399033  19.8221207  55.1708794  35.8067589  20.0167027
  53.7138443  36.1104012  20.2920895  28.2674313  20.5406742  76.4957657
  28.9829102  21.0371609  76.0984955  28.6273899  20.2227020  77.3237457
  66.4139175  37.9232292  64.3588562  65.4896545  38.1168594  64.5152969
  66.6365814  38.4319611  63.5792160  51.3653831  28.4434433  10.4325714
  51.6908989  28.8217354   9.6157684  51.5757904  27.5120487  10.3657379
  22.0987778  58.9432983  85.9892197  21.5618076  59.5220795  86.5304260
  21.4697151  58.4832458  85.4334641  30.1769905  24.7898808  76.1098099
  30.5373669  25.4593353  75.5282669  29.2879963  24.6447010  75.7860107
  36.6479645  58.2060585  82.2411346  36.6153603  58.4182739  83.1739426
  37.0001793  58.9945602  81.8282852  63.1361275  48.7476044  18.1001167
  63.4759178  49.5559044  17.7161560  62.2413406  48.9644852  18.3619328
  29.1226082  56.5244331  58.3860970  29.1146107  57.1144371  59.1397972
  28.2006721  56.4285431  58.1472015  74.2685013  48.6616783  14.6033258
  73.8934784  49.2102928  13.9144058  73.9617844  47.7781601  14.3994884
  82.7616501  40.1439819   0.5406632  81.8467560  40.2250252   0.8101708
  82.9806747  41.0013428   0.1757034  45.6207581  15.4982090  82.1014099
  44.9423523  14.9118137  82.4362793  46.3653450  15.3623867  82.6873932
  59.5475388  37.6923218  73.6905365  58.7141495  37.5275726  74.1316147
  59.6720276  36.9323082  73.1221085  57.9405212   3.2784500   0.7838113
  57.5483742   3.1515441   1.6477252  58.6152496   3.9431148   0.9223468
  13.2821856  61.2097321  46.8691940  13.2612944  60.2625885  47.0060005
  13.4842157  61.3130112  45.9392738  42.5023880   3.8898969  46.7678261
  41.8302536   4.3797145  46.2939606  43.0606575   3.5241206  46.0816956
  85.9217606  53.6752777  25.6896038  85.2335205  54.1986427  26.1002731
  85.5719681  53.4546051  24.8263626  78.4998169   3.7363708  35.6209602
  78.1829758   4.1276999  34.8068924  79.3020706   4.2182488  35.8219872
  85.9619827  56.5507011  54.8284264  85.3119049  56.5917473  54.1270409
  86.4200516  57.3897781  54.7798347  72.1284866  62.8806229  87.3303299
  71.2540436  62.6445694  87.0207138  72.2383957  62.3824158  88.1402283
  39.4886055  61.5769463  78.6381912  38.9372253  61.2008591  77.9520645
  40.2749672  61.0311737  78.6395569  69.6051865  34.3646851  25.3769474
  70.2044373  34.2572632  24.6383057  69.5328293  35.3123283  25.4908066
  29.2319603   0.7288252  69.6462936  28.8408070   0.1760929  68.9697495
  29.9855843   1.1346902  69.2178574  57.1582947  59.1989517  34.3898354
  56.6557045  60.0031662  34.5197258  57.1088409  59.0350761  33.4480667
  82.1773300  10.7307291  72.5369720  83.0252991  10.4698353  72.8963013
  82.0273972  10.1238108  71.8121262  25.0720196  59.9173279  14.3785782
  25.5437317  59.2437248  13.8887014  25.2940445  59.7473946  15.2940340
  63.2591286  33.7788887  42.3087082  63.7349663  33.1066856  42.7965164
  63.9380836  34.2501488  41.8258324  77.6416550  43.5422630  82.2263412
  76.8504562  44.0761871  82.1544724  77.9722443  43.4821205  81.3300552
   2.9808578  35.6127014  68.9238815   3.2760632  36.3124123  68.3412247
   2.6003821  34.9580002  68.3383560  11.6096630  36.1442795  72.0684204
  11.2422342  37.0272293  72.1088257  10.8476830  35.5659676  72.1026993
   2.1333318   2.7111344  17.5021324   1.7563757   3.5389411  17.8002472
   2.9315059   2.9645946  17.0385513  86.5248413  69.7589188  27.2750111
  85.8147049  69.1188354  27.3222313  87.0262680  69.6200638  28.0784531
  21.6999836  59.0841522  32.6555290  22.0697594  59.5870819  33.3811722
  22.4463234  58.6117744  32.2866592  56.1474495  27.5121479  15.3854141
  56.9236832  26.9911461  15.1798677  55.7614288  27.7133789  14.5329323
  56.4840012  43.1262703  19.4461021  55.6735725  43.5070343  19.1077995
  56.4779320  43.3401718  20.3790760  65.9502563  38.0064201  30.3244724
  66.5465927  37.7910461  31.0415649  65.0957489  38.1039047  30.7446537
  22.9244232  41.2052879  47.5367508  22.7476521  41.9498329  46.9617424
  22.6699429  41.5096931  48.4078484  25.5541248  58.8266144  62.1638908
  26.4370804  58.9944763  62.4932022  24.9963417  58.8712502  62.9404984
  11.8323879  56.0362244  40.2249413  11.3119297  55.3708115  39.7748489
  11.7370234  56.8206978  39.6848145  36.2408562  17.0731754  13.8709240
  35.9412956  17.8844452  14.2812147  37.1151314  17.2803421  13.5408392
  65.2394714  21.4613914  84.8175125  65.6111526  21.2991219  85.6845474
  64.8106995  20.6383896  84.5828705  37.7945900  50.2068558  19.1842899
  37.0964050  50.8560638  19.2697124  38.5875015  50.7247391  19.0452957
  77.2595673  50.4608383  66.1296387  76.8851471  51.2965813  65.8511047
  77.6025162  50.0720062  65.3250046  64.5028305  16.2329044   4.5110722
  63.9412041  15.4597597   4.4557724  64.8384094  16.2215481   5.4074459
  70.2433853  32.7924271  37.7695198  69.2882767  32.7493439  37.8158073
  70.4875031  32.0744934  37.1853905  22.0271416  44.9875374   9.8399391
  21.5731773  45.2434235  10.6428518  22.7857609  45.5697327   9.7977800
  52.8654633  55.7342186   5.5350180  52.7779961  55.2260780   4.7285604
  53.1521034  55.0972862   6.1895328  13.8678150  27.9431400  66.9057312
  14.5174541  27.2404423  66.8853531  13.0663614  27.5380726  66.5743332
  48.5241432  10.6667280  32.2926598  48.5790672   9.7856998  32.6627998
  48.3627701  10.5249996  31.3598671  84.6083374  27.4544067  73.4627533
  85.2511063  27.2022438  72.7998123  84.9429016  27.0772514  74.2764206
  28.8956604  52.9411774  19.6702862  28.7723503  52.7177048  18.7477436
  29.6857719  52.4663773  19.9282017  57.3753052  67.6526031   7.6569524
  57.5668297  66.8721695   8.1770210  57.9918289  68.3110657   7.9772000
  40.6999092  67.7175446  29.0688953  40.2080193  67.0010681  28.6677208
  41.4518471  67.2911224  29.4799709  77.2585678  12.5177326  14.8780880
  77.2209549  12.2648926  15.8005247  78.1866455  12.6840076  14.7129726
  16.6884480  64.4842300  36.9344139  17.5711155  64.8540878  36.9526825
  16.3693295  64.6695709  36.0512123  83.4570770  11.1426535  76.8370285
  84.1312027  11.5175734  77.4037933  82.8737564  10.6756487  77.4352646
  62.0347595  17.7118053  34.7644348  62.9082031  18.0126209  34.5137672
  61.6897583  18.4125252  35.3177872  29.6219826  20.3909035   0.8724257
  29.5714531  20.2683849  -0.0755553  29.6972256  21.3381367   0.9878343
  11.1356678  67.0078354  27.0319920  10.7449522  66.1741714  27.2938690
  11.4942732  66.8409653  26.1603355  42.0723877  53.7402191  24.0908833
  42.0784035  54.6940651  24.1707191  42.9902840  53.5054893  23.9545078
  29.2411098  48.6907539  20.9016514  29.1196861  48.5754433  19.9592133
  28.5165558  49.2562027  21.1690807  17.6872883  31.4416122   6.9667778
  16.9612732  31.3075123   7.5759997  17.7677536  32.3927727   6.8957181
  62.1290359  29.7938747  65.7785721  62.7188034  30.1123867  65.0952301
  62.4433212  28.9110794  65.9738388  42.8579788   9.2600679  85.2588654
  43.2721786   9.2555666  86.1217957  43.5897522   9.2755156  84.6420212
  52.6746292  35.5329742  21.3227711  52.1104660  36.3013229  21.2356262
  52.9435120  35.5362091  22.2414227  38.3986320  37.3624496  77.3339539
  38.0319061  38.0935287  76.8366928  37.7019043  36.7061653  77.3439560
  20.3504105  46.2004585  86.0193481  19.7943764  46.4792633  86.7468948
  21.2269669  46.1367073  86.3985748  61.2557335  69.7044601  81.0476837
  60.6931076  69.0665588  80.6086349  62.0311356  69.7640610  80.4896240
  51.2002678  54.5879326  52.0022202  51.3059273  54.4879341  51.0561409
  50.6432114  53.8534355  52.2599716  81.8551865  43.8812981  69.6052170
  81.8742065  44.5893288  68.9613495  82.6046295  43.3308525  69.3781281
  62.4469337  33.1131058  62.6388206  63.0236244  33.4060669  63.3443909
  61.5743904  33.4004745  62.9077339  34.0849876  70.8256912  65.1675949
  34.5603638  71.2452698  64.4505234  33.3254471  70.4220428  64.7475967
  75.9324341  35.9998055  41.0433693  76.4237213  35.1947670  40.8797035
  75.0440521  35.7024956  41.2398567  75.3734360  55.0315781  33.6137733
  75.4364700  55.1588326  34.5603828  75.1508789  54.1063232  33.5107880
  46.0339737  39.3555832  31.3260021  45.2976341  39.9106560  31.5827637
  45.9714699  39.3007393  30.3724194  50.1705132  39.8057327  87.1168060
  50.6315575  40.2197266  87.8463821  50.7164078  39.0548019  86.8837128
  32.3079491  33.9938126  67.3925018  32.4905205  34.9322166  67.3445435
  32.8042107  33.6158562  66.6664810   4.5201917  47.9576759  65.6020889
   4.7136078  48.1605377  66.5173340   4.3529811  48.8092270  65.1981888
  82.5470505  30.4418430  63.6606445  82.2920685  29.6027908  63.2769661
  81.7332001  30.8006516  64.0143814  43.1719208  20.8342571  51.9585609
  42.7602272  21.5732937  52.4064064  43.1637077  20.1279869  52.6045837
  42.2122612  55.1802444   8.9156857  42.7604599  55.9428787   9.1003580
  41.6070175  55.4790382   8.2369862   3.3076582  27.8620586  88.2949600
   3.0151312  28.3525524  87.5267944   2.6227317  28.0080814  88.9474792
  67.0008163  35.9182281  22.8928585  67.2372665  36.1273956  23.7965031
  67.7225418  35.3751373  22.5760136   0.6266375  66.4175034  21.6044712
   0.8044385  65.5642395  21.2088013   1.4739642  66.8627777  21.6044159
  59.9638481  34.1837387  11.5465841  60.7224236  34.1296539  10.9653196
  59.5402718  33.3289871  11.4677420   3.2046175  39.0585518  72.5482712
   2.7774527  38.2143593  72.6935349   4.1356378  38.8471642  72.4793549
  63.0474358  47.7941818  27.4598293  63.0181274  48.5214272  28.0815105
  62.4634056  48.0619469  26.7502937  47.9193954  29.7684708  45.2143631
  48.5167999  29.0220470  45.2611885  47.4060402  29.6149902  44.4211807
  31.6862335  30.4452152  53.9388580  32.2558708  30.3149700  53.1807137
  32.2711639  30.7648220  54.6258392  70.4794006  35.8755989  44.0221100
  70.4704666  36.6714897  43.4904022  70.0650711  36.1330948  44.8456764
  29.1004047  34.7356644  71.1556396  28.4038696  34.2211342  70.7478104
  29.9069195  34.2789192  70.9165802  54.0382576  55.3519135  67.5436707
  54.1502266  56.3015137  67.5878677  54.3841705  55.1096764  66.6846619
  75.0454559  46.2287292  53.7796173  74.0987320  46.3306847  53.8773155
  75.4100876  47.0501175  54.1091614  44.0438271  24.6986465  85.3393021
  44.1244469  24.6251049  84.3883438  44.0165939  25.6409664  85.5052032
  84.6391449  24.9903812  37.5450249  84.1825256  24.1669121  37.3728981
  85.4253922  24.7322559  38.0260811  57.6087952  23.7131901  62.3207664
  58.0009155  24.2612209  63.0005722  57.9832306  22.8446140  62.4677544
  28.1239796  14.1163807   9.7259550  29.0802574  14.1528950   9.7467203
  27.8449421  14.7974081  10.3379774  14.4669075  63.1267242  48.3178825
  13.9715395  62.3471565  48.0666580  14.1122684  63.8239441  47.7662048
  59.5374298  62.3454742  45.3609695  59.9358292  62.2820892  44.4929314
  59.0621567  63.1762161  45.3462868  34.9740791   3.8681333  85.7937851
  34.8980522   3.0746388  85.2638626  34.1866570   3.8690391  86.3380356
  79.1926041  71.2498245  69.8840027  79.3245544  70.3018494  69.8711624
  78.7450790  71.4181442  70.7132339  80.8065720  48.8578644  11.5750723
  80.2512054  48.6040916  12.3122292  81.6795044  48.5466652  11.8145924
  62.3407860  39.1855431  83.5569458  62.1850891  39.5201378  84.4401398
  62.0405083  38.2772141  83.5885391  31.1865196  49.4675331  28.0376244
  31.7765102  49.2176781  27.3264885  31.6856995  50.1027718  28.5509663
  28.4642754  57.4948959   9.9163780  28.4323196  56.5906601  10.2287378
  28.0102177  57.4734917   9.0739965   0.5364501  44.5405502  11.4431677
   1.0410830  45.2077026  11.9084482   0.7792907  43.7174835  11.8672228
  33.2931519  43.8296051  42.4577103  32.7593384  43.3349342  41.8359566
  32.8827705  44.6937180  42.4912872  73.7070618  13.5036411  60.6005020
  73.7397308  12.9145470  59.8467598  74.1145706  14.3123131  60.2903061
  83.8075638  62.2397423  71.7913284  83.3681870  62.6048279  71.0232849
  83.9832687  61.3286476  71.5562286  65.5879135  36.4050636   6.4017591
  64.6740875  36.3747292   6.6850286  65.7805862  37.3385506   6.3139400
  84.5686111  29.2657928  15.3942614  84.3419266  30.1943321  15.4458427
  84.6210938  28.9810181  16.3066101  27.4571323  61.2738495  88.6694794
  26.8972759  60.8896179  89.3441391  28.2989292  60.8308067  88.7758942
  79.7825241  67.9048386  49.2184219  79.7997818  68.7134171  48.7064247
  79.3785477  68.1559067  50.0490837  85.1231689  19.8111420  48.4052544
  84.7597733  20.6963921  48.3827057  86.0282822  19.9310322  48.6926956
  57.7727547  51.4744644  88.0503769  57.6211586  50.9518471  88.8378601
  58.6898575  51.3131332  87.8287277  56.9824677  14.8084431  26.0655346
  56.3512917  15.0878820  25.4023895  57.2928925  13.9571409  25.7570667
  56.5240059  26.2253056   7.2110209  57.3931274  26.3936005   7.5750728
  56.0159264  25.8894939   7.9494786  69.5452652  27.0138569  67.9188309
  69.0496292  26.4484005  67.3265152  69.2986679  26.7176552  68.7950058
  84.1671524  43.8579330  26.6104908  83.7918625  44.7377663  26.5746746
  83.6983109  43.3698235  25.9336090  55.4011154  68.3053818  32.4349670
  56.2409897  67.8468246  32.4110870  55.4099998  68.8621597  31.6564121
  12.9818134   6.8560996  67.1192322  12.3896065   6.8304706  66.3676605
  13.7998610   6.4816027  66.7924652  73.9353333  53.5817642  77.3146744
  73.7845154  54.4040565  77.7808456  74.8575745  53.3814430  77.4746094
  83.2986069  51.9254456  60.8719673  82.5707397  52.1712379  61.4429474
  83.0796051  52.3128242  60.0244980  66.5248566  60.6365356  42.5195274
  67.0360413  59.9820480  42.0435295  67.1634903  61.3047829  42.7681732
  72.4488831  70.0759506  52.1369514  72.9743881  70.3128586  52.9011192
  72.8170547  69.2430878  51.8419609  69.0954742   1.9518263  13.2007647
  69.9156342   2.2038403  13.6251030  69.0961533   0.9949984  13.2274418
  57.9523163   5.7457209  55.6753311  58.5922279   5.0847487  55.4110222
  57.1570473   5.2473736  55.8635674  52.4340706  64.4626541  77.3802490
  51.5123291  64.7199554  77.4008636  52.8542786  65.0248337  78.0311050
  26.6783848  68.7539291  79.7042389  26.1543427  68.5940018  80.4891129
  27.4489155  68.1965485  79.8130341   8.7087145   1.1210014  45.8810730
   9.5728350   0.7373723  46.0305939   8.8888359   1.9559376  45.4490204
  33.0088387  64.9874115   5.3791761  32.9441071  65.9325027   5.2419324
  32.5577316  64.8345032   6.2094483  17.3645000  65.2041702  51.9827423
  18.0202923  65.7763672  51.5842972  17.8029346  64.3571014  52.0632858
  69.1130371  56.5183754  53.9392433  68.3086853  56.7295113  54.4132385
  69.7759323  56.4227028  54.6230927  82.4164581  35.9740105  78.1993713
  81.7862778  36.5788460  77.8078690  81.9698029  35.1274147  78.1960144
  22.6321468   0.1306999  13.7082014  22.8993835   1.0417743  13.5867119
  21.7565861   0.0846685  13.3241367  69.0103073  50.6506577  77.4514542
  68.5463333  50.4597855  76.6362686  68.8893509  49.8654709  77.9853821
  15.7327452  62.9420929  26.4602261  16.0563030  63.0347404  27.3563061
  16.2599430  62.2356682  26.0870533  72.4983673   0.6395307  19.2085705
  72.8349075   0.1070331  19.9292793  72.1056976   1.4005986  19.6361427
  45.0938606  14.0810413  15.3859282  44.9643669  14.6020823  16.1783791
  45.5309410  14.6761246  14.7767754  33.6418953  59.0680466  44.4977036
  33.8724709  59.9951172  44.4376526  34.4836235  58.6138458  44.5355034
  49.0284424  37.2884560  17.5747280  49.0966072  36.5196648  18.1408958
  48.1110306  37.3045425  17.3020878  56.1419830  33.1699753  43.0092659
  55.2599716  33.4519310  42.7668114  56.4865189  33.8894997  43.5382385
  28.5029945  20.2178650  10.2220726  27.6092339  20.4798508  10.4429512
  28.4077511  19.6813240   9.4351263  60.9119263   3.8665705  23.9752026
  60.8007660   4.6349602  24.5350723  60.9305267   3.1277089  24.5834541
  53.4014359  66.8816299  33.5277176  53.0439110  67.5721588  34.0859070
  54.0563049  67.3247528  32.9882584   4.7751460   9.0497656  77.1703262
   4.3812275   8.9063168  76.3098145   5.6890273   9.2638950  76.9827042
  37.6942940  11.8825855   9.6349001  37.1330109  11.9318800  10.4086971
  38.5854378  11.9052086   9.9835825  33.7604828   1.8379829  66.1549149
  33.2633858   2.3425436  65.5110626  33.7496376   0.9423058  65.8174591
  24.9227638  46.6847916  67.4016037  25.1244621  47.5530968  67.0528946
  24.0089092  46.7448349  67.6799850  67.7671967  43.8330307  47.8490372
  66.9214172  43.6866264  48.2726555  68.2337189  44.4214401  48.4426384
  60.9500504  54.6084251  20.3910255  61.5432205  54.0991592  19.8387318
  60.9450188  54.1446609  21.2283592  23.4693451  59.5919113  44.8415146
  24.2508698  59.1374016  45.1559525  23.8088360  60.3348618  44.3425140
   5.9773479  39.4081421  82.2497635   6.4799442  40.0490646  81.7469330
   5.7546978  39.8625069  83.0623016  54.2974548   2.8378410  14.6480923
  53.6414185   2.7795448  15.3426790  54.7744865   2.0095458  14.6990643
  62.9618492  46.4493332   9.5783758  62.3676491  45.8230896   9.1648836
  63.4904251  45.9197311  10.1753368  12.5555487   1.1813452  12.6037083
  12.8336906   0.3125505  12.3137693  13.3206663   1.5401576  13.0532427
   8.0164509  53.4409637  45.2521858   7.6810303  53.4357300  46.1486778
   8.6290016  54.1761627  45.2299309   6.2308683  60.3530006  36.1764832
   6.2350121  59.4120789  36.0007439   6.2546530  60.7586327  35.3098068
  85.3264313   3.7574396  18.9030304  84.9933167   3.6725149  19.7963676
  85.4498901   2.8556731  18.6067047   7.4994764  58.7606201  43.6491394
   7.2034497  59.6683578  43.7170143   6.8832283  58.3525696  43.0408936
  13.9223175  15.2461805  61.5066757  13.2583523  14.8688335  62.0837288
  13.7238731  16.1824894  61.4933167  79.7267990  22.4316235  71.2772064
  78.8835449  22.6768932  70.8964157  79.8222427  23.0053482  72.0374451
  72.4704742  45.5300064  75.3349762  73.2198868  45.0360985  75.0022964
  72.7796936  46.4348984  75.3772430  49.1093292  29.6323071  86.3182297
  49.8965416  29.8992043  85.8435822  49.2489815  28.7053013  86.5115967
  37.7024536  10.7316160  66.5182419  37.1608925  10.7787161  65.7303772
  37.3531952  11.4151020  67.0901642   2.7076612  65.5700760  76.0589371
   2.5103216  66.4827042  75.8482208   2.9819467  65.1859131  75.2262268
  54.2718735   1.3476013  82.6099396  55.1948929   1.1046585  82.6824036
  53.8385925   0.8524871  83.3051834  72.7767639  62.2328758  55.1735115
  73.6805420  62.2006073  55.4871674  72.8101196  62.8026657  54.4050980
  45.1379318  11.8827410  36.9182663  45.3428497  10.9804125  37.1633034
  45.0749321  12.3488960  37.7519112  25.4284286  49.7536125  29.1101017
  24.5566254  49.3649635  29.0383854  26.0287151  49.0133324  29.0213680
   2.4896100   6.6649566   6.8441968   2.7220855   5.9964957   7.4886708
   1.9305199   7.2760615   7.3239899  29.5537186  11.4142780   5.3332219
  28.6049252  11.4672422   5.2182493  29.8596516  12.3137903   5.2169738
  56.8746529  37.2275658  63.1653557  56.2008018  37.8750458  62.9581833
  57.6777954  37.7396431  63.2600746   5.8097672  35.9777184  54.6256943
   5.0846272  36.4638023  55.0182838   5.9585209  35.2451286  55.2235374
  55.9093361  50.0609169  16.2000637  54.9543381  50.0199738  16.2503929
  56.1382675  50.8740120  16.6502876  86.2712479   5.9941916   3.2655582
  85.8260574   5.5685430   3.9982672  85.7175751   5.8069949   2.5075099
  29.9269791  57.6534386   5.3290749  30.6922588  57.7124100   5.9010015
  29.3684921  58.3819351   5.6004019  16.3707466  16.1977215  19.5970154
  15.5100975  16.2401295  20.0138073  16.7773228  15.4137716  19.9662704
  22.3269634  49.1660347  16.3628750  22.0756302  48.2530518  16.5026169
  22.7170792  49.4369545  17.1939240  81.9663467  20.9590855   0.9422876
  82.0972061  20.7665176   0.0138339  82.1038742  21.9037361   1.0126712
   7.0769396  13.4219398  86.2762222   6.1692610  13.1799784  86.4600830
   7.0645266  14.3777332  86.2258453  66.6568069  69.0259094  49.7728653
  66.4556427  69.9103394  50.0787277  67.1722412  68.6391449  50.4806633
  78.0118866   2.6026115  10.3419104  78.7326126   2.3625445  10.9242754
  78.4411545   2.9037654   9.5411205  35.5082855  53.5780067  58.4809189
  35.4854317  52.9413223  59.1953049  36.3791656  53.4760475  58.0969887
  33.9151154  39.1098022  32.3671112  34.8667488  39.1685982  32.2824364
  33.5918312  39.1465721  31.4669075  68.7883911   4.0404463   6.3265471
  69.6973419   3.7731454   6.4629226  68.8371506   4.7218413   5.6560574
  58.6871796   3.2579269  22.1638603  59.3768311   3.2239547  22.8267727
  58.7118111   2.3960254  21.7482281  77.9947586  28.4549217  43.2862320
  78.7750702  28.5241547  43.8362770  78.1025467  27.6254063  42.8209190
  59.2813034  61.0724030  22.6446953  60.2194786  61.2563782  22.6917019
  59.1499901  60.7208595  21.7641220  42.3656044  65.5054092  10.9202271
  43.2678909  65.6132431  11.2210312  42.4491692  65.1989975  10.0172529
  59.2268944  67.8219681   0.7125753  58.8505135  68.6918945   0.5791636
  59.0942154  67.6438141   1.6436431  32.4228897  54.9056206  44.4554100
  31.6690044  54.5827179  43.9618301  33.1509743  54.3544998  44.1683807
  51.8573952  19.3973045  66.6321182  52.2712593  18.8763008  67.3202362
  51.6169930  18.7591782  65.9603806  45.4502563   0.4711781  76.5203094
  45.4738045  -0.4853337  76.5479202  45.9622078   0.7454301  77.2811737
  76.6195450  66.9416962   7.5358448  76.6059113  66.3950806   6.7501845
  75.9910812  66.5271530   8.1269674  40.2195511  51.4338608  23.9767761
  40.7790451  52.2097664  24.0109921  39.6467667  51.5177994  24.7390766
  65.3831863  14.2352524  63.2370758  65.5353928  13.3685303  63.6137123
  66.1445312  14.7498703  63.5049286  81.0563431   8.6316643  36.6733742
  81.3951492   9.0275126  35.8704147  80.5558548   9.3315678  37.0927544
  12.5527086  68.4533997  64.3995438  12.8502617  69.3631516  64.4064178
  13.3249245  67.9469299  64.6513367  41.0154152  36.4670525  63.1997833
  40.9103241  36.6011696  62.2578735  41.0884056  37.3505363  63.5608368
  63.3313217  49.2689781  75.2837601  62.4945107  48.8176422  75.3945541
  63.1605835  50.1648560  75.5744247  78.3939896  42.3784790   4.1620045
  77.5970383  42.0533943   3.7431726  78.1001282  43.1170731   4.6952596
   4.4762311  63.2508812   1.5798639   5.3590221  62.9122505   1.7289894
   4.1876950  62.8211327   0.7746965   3.4221439  16.1392288  15.2898750
   3.2310658  15.7984209  16.1637001   4.1635399  15.6158543  14.9855042
  43.0908890  66.6712189  83.6952057  43.0134659  65.7174759  83.7198868
  43.3967934  66.9094162  84.5703735  53.3879280  25.6557713  27.9086075
  53.2566490  26.5786133  28.1262264  52.6208038  25.2127151  28.2711735
   9.0054626  66.1530762  56.5388756   9.3789978  65.4214096  57.0301743
   9.7346802  66.4885406  56.0174026  79.9036484  14.1563301  86.9469833
  79.1124573  13.8100166  86.5342865  79.6090698  14.4743118  87.8004074
  11.6324291  71.2221909  52.7164116  10.7058411  70.9821091  52.7112427
  12.0721941  70.4712753  53.1151237  14.6873112  70.3405151  47.5097542
  13.8164806  70.5840149  47.8237495  15.1934958  70.1818314  48.3065147
   2.2478657  24.3971634  71.5823746   1.7925553  25.0808620  72.0737839
   2.5719979  24.8409805  70.7986679  58.1538696  25.7667122  14.3153353
  57.6513252  25.0883427  14.7664394  58.4757957  25.3386421  13.5220194
   1.7365190  39.3155823   5.5688334   1.4391508  39.4986649   6.4600596
   0.9872122  38.8938637   5.1482100  34.0169258  20.7941380  76.3537445
  34.3925514  21.3105316  75.6406631  33.4335556  21.4019623  76.8081207
  52.8949738  58.7720184  39.2998276  52.7894287  57.8444099  39.0885582
  53.0957108  58.7831879  40.2356758  53.9447899  12.5456123  25.6389618
  53.9079361  13.3307352  25.0926514  53.3752937  12.7440920  26.3822727
  37.6233215  16.6133595   7.5675087  37.0185852  15.8807106   7.6847820
  37.3162308  17.0528278   6.7745428  13.0660686  47.7459259  24.9706745
  13.4147377  47.1487961  24.3087845  13.1039457  47.2472801  25.7868557
  71.2254410  28.1682587  31.5635338  71.6335144  28.9265060  31.1454792
  70.4583588  28.5254402  32.0110130  26.7944813  28.5908775  88.9046097
  25.9168530  28.9700165  88.8571396  27.3660202  29.2626133  88.5326614
  62.8987808  25.0447712  36.3305664  62.2417755  25.4225254  35.7458649
  62.3898163  24.6384125  37.0320358  35.4650803  59.3794403  26.9726753
  35.6550751  59.2437248  27.9009609  35.3632011  60.3271675  26.8851147
   4.3537135  65.1734543  13.5471802   3.8634264  65.4383011  12.7689095
   4.3874774  65.9619522  14.0888147  63.4149055  17.6275082  50.5070305
  64.1260681  16.9942169  50.6041145  62.7243614  17.3026466  51.0848274
  17.9338932  46.2135048  18.8407555  17.5824680  45.5064964  19.3819370
  18.4292603  45.7663002  18.1545696  40.8495255  57.8309593  39.0567780
  41.7096176  57.9807129  38.6642876  40.7342491  56.8812294  39.0259209
  51.4655304  65.4624405  27.4233189  51.0241585  65.8574753  28.1752281
  50.7698822  65.3311234  26.7790623  71.4569168  45.0222435   9.3819065
  70.7482910  45.2181778   8.7689705  71.8928375  44.2568245   9.0072908
  77.8530273  68.2652740  74.3484192  78.2772903  68.5043259  75.1724854
  78.1110916  67.3553314  74.2013092  69.0720444  23.9253540  78.4655151
  69.1606979  23.7072620  77.5377121  68.1606827  23.7198009  78.6738510
  49.9351883   7.9894185  25.8476124  49.7044983   7.8914080  26.7714138
  49.9665680   7.0934505  25.5122185  73.8598022  45.8170586  79.9369888
  73.7706223  46.7320633  79.6704483  73.7624207  45.3203545  79.1245651
  65.8680191  50.9589424  76.8538895  66.3420410  50.4107971  76.2285233
  64.9706116  50.9802780  76.5215683  70.4202347  35.2550392  60.2323341
  71.2922363  34.8613358  60.2033195  70.0956116  35.1845055  59.3346291
  51.4541435  34.8795204  30.5989780  51.3375053  34.2492409  29.8880806
  52.0014458  35.5680122  30.2212620  86.1564789  10.5584612  35.3686371
  86.5858459  11.3608122  35.6654663  86.4243622   9.8943806  36.0038261
  30.4395180  43.8722076  63.6211739  30.2590256  44.7145271  63.2038536
  31.3074322  43.6270981  63.3004265  57.4014969  13.9157238  17.2024212
  56.4928703  13.8920498  17.5025425  57.5979500  13.0103083  16.9618759
  21.8880367   2.0006816  70.4992981  22.2652340   2.6681349  69.9261856
  21.8710842   2.4097190  71.3645325  81.5733109  55.5262985  13.9842958
  82.2205887  55.8017540  14.6334372  81.9301834  55.8258705  13.1481543
  64.9262695  19.2783909  49.0407028  64.2682953  19.6759892  48.4704208
  64.4267731  18.6958237  49.6128502  28.0510731  40.2750092  50.0903473
  28.4744797  41.0931740  49.8304214  28.4535732  40.0532532  50.9300194
  45.4473267  27.2082367  43.8541756  45.8176117  27.8802662  43.2819023
  44.5164032  27.1909275  43.6321144  49.3293839  12.5050879  83.6814270
  49.4739037  11.6177664  84.0100708  49.3790283  12.4189386  82.7294083
  58.9108887  24.0744267  82.3680191  59.2368393  23.2379475  82.7001266
  59.6969566  24.5441380  82.0892639   3.3811986  66.5366974   6.0820260
   2.9858396  65.7086487   5.8095331   3.5813062  66.9879074   5.2619038
  13.2979479  65.9162979  15.2826719  12.4580555  65.5070114  15.0745859
  13.6297464  65.4163818  16.0284786  85.7494202  12.8049564  67.5481949
  85.3358002  12.0126953  67.2054596  85.5052338  12.8214912  68.4735794
  46.4965515   7.8531470  41.7009010  45.8950119   8.5840244  41.5587730
  47.2511635   8.2458725  42.1397209  50.2727203   5.1204200  51.1592140
  50.1780701   4.4507151  51.8365402  49.7557564   5.8596478  51.4794044
  52.5476379  23.1979942  60.1066437  53.2568893  22.8958340  60.6739998
  51.8165512  22.6127834  60.3048210  47.3364754  46.9735718   5.8249412
  47.0723610  46.4195175   5.0904346  48.2928810  46.9346161   5.8225517
   6.1660218  15.7261896  10.1297636   5.3515873  15.5585451   9.6556091
   6.5390310  16.4960728   9.7003736  27.9240227  34.3402138  78.9186020
  27.0071583  34.1685181  78.7038727  28.3715172  33.5139465  78.7362213
  54.1595497  14.4501925  13.1248169  54.5646210  13.7688150  13.6613531
  53.3752785  14.7036743  13.6115370  43.4420204  57.6648750   7.9774098
  43.3500023  58.5752106   8.2585754  42.5950623  57.4477386   7.5878644
  72.9391937  40.9239464  34.1643600  73.2511673  40.9741821  33.2608223
  73.5475998  41.4732132  34.6587105  10.4113626  20.3378086  88.3277206
  10.5206461  21.0765400  87.7289200  10.5084400  19.5636368  87.7732239
  63.7475548  16.8933430  77.6567841  63.5537186  16.5330009  78.5221252
  63.6281395  17.8376217  77.7583160  77.2237091  31.2969551  74.3637772
  77.1755981  30.7901154  73.5532074  78.0580444  31.7625523  74.3059616
  26.2697392  35.4141731  12.8010750  25.4056225  35.1339989  13.1027966
  26.0875645  36.0291748  12.0905685  50.1886139  45.7455559  85.9234009
  50.9914322  45.4406090  85.5006485  50.4875755  46.1684113  86.7284164
  69.9027557  64.2460632  70.8492279  69.0883713  64.7466888  70.8980026
  69.6291199  63.3691978  70.5800400  52.5139503  10.6796665  60.9852524
  51.9276733  11.2983036  61.4209137  52.2753105   9.8269348  61.3487549
  70.6911469   6.7908759  86.6917419  71.0727463   6.2586570  85.9936371
  70.9996262   7.6789455  86.5117264  29.8993626  11.5059309  71.4133224
  29.7714405  10.5729704  71.5849457  30.7586651  11.5568371  70.9947052
  11.2633333  57.3851166  87.9791260  10.6030369  57.8136902  88.5237045
  11.5159988  58.0514679  87.3400879  70.5352173  48.2862434  78.6767426
  71.4319839  48.5959549  78.5497894  70.5165176  47.9704514  79.5801544
  27.3222561  57.9529228  35.2535667  27.6853352  58.5616913  34.6102867
  27.1570988  58.4921227  36.0270119  47.8417549  39.9203339  17.5848846
  47.0521317  40.3392334  17.2424698  47.7763901  39.0111160  17.2928543
  60.9779358  51.3587875  40.3508415  60.7439499  51.0982475  41.2416840
  61.6004791  52.0765610  40.4669266  85.0947037  32.6215057  26.7074986
  84.5130615  31.8613739  26.7187881  84.9532013  33.0439682  27.5546894
  67.9183197  32.6034584   2.5445182  66.9622574  32.6458473   2.5641284
  68.1230469  31.7003937   2.7869871  55.0789452  55.3709679  87.3058472
  54.7963982  54.4579277  87.3582916  56.0068283  55.3217201  87.0759811
   7.4114304  70.7178497  68.0199051   8.3508129  70.6334991  67.8565750
   7.2520161  71.6616821  68.0192566  69.3555832   7.2845607  74.7159195
  69.0052948   6.3944306  74.6812439  68.6007843   7.8305774  74.9358673
  39.6771469  47.2726746  83.1415482  39.1349831  46.8171387  82.4975204
  39.5857124  46.7543983  83.9410858  68.0354614  63.2908859  11.3770685
  67.8092041  64.2202454  11.4135399  68.6247559  63.2171288  10.6263905
  34.2536163  27.5996609  82.3457108  34.0185890  28.4158535  81.9043198
  35.2104988  27.6070156  82.3692093  79.1614151  58.6534233  10.3247004
  79.7531128  57.9595413  10.6156559  78.9861069  59.1654015  11.1142435
  16.0332966  13.2534914  53.0943756  16.5715771  12.4885626  53.2977715
  15.4265327  12.9470348  52.4204674  58.0149689  19.7120628  59.1728210
  58.1422920  18.8128738  58.8703613  58.5154991  20.2455482  58.5554924
  50.6196518  57.2671890   5.8271689  51.4664917  56.8333893   5.9316273
  50.6980896  57.7507858   5.0048456  23.7519836  42.1182747  80.2411270
  24.0750675  42.3188782  79.3627167  24.5373325  42.1062241  80.7882233
  44.7599602  41.5864067  21.8248501  44.2413673  40.8222733  22.0766277
  44.1455803  42.1474495  21.3515682  36.2922211  23.2221813   1.1670758
  35.4617538  22.7469769   1.1941994  36.3587685  23.6374149   2.0269511
  21.3478031  53.4955978  75.2042007  20.8783474  53.5060387  74.3700943
  22.2627220  53.3519058  74.9623260  82.7697983  50.6903801  47.8072319
  82.3043289  51.4074097  47.3766022  82.8202362  50.0039062  47.1420708
  19.2437267  21.2726898   1.0795678  19.0318851  20.3545647   0.9110357
  18.8314743  21.4628296   1.9222579  70.3605728  71.3680344  50.7492523
  70.8299103  72.1757965  50.9577560  70.9889755  70.6707306  50.9366035
  16.6733856  14.2004099   9.4190111  16.4983730  15.1405277   9.3768063
  17.2766571  14.1019192  10.1556234   5.2690272  40.5308418  35.5775719
   5.5676246  39.9116821  34.9114494   4.7698116  39.9961700  36.1949387
  59.5947304   9.5538893  36.4964371  58.8666382   8.9421768  36.6056290
  59.8929558   9.7328892  37.3882065  67.1474457   3.7565682  56.0405350
  66.7780533   4.4808183  55.5353241  67.1680069   4.0790238  56.9415550
   1.3700260  18.5154305  61.9307251   1.7473092  19.1838970  62.5026016
   0.7730611  18.0255413  62.4962959  38.8815193  44.5298004  31.0402241
  38.7178879  44.1288452  31.8938580  38.1217575  45.0923882  30.8902626
  71.0957718  43.8429794  67.6010742  71.9984055  43.5826149  67.7846375
  71.0774231  44.7837372  67.7767639  52.2104836  48.2725830  85.7592545
  52.7435188  48.9320831  86.2032852  51.3866234  48.2627907  86.2464828
  83.2946777  39.6796951  12.4895306  83.8252563  40.4555931  12.6703587
  82.8502655  39.4952660  13.3170080   5.9319916  69.9050598  65.4531555
   6.1504784  70.3522568  66.2707748   6.5332184  69.1610184  65.4190445
  44.6153450  27.7085381  82.5087204  45.2896042  28.3868542  82.4701080
  44.3932800  27.5391750  81.5931702  33.0089417  66.5737991  21.8240032
  33.7272911  66.8753967  22.3801022  32.2216492  66.9305954  22.2352257
  32.2488289  29.5899143  43.5480576  32.2550468  28.9896145  42.8025169
  32.9778481  29.2989845  44.0958977  51.5733643   8.2391815  41.3276978
  51.3402786   8.0386305  40.4212303  51.7145538   7.3838544  41.7335472
   1.5697708  20.6513233  13.1617279   0.9175745  20.8309364  13.8389359
   2.3163698  20.2885799  13.6384220  56.2786789  52.4612885  17.7616348
  55.5689011  51.9626656  18.1663857  56.0893707  53.3724327  17.9856987
  79.5236740  -0.2508514  33.1203995  79.9072342   0.6232103  33.1920128
  78.8167648  -0.1506983  32.4828377  65.7532043  58.5141983  72.8183746
  64.9578629  58.9334106  73.1468887  65.7004242  58.6121979  71.8676682
  61.4772301  60.3389549  83.2772369  60.5683327  60.3500290  83.5772629
  61.8370857  59.5265541  83.6332397  73.3081055   8.3214808   7.6852264
  72.4395599   7.9776711   7.4762640  73.2291946   9.2665482   7.5554075
  52.3431740  27.5832558  68.5570526  53.2075386  27.9744854  68.4303970
  52.4812927  26.9067249  69.2199783  33.0553627   7.5403337  73.1975937
  33.6229706   7.3250661  73.9376678  33.6557312   7.8369298  72.5136185
  73.8094482  46.9702721  84.9398270  74.0253677  47.7908821  85.3827820
  72.8616638  46.8846703  85.0428391  70.7750778  14.4800320  43.4595909
  70.3123932  13.6621771  43.6419945  71.6882858  14.2920542  43.6762695
   8.8105726   8.4244108  79.3943787   8.1297798   8.0883360  79.9773102
   8.4204712   9.2010326  78.9932404  23.6505489  33.2629585  72.6846466
  24.4627457  33.7615166  72.7741318  23.1114426  33.7876053  72.0927505
  70.6766739  26.6990604  28.0694313  70.3688736  27.4978390  27.6411266
  70.0790939  26.5773792  28.8072166  64.1330261   8.7374659  12.2573061
  65.0719223   8.8223343  12.4231634  63.9891014   7.7949991  12.1720181
  51.7047501  11.6242943  85.5059204  52.4835129  11.1899433  85.8539124
  51.9523087  11.8853016  84.6188889   1.8156493   5.4234009  86.7713547
   1.2626735   5.5602541  87.5405884   1.3647048   4.7440348  86.2700119
  62.1846771  30.0969124  83.8369598  62.4494591  30.9754353  83.5643387
  62.6804352  29.5095119  83.2665024  78.4874268  62.3816986  70.5778503
  79.3708878  62.3807220  70.9462662  78.1822433  61.4808044  70.6849976
  60.1632576  49.2994957  83.9460297  60.7071609  49.1794243  84.7244797
  59.8660622  48.4173355  83.7230988  84.1579819  12.9044466   6.3691874
  84.9419022  13.2145052   6.8225708  84.4934235  12.3777628   5.6437116
  24.2681847  51.4182243  61.5159302  25.1524887  51.2677879  61.8500099
  23.6992798  50.9431610  62.1216507  60.7368889  20.4034233   7.5411310
  60.3864594  20.0755692   6.7129154  61.5253143  19.8817005   7.6908755
  83.3562469  60.7169800  35.1942825  83.0455627  60.3825722  34.3529282
  84.3060226  60.7776871  35.0919189  74.8818741  34.3437538  16.5706997
  75.5531616  33.9728546  17.1434479  75.3499680  34.9869385  16.0383091
  30.2079372  23.8520489  78.8321075  30.1358910  24.1409588  77.9223938
  29.5895214  23.1248016  78.9021378   0.2804929  61.5035896   8.6886053
   0.3534320  61.4457207   7.7359443   1.1620740  61.3118210   9.0084038
  45.4403381   4.8515010  61.6981087  44.7234612   5.1338887  61.1301460
  45.5450096   5.5669279  62.3253555  85.0098648  30.2745533  52.6284447
  85.3463974  30.3114681  53.5237732  85.1313629  31.1616936  52.2901344
  82.3457718   2.0580392  25.7971230  81.7529526   1.5760399  26.3737297
  82.9203339   1.3867346  25.4290810  60.8285332  52.0107574  60.2246284
  61.1080170  51.0953026  60.2327003  60.8701935  52.2819977  61.1416473
   6.7010274  54.4824600  74.9626160   6.2286944  54.5503273  74.1328430
   6.7177062  55.3770943  75.3025894  57.2552567  33.8368187  23.3722458
  58.1574516  33.5278778  23.4548912  56.7224197  33.0466003  23.4609680
  86.6660614  10.4344501  14.9993448  85.9215317  10.1556835  15.5324440
  86.3169708  10.4878454  14.1096716  37.9011192  27.8099003  19.9795361
  37.3425522  27.2859135  20.5537090  38.7888298  27.6547146  20.3022099
  84.5773239  50.6056480  12.1003695  84.2529144  51.1898384  11.4150133
  85.4547501  50.9329033  12.2985058  74.3453598  61.6804390  35.3918839
  73.5471268  61.4574623  35.8707657  74.8390350  60.8612175  35.3545914
  82.5103989  66.2240829  44.3756523  82.4218597  65.4674988  43.7960205
  83.3966599  66.5474396  44.2137260  62.6089935  23.7203121  31.3120136
  63.2293167  23.7800293  32.0385590  62.4021225  24.6301289  31.0983124
  70.6454773   4.0668283  81.7643051  71.3674927   4.0292101  81.1370010
  70.0830688   4.7703328  81.4402618  54.6560020   7.6928682  13.1233320
  54.3061829   8.4630718  13.5712662  53.8835945   7.2451582  12.7781134
  20.9321365  21.0088978  71.2961960  21.4640923  20.3558788  71.7509766
  21.1171303  21.8291721  71.7535324  15.8564653  24.3874359  58.0748291
  16.5177898  24.8521595  58.5875778  16.3306465  23.6563339  57.6787529
  67.5538330  63.7983856   2.4050276  68.2810822  63.4235268   1.9082134
  66.8961411  64.0114288   1.7429979  35.9301491  41.4946938  45.6388588
  35.3608818  41.0050583  46.2325096  35.3635216  41.7314987  44.9046288
   3.0593724  57.2140350  40.6657104   3.9080479  57.1215057  41.0986290
   2.5366940  57.7379875  41.2727585  85.8160553   2.7441275  27.0249023
  86.0569458   1.9841083  27.5545940  86.0120163   3.4967768  27.5828896
  63.6935997   5.7028503  23.1842918  63.6328430   6.2513742  23.9663792
  63.1443825   6.1460605  22.5376396  76.8841476  36.1749535   9.9080811
  76.6116562  35.3727875   9.4625368  76.8073730  36.8572617   9.2411547
  70.9341660  45.3372154   0.8299044  70.6490326  45.7911491   0.0368876
  71.3414688  44.5316620   0.5114452  30.9567738  31.5638351  71.3432159
  30.1179829  31.1169567  71.4570618  31.3810997  31.4983501  72.1987152
  53.6159019  14.2097597  71.0612717  54.5226479  14.3159494  70.7735748
  53.1212959  14.0813522  70.2518845  42.7339706  58.0180054  29.5465050
  43.5712738  58.1464386  29.9922161  42.2860565  57.3503494  30.0659657
  85.5025787  13.7497778  74.7074356  86.0391846  14.1942720  75.3637238
  85.9879227  12.9505959  74.5025482  47.9312515  32.1483612  36.3378754
  48.5374146  31.9871311  35.6148224  47.1319618  32.4621544  35.9149055
  25.3420944  10.6926270  69.4699936  26.0382042  10.0414534  69.5573730
  25.2935524  11.1083231  70.3308487  68.9558411  30.7951183  71.9321976
  68.0076675  30.8987408  71.8518372  69.0661469  30.0505085  72.5234833
  41.6886597  46.5893059  48.7708549  42.4805832  46.5476646  49.3069115
  41.1618576  45.8456841  49.0636673  16.4564991  19.5969772  81.0877533
  17.0884190  20.3001194  81.2377396  15.9010878  19.6037884  81.8673019
  86.6266708  55.7172012  79.6018448  87.2957153  55.9642830  80.2402496
  86.0408173  56.4732361  79.5640869  59.7463684  46.9729691  81.8898239
  59.9516907  46.8256950  80.9665756  58.7909241  47.0238609  81.9175339
  35.6092796  44.5395088  87.5087585  35.7382584  43.6168289  87.7284470
  35.7608414  44.5843925  86.5647049  13.2323675  51.8765678  16.3511505
  12.4175415  51.5213776  16.7062988  13.0491571  52.8061485  16.2149658
   9.5815916  67.7854614  36.2416039   9.3065310  67.3339310  37.0395317
   8.9877291  68.5329895  36.1725769  62.7076607  52.2049637  31.9177570
  62.0225677  51.7763062  32.4307213  62.2984047  53.0079041  31.5952206
  34.0825768  59.8206329  75.9568481  34.7293205  59.5605507  76.6128235
  33.5578690  60.4930801  76.3912811  73.4840698  11.9963503  67.2738953
  72.9720154  12.8029404  67.2151871  73.1006470  11.4205513  66.6123276
  61.9643898  49.5169868  60.2350883  62.6445160  49.1560211  60.8037415
  61.1539917  49.1120605  60.5441475  81.8882370  59.9771996  68.8762894
  82.1375046  60.3539619  68.0324020  82.0301666  60.6843491  69.5056000
  78.9102020  22.3520012  13.2264109  79.5299835  22.8103962  13.7938347
  78.0513916  22.6738834  13.5004015   7.8157830  11.3700142   5.6343989
   7.3124480  10.9743557   4.9228230   7.4005156  11.0427208   6.4323115
  75.6683884  33.2795029  39.1097870  76.4798279  32.8028679  38.9347992
  75.0142670  32.8489838  38.5593300  57.1021080  24.9711990  36.0155067
  56.4127083  25.0090656  36.6784744  57.0146179  25.7925472  35.5318069
  79.7389526  29.0466213   7.3283763  79.2231827  28.8213959   8.1026421
  80.2915726  28.2797909   7.1773348  64.0457764  41.5373001  88.3365097
  64.9920425  41.6596222  88.4130249  63.8288612  41.8827553  87.4705811
  37.9908295   7.4850907  77.2766800  37.7126465   8.3491096  77.5805206
  37.7497292   6.8919163  77.9881897  12.7016697  36.1214180  24.7778454
  12.7494297  35.6606865  25.6155052  12.2330837  36.9320374  24.9767303
  85.7129669  40.0384254  37.1778870  84.9715958  39.7052536  36.6723175
  85.9257431  40.8764114  36.7671089  51.2616272  47.8176155  61.9142265
  51.9721489  48.0871887  62.4962234  51.2952576  46.8610420  61.9223137
  28.2698593  67.2338791  43.2682457  27.6966553  66.6304474  43.7410469
  27.6727314  67.7826157  42.7597542  37.5975533  58.8042755  39.8697853
  37.8930054  58.4200096  40.6951790  38.3891487  58.8597336  39.3344917
  39.4929123  35.0887299  85.8598785  39.2611694  34.5488701  86.6155701
  38.6525879  35.3872986  85.5121002  29.2182026  31.8369427  78.8745499
  30.0190678  31.3688374  78.6384811  28.7687321  31.2507343  79.4832916
  81.6797256  37.7649384  40.1648445  80.9250946  37.2246017  40.3989601
  81.3721390  38.6650620  40.2716103   1.3865618  64.1862793  15.4517279
   1.0607040  64.7845764  14.7793531   1.4768180  64.7309799  16.2336445
  84.6137924  63.5972061  82.5772858  84.4113998  64.5327530  82.5734711
  85.4392776  63.5326920  83.0575409  80.2064896  45.1612206  13.6003704
  79.9396286  44.9525909  14.4956331  81.0836868  44.7869835  13.5185480
  16.8123264  35.1886520  68.8133926  16.6393642  36.0878296  68.5344772
  16.4355164  34.6462784  68.1205139   4.0533972  60.4473267  61.4638519
   3.7541201  61.3497925  61.3532944   4.1443391  60.3394318  62.4105949
   4.1452065  63.5998192  60.7248688   4.9568501  63.2695045  60.3396988
   4.1115565  64.5192337  60.4607086  29.8326530  46.8949280  65.2185364
  30.3248920  46.3171768  65.8017426  29.0889091  47.1889839  65.7444687
  76.4298325  51.0921593  30.7435493  77.1258850  51.2076950  30.0967140
  76.0840073  51.9736977  30.8833027  79.2243118  61.3984833  54.9520111
  78.3790359  61.7420120  55.2413712  79.3165283  60.5666885  55.4166031
  28.5762043  33.7263947  86.7570496  28.2557945  33.4714394  85.8918533
  28.2497463  34.6177254  86.8802719  60.4733353  22.9057636   6.4396415
  60.6491585  22.1926880   7.0535145  61.0015564  22.6947556   5.6697774
  52.7234573   9.2460384  83.3170395  53.4124565   8.5922956  83.4359207
  53.1309395   9.9294147  82.7848816  46.2633400  46.3284721  21.7761326
  45.9903564  45.9931450  22.6301041  46.3074150  47.2773247  21.8943424
  27.7263527  53.2259216  50.2189255  28.2735062  52.4434052  50.2861671
  28.0194626  53.7856407  50.9379768  27.8771381  66.1868439  26.8505821
  28.7233601  65.7457504  26.7758656  28.0984039  67.1009216  27.0287018
  50.9477196  14.7978086  63.0538521  51.4746323  15.2968578  62.4297180
  50.7436142  15.4233418  63.7490349  23.4397430  52.2669067  41.8928528
  24.3378277  52.0862617  41.6152840  23.3997192  51.9503784  42.7953148
  13.2155457  39.3230438  22.5958366  13.8756084  39.6981468  23.1788006
  12.3802633  39.5310020  23.0145111  81.1357269  19.0201607  45.6960411
  81.9780197  18.8064365  45.2946663  80.9260559  19.8925934  45.3626747
  19.2677212  30.6385288  26.1118660  19.1228371  31.3433285  26.7431335
  19.5676060  29.9000912  26.6419716  79.3768387  35.6349869  70.3875351
  79.9257202  36.0628471  69.7303543  78.7066650  35.1781349  69.8792191
  10.2450418  64.1304245  57.7914352  10.9640570  64.5538177  58.2604561
  10.6635904  63.4254913  57.2973480  59.7866287   0.2928019  82.2860947
  60.0031319   0.9053655  81.5831604  60.1436729  -0.5451922  81.9919586
  57.4710121  58.4987068  51.3904305  58.1223717  59.0160866  50.9168472
  57.1207695  57.8960419  50.7344131  61.8291054  22.4467487   4.0441217
  62.3470764  23.2019863   4.3226042  61.9619408  22.4012184   3.0972776
  73.0377655   0.9698076  15.8276911  73.6085205   1.2270484  15.1036062
  72.8074875   1.7944106  16.2557507  66.0611725  22.6194439  24.5047245
  65.4488373  23.1128922  23.9590263  65.8924255  22.9294090  25.3944874
  30.9351101  69.5816803  76.8399200  29.9941387  69.6140747  77.0124130
  31.1723804  70.4861603  76.6353302  79.6703873  25.4887886   1.8403932
  80.4522629  25.0362453   2.1567762  79.2876205  25.8822880   2.6245377
  29.6637402  34.9548302  17.1999798  29.5733433  34.4549217  18.0112457
  28.8493938  34.7896042  16.7248287  80.3353729  28.5874214  28.9542179
  80.4360504  28.2679691  28.0575333  80.9895096  28.1015167  29.4564476
  65.2909012  58.4498329  70.1289597  65.7004395  59.2028923  69.7030334
  64.6112671  58.1685524  69.5164108  13.3236675  42.7729912  25.6714439
  12.9905567  43.6638832  25.7790623  13.2097178  42.5855980  24.7397099
  72.0059204  47.1307716  53.9471245  71.2124634  47.6595345  53.8630486
  71.8092575  46.5142250  54.6524124  30.6262417  67.7906494  22.6864147
  29.9087048  67.2158737  22.9528847  30.5184555  68.5740891  23.2257004
  52.6835098  33.4053955  19.5420170  53.0905418  32.8479042  20.2051640
  52.3232079  34.1416168  20.0363750  61.9771843  20.3441467  39.0879631
  62.6592941  20.5106564  38.4374008  62.3964119  19.7764130  39.7346153
  48.6171722   7.1993246  13.7107363  48.0914116   7.2975769  14.5045567
  49.2759857   6.5436583  13.9394274  44.1930809   1.0660908   6.3304286
  43.2776375   1.0601889   6.0508528  44.6317673   1.6394696   5.7019205
   4.3787537  39.7311668  88.6321335   3.9057689  39.4542999  87.8473587
   4.5239339  40.6688423  88.5059586  67.6101608   3.5438437  52.3722267
  67.2326584   3.5240448  51.4928360  67.6745758   2.6231496  52.6260071
  36.9106483  36.4052582  62.2573204  37.8049736  36.3376999  61.9228706
  36.8034706  35.6327400  62.8122597  82.2727432  21.8158703  70.5991211
  81.4062347  22.0692978  70.9171906  82.1372986  20.9609032  70.1905594
  54.4160843  55.0006752  70.4608307  54.7883148  55.2641907  69.6192627
  53.6698112  55.5867424  70.5866776  45.6278725  13.4023991  54.2471581
  46.5628967  13.4436607  54.4478035  45.5569344  12.7252455  53.5743561
  84.6604080  55.9099579  87.6775589  83.8488159  55.5964622  87.2784882
  85.3428040  55.6751328  87.0487289  70.8945541  64.5215073  42.1230278
  71.0122147  65.3157883  41.6019630  70.3939209  64.8081284  42.8868675
  11.2962999  53.3883858  38.7419090  11.8525114  53.4152489  37.9633560
  10.5452003  52.8552742  38.4813805  50.9110298  22.0741253  65.9790039
  51.1650085  21.2175598  66.3225479  51.1610184  22.0454979  65.0554657
  70.5260925  58.1919136  65.2979126  69.8202667  58.5746002  65.8190536
  71.2539673  58.8062859  65.3926697  71.1345825  12.3410902  10.8537903
  71.1004639  13.0592127  11.4857454  70.8362427  12.7308397  10.0320110
  61.5470886   6.8787236  35.9313622  61.1530571   6.6186376  35.0986977
  61.1183357   7.7058005  36.1512451  47.4039650  29.2625313  79.1660614
  47.8039970  28.5333195  79.6398315  48.0510788  29.9659081  79.2183762
  41.2301254  21.8322792  67.8593140  41.1026535  22.2330799  68.7191620
  40.8226357  20.9694157  67.9344788  49.9610825   9.0449305  64.5770721
  49.0661278   9.0664501  64.9159317  50.2612228   9.9519711  64.6355972
  40.1849251  46.5133095  38.1576004  40.0358772  45.5863914  37.9709358
  39.5901527  46.7105713  38.8811798  52.3993530  71.5052872  46.4734612
  52.4965477  70.9057846  47.2133179  51.8109245  72.1885757  46.7945518
  48.2024765  51.1845779  38.7069969  47.8744926  50.6395760  37.9917145
  47.5222855  51.8456383  38.8357239  18.0244293  39.5722618  42.2884560
  18.9196625  39.4957314  41.9584045  17.5646477  38.8230133  41.9096909
  44.4737740  29.4132767  72.2584000  43.8799973  30.1627502  72.2142639
  45.0075531  29.5760689  73.0360947  29.3715687  39.2527199  13.5558357
  29.3561420  39.2701874  14.5127525  28.8572731  40.0163841  13.2940197
  53.3792992  46.0580177  80.4929657  52.5227394  45.7307930  80.2182693
  53.6102142  45.5190392  81.2495499  49.7739296  28.0759773  12.8963995
  50.4618607  28.0223141  12.2329960  49.8691177  27.2711868  13.4057922
  20.5530682  48.0423851  83.3853683  20.6735210  47.2547722  82.8549118
  20.6912231  47.7482185  84.2857056  24.7792492  15.9508629  79.7416382
  24.6048088  16.4472294  78.9420013  24.1490765  15.2307291  79.7188034
  52.9694672  17.0175056  22.1559868  53.0625954  17.5816841  22.9236202
  52.0313187  16.8342133  22.1058559  49.3383675  67.1566162  33.1467133
  49.7891655  66.5879440  33.7709160  49.1805649  67.9667664  33.6314735
   7.7776756  20.6500740  53.2457581   7.4922509  20.9446316  54.1106300
   8.3953772  21.3213825  52.9558983  50.4837761  27.7513103  87.9796295
  50.5468063  26.8128281  87.8021240  51.3558884  28.0918503  87.7804260
  58.1636200  70.4315262   4.6930976  57.4160881  70.0409546   4.2404623
  57.9238586  70.4039383   5.6193724  22.9116001  45.2883339  74.1679916
  23.5865746  45.4305687  73.5043564  23.3605099  45.4326973  75.0009766
   5.7682552  67.7575226  36.5794868   5.4548841  67.8756638  37.4761887
   6.5330615  68.3295670  36.5157280   9.3772507  64.0969772  66.7232513
   8.9864788  64.4701004  67.5133820   9.8095350  63.2977676  67.0242920
  65.1562500  62.2068520  51.6365051  65.6411209  62.6775475  52.3144226
  64.2777863  62.0994606  52.0012016  31.8286114  49.4919243  87.0838699
  32.0108604  49.4437141  86.1454163  32.6576805  49.7673912  87.4750214
   4.3758788  32.4584007  36.3995285   4.4595571  31.5905724  36.0044327
   4.8393226  33.0411377  35.7979698  48.9749031  62.3027267  80.9140244
  48.1954651  62.4721413  81.4431763  49.6987724  62.3248558  81.5399246
  13.4515381  67.0341644  84.6061783  13.9511709  67.4014053  85.3353806
  13.8585529  67.4079971  83.8246307  29.4673710  51.5490074  63.0715866
  29.5788746  50.6403427  63.3511009  28.7658215  51.8865318  63.6284828
   7.2848210   0.8585851  64.9006958   7.1013188  -0.0804024  64.8713531
   6.4807711   1.2491766  65.2430038  42.3623276  48.8306389   7.9259620
  42.4828110  47.9232597   8.2059298  43.0028763  48.9521103   7.2251239
  36.2302551  49.0167770  45.3615875  36.6118851  48.9449043  46.2364731
  35.7697906  48.1876297  45.2322807  66.4813004  11.8608122  25.4865055
  65.6980133  11.8672609  26.0366383  67.0739594  11.2473154  25.9207973
  73.5975800   9.2607508  47.0383453  73.8820419   9.9414721  46.4284821
  73.4432220   9.7253647  47.8608627  20.7751102  34.3153458  14.9395094
  20.6738758  34.5849419  14.0266552  19.9893284  34.6453514  15.3752584
  85.5256348  41.0267029  56.7675819  86.2467880  40.5093460  56.4090996
  85.8521729  41.3407516  57.6107788  20.8485489  12.0817537  66.0528641
  21.4611530  11.8620605  66.7547760  20.1694660  11.4094572  66.1084976
  32.7656059  51.2202187   0.1517686  32.8872795  51.3600883   1.0908445
  33.4356461  51.7655563  -0.2604060  52.0678177   9.7089558  33.1281853
  51.2781677   9.8225307  33.6571312  52.7853203   9.9499130  33.7141571
  43.1491089  51.6627350  30.5469437  43.5334053  52.1894760  31.2477245
  42.8811951  50.8506851  30.9770908  77.5036697  34.6310158  87.5038757
  77.6956024  34.2269440  88.3501205  77.4264755  33.8936768  86.8983994
  74.3555145  67.2020035  53.4528236  75.1048279  67.2626038  52.8602982
  74.7406311  67.2227325  54.3288879  67.0761642  52.0793533   3.3947890
  67.8456345  52.0437889   3.9630187  66.4740601  52.6727295   3.8437991
  76.8575516   0.7511631  28.7710571  76.8270798   0.6211876  27.8232136
  77.3741760   1.5485907  28.8869762   1.1993375  62.3897667  56.7642937
   1.4068344  61.4574051  56.7019844   1.4689941  62.6365509  57.6489487
  63.8505554   5.5436854   7.2159142  63.9776421   4.6764545   6.8312168
  62.9510536   5.7777281   6.9871063  65.9556198  26.8004341  47.5480080
  66.6208191  26.2259827  47.1688690  65.6768799  27.3567944  46.8206863
   3.1992149  60.0397644  25.5469112   4.1166196  60.0588417  25.2744465
   3.1016140  60.8052063  26.1133060  80.8133545   4.3447299  28.0810070
  81.1447449   4.9392543  28.7540207  81.3143463   4.5679102  27.2965145
   4.4023604  64.0630112  28.1562366   4.9951487  63.8361626  28.8727379
   4.7801709  64.8553543  27.7745476  82.8236313  40.2018356  18.1366940
  82.8854294  39.4988251  18.7833691  81.9726105  40.0690422  17.7191315
  41.0605621  17.6083965  73.7243729  40.2154541  17.5461636  74.1695175
  41.6601105  17.1076679  74.2775879  70.4576569  34.0059891   9.9405699
  70.1718750  34.8082428  10.3775415  71.3938675  33.9495850  10.1317625
  76.3258362  62.0041046  37.6827850  76.6498032  61.1409035  37.9399986
  75.8165512  62.3030319  38.4361115  53.9658279  64.8972855  24.0162964
  53.2706947  64.3100052  23.7194328  54.2386131  65.3640594  23.2263985
  33.7403412  48.2532196  77.2299500  34.6199379  48.1263123  77.5855255
  33.1547470  47.9874268  77.9389420  17.9422226  60.0397911  60.6432533
  16.9907055  60.1168175  60.5731735  18.2498722  60.0391541  59.7368393
  81.0710907  39.4043694  79.6005630  81.9277420  39.2180328  79.9848404
  81.1452179  40.3008728  79.2734222  64.0410080  54.7392349  83.3761292
  64.6232605  54.2053413  82.8356018  64.5033264  55.5713692  83.4763565
  33.7242966  62.0335045  53.3788872  33.9674072  61.3999023  54.0539284
  33.3331604  61.5045128  52.6836090  32.5815048  67.1291656  77.3354645
  33.4662323  67.4914017  77.2877426  32.0674057  67.6733093  76.7389374
  84.5376740  19.8087769  45.2947273  84.1601639  20.4865971  45.8553276
  85.1945343  19.3816395  45.8445587  74.3704453  37.3164864  56.5826263
  75.2001114  37.5140419  57.0171967  74.6244354  36.8925438  55.7628746
   4.3584132   9.2810621   8.1047487   3.8511071   8.9596510   7.3593850
   4.3064322   8.5771103   8.7512636   1.7671673  65.2236786  55.6379051
   1.1436118  65.3290405  54.9193611   1.4175589  64.4971619  56.1538277
  85.9512482  30.8031025  69.7553177  85.5120544  30.4102325  69.0009995
  86.5185776  30.1088352  70.0905151  23.9519634  66.2068634  61.0662193
  23.5533257  66.2818222  61.9332275  23.7486496  67.0376587  60.6364861
   4.9859767  10.5728083  87.9501953   5.5705328  10.9958506  88.5791321
   4.3562398  11.2535706  87.7130737  38.7743111  15.9066143  77.3319931
  39.1602020  15.7837992  78.1993027  37.9363060  15.4460688  77.3752899
  43.0188789  34.3958054   9.1260014  43.7384529  33.8582764   9.4569263
  42.7592010  34.9347229   9.8732405  46.5569801  19.6387157  57.7181358
  46.1354446  20.4893131  57.8407173  46.5091400  19.4813690  56.7751694
  29.1236095  51.2734261   3.4950674  29.9925213  50.8759689   3.5520768
  29.1188049  51.7181702   2.6474741  71.3757401  43.1783981  80.7014542
  72.0503006  43.8574600  80.7099762  71.4708939  42.7356720  81.5447693
  64.3900299  18.2595997  86.6177063  65.3442230  18.3340664  86.6317749
  64.1352310  18.6071949  85.7630234  71.3412552  31.9776230  78.3605118
  70.9625168  31.1668053  78.7001648  72.1132202  31.6945095  77.8704681
  49.4013138   2.2764831  35.8121834  50.1251068   2.8390861  36.0875702
  49.7646217   1.7502165  35.0999451   2.9687116   4.9237609  23.9454575
   3.1108091   5.7464972  23.4773293   2.7933404   4.2831860  23.2561531
  34.0321541  53.7916832  53.3699074  34.4312134  53.1900482  53.9984131
  33.8065796  53.2403831  52.6206322  15.7394199  40.3215981  75.3462219
  15.3011198  40.7938423  76.0541153  15.2849474  40.6040306  74.5525513
  70.9228516  28.8822632  55.5089989  71.0351944  29.4349785  56.2823792
  69.9774399  28.8682499  55.3599052  41.6054573   1.0050282  85.7447281
  41.2259827   0.2889463  86.2540970  41.0585823   1.0574225  84.9608841
  26.9496250  50.0443459  22.0436459  26.1395340  50.1421432  21.5432262
  27.3021965  50.9321594  22.1045399  60.0006790  18.4727440  28.1587467
  59.4358940  18.6230316  27.4006786  60.6279411  19.1954517  28.1371212
  12.3313589  35.9308281  18.5250721  11.9995384  36.1891632  19.3849487
  13.0078936  35.2808037  18.7148132  36.9157944  42.2461510  76.7065048
  36.4123878  42.6114922  77.4340591  36.7242241  41.3086014  76.7296295
   1.6317177  52.8749580  73.4997101   0.8909381  53.4727936  73.6000519
   2.4039915  53.4326134  73.5937576   9.8516684  27.5039024  42.4944420
   8.9158936  27.5389481  42.6927567  10.1911306  28.3483353  42.7909698
  48.6719589  21.1499443  28.2826519  48.4033508  20.5540009  27.5834122
  49.4804688  21.5483170  27.9604149  83.4369507  27.6533356  17.7687263
  82.9397049  27.9775219  18.5196495  83.2670135  26.7114086  17.7575397
  75.8388748  45.2030334  39.1144562  75.8170471  44.2803459  39.3682365
  76.4105911  45.6159821  39.7616425  13.3914280  58.7294731  14.2872086
  13.9542961  59.3251724  13.7926865  12.8016949  59.3055878  14.7735596
  73.4332123  -0.2581041  64.9070511  73.2259521   0.5848006  65.3105240
  74.3429260  -0.1702404  64.6225739  60.3223305  27.8112812  27.6673927
  59.7129517  27.1614971  27.3171501  60.4162483  27.5781822  28.5910149
  81.1497498  10.2044563  78.5776443  80.8698730   9.4093094  78.1241608
  81.6746368   9.8885775  79.3131256  63.9059143  38.8659439  56.6192131
  63.6121674  39.7742844  56.6889114  64.7483673  38.8511391  57.0734024
  44.7104950  20.7324142  13.3979387  44.4122734  21.0831852  14.2371387
  44.7906799  21.5003929  12.8322449  32.0459595  58.4329605   7.8436170
  32.5837517  59.1078262   7.4294038  31.2476768  58.8909111   8.1067820
  67.1712723  47.2599640  28.2662144  66.5308990  46.7616653  27.7584229
  66.9583969  47.0638390  29.1786041  66.0226364  54.7888374  54.4251747
  65.4632492  54.9581146  53.6671104  66.3256912  55.6550255  54.6973953
  25.4829006  34.7782516  60.3689117  24.8632259  35.0261955  61.0550308
  26.3040276  34.6184196  60.8341370  69.8857651   9.4592485  76.8184662
  70.1541519  10.3750858  76.8922348  70.5703583   9.0509863  76.2884750
  58.5327797  31.6423054  86.7524872  58.3145714  30.9672146  87.3950348
  58.3999557  31.2180157  85.9048080  67.3175125  68.3269577  64.5198212
  66.7853088  68.2287064  65.3093414  67.1754761  69.2332306  64.2464676
  65.6187210  27.5112877  26.3411846  65.0480728  27.6226463  27.1015759
  66.3874283  28.0465469  26.5381870  12.0808897  52.4132614  41.1600037
  12.0000849  52.8267937  40.3005295  11.2017183  52.4661064  41.5348320
  11.4255981  33.7144852  86.7556000  10.7017365  34.3200645  86.5958176
  12.1315622  34.0310555  86.1920166  63.3764687  58.4506989  85.9361191
  63.1272125  57.5882530  86.2682190  63.3656120  58.3530235  84.9839783
  31.1412029   1.4445442  63.2695427  31.3154278   0.5680333  62.9266014
  30.5138550   1.8225266  62.6532669  32.6286201  51.4419098  78.3268738
  33.2578201  51.5784988  77.6185760  33.0140419  50.7455673  78.8586578
  64.2869873  19.2919502  60.5640144  65.0230331  18.8371391  60.1546135
  64.1414108  20.0589676  60.0101891   2.2470791  31.0558147  73.6256485
   1.7130176  30.2614594  73.6227188   1.7459645  31.6793957  74.1512604
  18.0546646  31.2768116  60.4376221  17.5514603  30.9841595  61.1974754
  17.5595188  30.9552994  59.6841698  32.3571167   7.3873277  83.9530945
  32.7473984   8.0186415  84.5575409  31.6816940   6.9474339  84.4693604
  54.5129852  17.9161625  26.4097881  53.6224442  18.2663975  26.3873005
  54.8786812  18.1364136  25.5530567  67.2576981  18.3395672  48.0902176
  66.8525085  17.8548889  47.3710938  66.5548019  18.8914852  48.4330864
  62.9292450  42.9633102  19.8239689  62.8913498  43.8490906  19.4631500
  62.0144463  42.6863174  19.8754406  38.4265633  58.5964317  67.4567795
  39.1051025  58.2446213  68.0330124  38.7904243  59.4207344  67.1337280
  71.3358994  46.3643227  68.4432220  70.7674484  47.0965729  68.6817856
  72.2183304  46.6659775  68.6589813  77.7746658  25.6110878  21.9364395
  78.5489655  26.1585350  22.0668278  78.0980530  24.7143288  22.0229244
   0.6903766  40.9816284  39.2538071  -0.0288100  41.5577774  38.9948578
   0.5242048  40.1647987  38.7832680  61.9153709  31.0289974  48.7981873
  62.2397766  31.9154797  48.6396179  62.7043343  30.4882431  48.8349800
  59.4265137   1.6740049  70.8065567  59.3986206   2.1293545  69.9650650
  58.5852509   1.8758941  71.2161331  75.4874191  53.0151787  62.7418022
  75.6344452  52.2165451  62.2350502  75.5521088  52.7348671  63.6547470
  59.8517990  10.2574434  63.4485168  59.1395531   9.7676878  63.8597031
  60.5948944   9.6541843  63.4595985  67.3588638   6.6178331  33.1226120
  66.7054138   6.5976167  32.4234581  66.9050751   6.2586560  33.8850403
  52.7087059  41.3897095  46.5422554  52.6954803  41.1912155  45.6059570
  51.7886162  41.5180206  46.7729111  47.3507462  11.0737972  34.7536125
  48.0649109  10.9532747  34.1277733  46.5650024  10.8120022  34.2737198
  77.5223312  46.4738007  40.6897621  77.0352631  46.9239807  41.3799324
  78.4337921  46.7272224  40.8355217  14.6754999  37.0089111  23.2817230
  14.1969652  37.8152466  23.0892105  14.0544500  36.4740562  23.7761536
  19.0409203  35.8839989  18.4223118  19.0204945  36.8372459  18.3378525
  18.8248138  35.5613480  17.5474262  43.4454002  69.6367950  45.4963684
  42.8896255  68.9008560  45.7527695  44.3330994  69.2787247  45.4986229
  85.0451889  46.1906700  33.6746330  85.2176590  46.6324425  32.8431740
  85.5896225  46.6553268  34.3101807  38.0373917  47.5628738   3.9269986
  38.2594299  48.2053146   3.2530525  38.0377045  48.0624428   4.7434926
  73.2348709  34.2310905  25.8528576  72.9487152  33.4243126  25.4245358
  72.7648773  34.9263649  25.3924961  68.3551865   0.8292397   6.2300816
  69.2284241   0.5089634   6.0040021  68.4314346   1.7824804   6.1882391
   2.0609891  29.1341171  85.5239334   1.6704758  29.7019730  84.8596573
   2.7262151  28.6343193  85.0507431   4.2292304  41.2973900  48.2680626
   4.0069466  42.2278328  48.2349892   3.6640813  40.8925858  47.6100578
  46.9202080  15.7183447   1.9691648  46.9360466  16.3874016   2.6535211
  47.7545128  15.2588272   2.0641010  68.2944870  57.3099976  59.3366013
  67.4857178  57.7956200  59.1744232  68.5031052  57.4913826  60.2530098
   3.8682590   2.2294652  45.6395760   3.2188697   2.5282941  46.2761536
   4.5969481   1.9109606  46.1723061  29.6829987  37.7722893  40.6339493
  30.3074036  37.7898254  39.9086609  30.0987473  37.2182426  41.2945709
  15.5086346  45.7177200  55.6764908  15.0019197  46.4623222  55.3523941
  15.3121243  45.0092888  55.0635147  19.8490295   6.7763371  54.3100700
  19.6367207   6.1317344  53.6350555  19.7132721   7.6227341  53.8841400
  15.4476461  59.8303909  27.8011971  14.5828543  60.1080246  27.4990616
  15.6892967  60.4779587  28.4633827  81.9657516  11.6574717  51.6261177
  82.7036743  11.0854988  51.8372002  82.0036469  12.3504648  52.2853241
  85.2510757  52.7691307  57.9237900  85.2159729  51.9805984  57.3822937
  84.3526306  53.0993195  57.9245872  40.7551041  29.8743515  60.8882332
  40.3081741  30.2174416  61.6620369  41.6850929  29.9146042  61.1112442
  85.0585556  34.6795769  22.2365131  85.1861801  33.7460022  22.4049873
  85.8640900  35.0916328  22.5488644  58.4776535  42.1770401  13.1220026
  59.2081795  42.7955399  13.1171885  58.0683823  42.2830811  12.2632332
  77.9107056  22.7193127  68.6413956  78.2701111  23.2914810  67.9633942
  77.2659225  22.1804619  68.1830063   5.3016477  55.1663818  51.5337410
   4.9017777  54.7235413  52.2822227   4.8813248  54.7719765  50.7695389
   5.8746748  52.0368385  87.8494797   5.6590343  52.0890007  86.9183426
   5.0742035  51.7135696  88.2629623  24.2626839  67.8663254   3.5925865
  23.4247742  67.5064850   3.3016291  24.0264969  68.6415558   4.1019583
  82.3554993   5.3092513  54.8817291  82.2431030   6.2026720  55.2063789
  82.2611923   5.3857908  53.9322662  23.8345718  64.0802689  35.9759903
  23.4677601  63.7492104  36.7957916  24.5387135  63.4675293  35.7639503
  47.3879776  41.4092598  74.8649063  48.3411255  41.4721909  74.9263535
  47.1287689  40.9260445  75.6494751  55.7876663   3.1886623  56.4062462
  55.1219940   2.9519346  57.0520554  56.4545288   2.5069559  56.4887352
  58.0917931  47.3203621  11.4098158  57.5802078  48.0852051  11.1461325
  57.8188705  47.1487885  12.3110971  62.0141640  18.4494877  76.0319977
  62.4042358  17.8202839  76.6387711  61.5005684  17.9130688  75.4280853
  66.9113541  14.1651945  46.7691879  67.5783005  14.2133312  46.0842819
  67.3123932  13.6340179  47.4571190  24.1177063  55.8793335   9.1910906
  24.3946648  56.6446152   8.6872349  24.5855179  55.1466446   8.7904024
  68.6723633   4.5376267  62.5529137  68.8013382   3.6387877  62.2501183
  69.5133133   4.9666262  62.3947945   6.5686617  60.7819786  84.7481689
   7.2661977  60.2098656  85.0681152   6.6231833  61.5597267  85.3034821
  14.6531849  32.8175011  79.7527695  14.2267570  31.9902802  79.9765778
  14.9825621  32.6843758  78.8639374  50.6627884  12.2472448  62.4954720
  50.7315369  13.1270132  62.8662987  50.1688881  12.3671398  61.6843491
  31.0091877   1.1483599  75.5066910  31.7875652   1.3742894  74.9974594
  31.1967468   1.4727350  76.3875046  73.2905731  63.3788605  16.7503872
  73.2030945  62.6190453  17.3259373  73.4582977  63.0057602  15.8849983
  83.2152252  22.4262085  34.0806084  83.9349213  21.9230919  34.4615822
  82.9445114  21.9164257  33.3170204  42.4218597  11.3872442  13.6549978
  41.5587578  11.4907370  13.2542782  42.3578873  10.5733480  14.1547089
  45.8758698  62.7643394  57.3419762  46.1276588  63.5186424  57.8747635
  46.5349312  62.7301178  56.6486549  79.7735138  32.6437187  87.9697571
  80.3622894  33.3079796  88.3280029  79.0115051  32.6617393  88.5487595
  14.3403044  61.4146881  44.3797264  14.0432396  61.0726814  43.5365067
  15.2936363  61.4501038  44.3013916  28.8871841  54.7719612  10.5973949
  28.3088551  54.0438423  10.3702154  29.6406898  54.6697350  10.0160084
  23.4510517  33.7951508  10.3198500  24.2310677  33.2510834  10.4284534
  22.7887268  33.3767662  10.8698606  52.8408661  25.2856770  46.3107300
  52.2287407  26.0136585  46.2031364  52.2885208  24.5418758  46.5513725
  16.2290916  63.3300552  67.2050552  15.4126606  63.7214279  67.5157013
  16.9072704  63.9544907  67.4627151  35.9176979  68.6254501  88.4002304
  36.6169167  68.2544327  87.8620224  35.7369461  69.4777603  88.0038376
  55.6076393  35.3505020  11.1237783  56.5594444  35.4519577  11.1263504
  55.3281441  35.7339592  10.2924690   7.7524762  21.0200348   9.4075909
   7.1193495  21.4637127   8.8432045   7.5429406  20.0903549   9.3180141
  82.9113388  58.7519264  57.1421623  82.4436493  58.0155602  56.7481232
  82.5276337  58.8400879  58.0146484  18.8687344  36.5476837  72.7496185
  19.2861557  35.7355919  73.0368423  18.1812515  36.2635651  72.1472244
   0.8476711  49.8787346  48.4057579   0.6424370  50.8131943  48.4357147
   0.8925596  49.6731834  47.4719696  49.8303604  40.5968552  13.8777170
  50.3084145  41.4240799  13.8194466  50.1890297  40.1671295  14.6542006
   3.0904319  44.3575096  20.6596394   2.9862614  44.5074692  21.5992641
   3.8816750  44.8428345  20.4259129  32.0053101  36.5851021  69.5017395
  31.6880798  36.6649437  68.6021729  32.0943680  35.6423569  69.6415176
   2.5349128  36.6098824  64.9173889   2.8206663  35.7321358  64.6641388
   3.0761151  36.8283653  65.6760712   7.6913891  51.5135155  26.6883945
   8.6216726  51.2983818  26.6211567   7.3521185  51.3891296  25.8020229
  81.0191727  67.2726593  74.8008881  80.9288254  66.4510193  75.2835693
  80.8799286  67.0293350  73.8856583  56.6059570  70.8577805  11.8520861
  56.4114761  70.2981873  12.6039295  57.5507584  71.0036469  11.9001160
  76.0612717  16.8667393  47.7167244  76.3290634  16.6204834  46.8313560
  76.6811142  16.4144249  48.2889519  29.0679016  39.2989807  59.6203690
  29.1120796  39.8998222  58.8765488  28.2999058  38.7555542  59.4440079
  40.0197563   0.3548362  72.0753403  39.7887840  -0.1750286  71.3123627
  40.2419243   1.2124791  71.7129517  69.7934418  27.6606121   3.4936829
  68.8382492  27.6886196   3.5489404  70.0034561  26.7278614   3.4478288
  86.2413788   6.3097591  35.0902061  86.0015717   6.7609916  35.8995972
  86.0159531   6.9282842  34.3953400   2.2968500  42.0244904  19.7751560
   2.7692106  42.6340065  20.3422489   2.0084391  42.5597191  19.0358448
  10.0495291  35.2472229   4.0611973   9.2686653  35.2978477   3.5099077
   9.7162504  35.0142479   4.9277310   5.7406659  68.7244415  83.1787949
   6.0967827  68.9073715  84.0482483   5.6470013  69.5859222  82.7722168
  41.5127144  67.9950943  12.3650732  40.5870438  67.7909012  12.4980125
  41.8138313  67.3417206  11.7336760  18.6159992   2.0708432  71.0420303
  19.0144863   2.5588613  70.3214188  18.5205746   2.7149618  71.7436295
  25.5705338  38.2473793  68.0583725  26.3225441  38.8395348  68.0503922
  25.0187664  38.5705299  68.7706604  22.5808277  54.0859489  86.2897491
  21.9355907  53.5938988  85.7820129  22.0696793  54.5124588  86.9775314
  65.3251266  42.5706825  21.5257263  64.9804077  42.7386284  22.4027653
  64.7225189  43.0286789  20.9397717  57.9488525   1.0605408   6.7606864
  57.5702972   0.2311668   7.0523462  58.7529221   1.1498691   7.2722788
  16.0396423  49.7530327  24.2013569  16.2034798  50.6807213  24.3710155
  16.8354301  49.4446182  23.7679558  72.1635895  13.0464754  83.9417419
  73.0545502  12.8116693  83.6823654  72.2223969  13.2053137  84.8838425
  75.8273239   6.9797063  15.2004261  75.1745834   7.6374636  14.9605932
  76.0027237   6.5082803  14.3860416  61.7320061  60.5047302  36.6213112
  61.7214508  59.7713013  37.2362938  60.8101006  60.7365799  36.5092010
  17.3620625  60.8393402  25.3215065  17.7221928  60.2820282  26.0113926
  18.0361996  60.8451767  24.6419964  79.8375549   3.5325742  73.7664032
  79.7352829   3.8508263  74.6633377  80.7150955   3.8163009  73.5101852
  75.4466858  60.1910896  63.3432999  75.8979340  60.4783783  64.1370697
  75.0510941  60.9882774  62.9908371   9.9316568   3.4514828   1.5677865
   9.6555185   4.2176890   1.0648867  10.8800659   3.4129698   1.4442238
  64.9592285  12.3800812  13.8002892  64.3387451  12.2037354  13.0930882
  64.9683762  13.3340311  13.8785696  10.0598536  53.9096680  62.4433861
  10.5909605  54.6866379  62.2688217   9.6859903  53.6790810  61.5929222
  41.9395599  53.1067848  37.4479179  41.5288734  53.0925140  36.5834160
  41.5663605  52.3518143  37.9028625  35.8305588   2.2345171   2.3884287
  36.0402336   2.6715457   1.5630354  35.5646400   2.9434683   2.9740117
  81.2118759  50.4073906  23.2556610  81.2367783  50.2141571  22.3184986
  80.2854919  50.5564079  23.4449520   6.1879673  48.4303741  23.5040092
   6.7247367  48.3758545  22.7133522   6.4697571  47.6865883  24.0365601
  15.4444866  46.3047867  30.8299675  16.3929024  46.4341316  30.8331337
  15.1268091  46.8439560  31.5542660  69.2572098  65.0360565  50.9435310
  68.3408508  65.0752335  50.6697121  69.7214050  64.6958771  50.1786575
  21.2384624  60.4606895  69.2060852  20.8003235  59.6233788  69.0538559
  21.9939384  60.2401276  69.7509155  83.6603622   7.3715043  32.2759285
  84.1027908   7.5889130  33.0964317  83.7281189   6.4188204  32.2124100
  46.0934029  32.6797867  69.7168198  46.5997314  33.3310966  70.2022705
  46.6420059  31.8954372  69.7246933  77.2937088  32.2970200  77.8296661
  77.1564865  33.2217598  77.6240921  78.0446625  32.0414467  77.2939529
  14.9440184   6.6328120  55.5760498  14.5029621   7.3060250  55.0578918
  15.4864712   6.1611595  54.9439735  25.9076862   5.7127795  19.0018635
  25.8614788   6.6523938  19.1785603  25.6273632   5.3012667  19.8193626
  67.4937592  62.4592247  63.6592102  66.8009491  62.3547134  63.0070343
  67.6353455  61.5766983  64.0017548  39.9877167  52.0335770  64.1102982
  39.9153976  52.9862671  64.1684875  39.9726830  51.8491554  63.1711502
  50.4504700  27.9807034  62.8429871  51.1198769  27.3797646  63.1700897
  49.8564568  28.1035633  63.5834503  50.6706619   2.9495246  68.7871552
  50.7088928   3.4929700  69.5741959  50.8926430   3.5466740  68.0727539
  30.8603668  70.3701782  36.6858711  31.1549091  70.0902786  37.5525513
  30.0245419  69.9208908  36.5603027  69.4213791  66.1133041  66.8642960
  69.6299973  66.3547363  65.9618454  68.7395020  65.4465561  66.7823334
  37.9921112  31.7556973   7.7414389  37.9299545  32.5916519   7.2793298
  38.7006416  31.2890892   7.2981620  72.8022385  53.8163834  10.0743141
  72.0923920  54.4455376   9.9458303  72.4440002  52.9845467   9.7645645
  59.5642471  23.5115700  35.7438507  60.0943909  23.4952526  36.5406685
  58.7877502  24.0175705  35.9831161  22.6095028  51.3377953  63.7945175
  21.9274120  51.5298805  64.4380112  22.1547737  51.3509064  62.9523277
  13.5319910  59.0934715  75.8908234  12.7979860  58.7020721  76.3644028
  13.1544847  59.3815804  75.0597305  69.5042038  65.4296036  44.4838753
  69.6136322  66.2357101  44.9883041  68.6718750  65.0678024  44.7881203
   0.4008249  33.4239540  56.1364136  -0.2982181  32.8618011  56.4704170
   0.8846998  32.8674774  55.5261421  70.9930267  13.1364460  61.8745384
  71.8070679  13.4609108  61.4894485  70.5464096  12.6938200  61.1528397
  23.8234673  26.9031048  81.4022293  23.3964691  26.0471287  81.4369965
  23.4351273  27.3940716  82.1263657  84.9093628  61.8785286  25.5273571
  84.6208115  62.5100327  24.8684425  85.6435852  62.3084984  25.9658470
  80.0545883  27.6149025  89.0054321  79.9441986  26.9636059  89.6981506
  79.4011154  27.3777924  88.3474121  41.1206131  19.5747662  10.0965528
  40.4732323  20.2249317  10.3693466  41.5361023  19.2937889  10.9118156
  53.1864281  47.6996002  64.1933670  53.8256836  47.0306664  63.9481926
  52.9986534  47.5248871  65.1155624  34.5739288  48.6571388  54.8651733
  35.3604202  48.4553223  55.3720589  34.0377579  49.1864700  55.4555626
  34.0120201  19.3105831  62.8935699  33.2426453  19.0076332  63.3757629
  33.6555138  19.7090225  62.0996056  47.6732025  35.5987663   0.3684195
  46.9443512  35.1233521  -0.0303141  47.8217087  35.1536140   1.2026964
  83.6808319  22.3427105  26.6167278  83.9757538  23.0118217  27.2344208
  82.9845428  21.8782444  27.0811462   3.5307596  20.6504726  64.5501328
   3.6642394  19.9730625  65.2130966   4.1911240  20.4654865  63.8823509
  26.1991844  57.3654633  13.5104809  26.2645683  56.7746086  14.2607145
  25.5526466  56.9538498  12.9370737  59.0194397  31.9928722  82.4322205
  59.7823792  32.5705757  82.4525604  59.0564346  31.5775032  81.5706329
  39.5178566  53.6702843  18.2587719  39.9164009  53.2848396  19.0390434
  40.1830940  54.2702560  17.9215393  67.1893234   8.7956781  52.6787682
  67.0130386   7.9120631  53.0018463  67.6273575   9.2344027  53.4080658
  56.9555626   4.0867691  24.4609833  57.1706238   4.9639087  24.7781677
  56.8797455   4.1871185  23.5120831  39.3814392   1.5706478  23.3915997
  38.7252426   1.2166133  22.7913513  39.0273285   1.3961254  24.2635975
  65.5290985  19.5727386   4.5490937  66.0400925  18.7657585   4.6115522
  65.4304581  19.8645172   5.4553862  54.8352814  28.1624317  36.7664948
  54.0427017  27.7492638  36.4239426  54.5372429  28.6550808  37.5311508
  61.3369370  55.1473274  80.6164856  61.9293900  55.6063461  80.0210571
  61.3163223  54.2484665  80.2880783  51.6632195  27.5202732   1.7064188
  52.1858177  26.8278656   1.3018301  51.9117050  28.3148956   1.2341276
  79.3159180  38.6898956  67.8879395  80.0579071  38.1413269  68.1424179
  78.6924820  38.5988426  68.6085358  71.0902252  57.2814293  86.7187653
  70.5245056  56.5252190  86.8747482  71.1508789  57.7148247  87.5700760
  31.0610790  64.3458633  52.2061005  30.7456951  63.7044296  52.8427505
  30.2747231  64.6235962  51.7362671  58.9554138  60.1977310  19.9694271
  58.4847374  60.0988197  19.1418304  58.7508545  59.4004745  20.4580688
  36.3473549   1.2127271  36.3115730  36.5003662   1.9857686  35.7682266
  37.0575256   0.6136968  36.0812454  62.0227928  -0.2027539  71.8359909
  61.2990685   0.0792154  71.2765732  62.6444054   0.5246135  71.8082428
  48.3875465  14.9129562  87.3576050  47.7369652  14.2565403  87.1084137
  47.8931808  15.5623150  87.8577728  38.5985641  71.0027390  60.4498291
  38.3408356  71.1164169  59.5350151  38.6974754  70.0564957  60.5549927
  85.0616913  17.1261539  15.9412889  84.5782471  17.7550716  16.4769955
  84.7067108  17.2397461  15.0596304  35.3282547  63.9735527  36.6562881
  35.6898346  63.0876999  36.6287766  34.4312248  63.8564949  36.9691277
  27.1355629  59.7156906  49.6459045  27.5072136  59.1013412  49.0129128
  27.7399597  59.6901779  50.3877182  45.4610710  49.0933342  16.8868866
  45.3972206  48.2643280  17.3611259  44.6462173  49.5509872  17.0937634
  61.3828850  60.2890854  56.4701042  61.9485512  59.9112053  57.1435013
  60.8086281  59.5694504  56.2082100  57.3766899  61.8777428  88.2798004
  57.2997131  61.9277420  87.3270111  57.8190956  62.6896858  88.5272903
  38.8811531  58.6336441  77.3364334  38.9307671  57.8263931  76.8244629
  39.6155891  58.5752296  77.9475174  34.2677116   9.0123100  86.6316071
  34.7514229   8.1866875  86.6561661  34.1194191   9.2304831  87.5517349
  71.3063965  67.4646988  15.9489889  71.6702194  66.8590088  16.5947495
  71.4925156  68.3338165  16.3042870  48.6316261  65.8788757  43.6639671
  48.9480591  65.4357224  44.4511871  48.6952057  66.8110428  43.8719330
  18.4738808  38.5926437  18.2294807  18.6198578  39.5378342  18.2687340
  17.9390278  38.4007034  18.9997559   3.1675508  11.9354391  81.3875351
   3.8681393  12.2347679  80.8080368   3.5565498  11.2127914  81.8801727
  54.0745888  63.2751579  18.0701447  53.5586395  63.9686317  17.6588974
  53.6936302  62.4630432  17.7361279  46.5266762  30.0975227  64.1427689
  46.4767570  29.1533642  63.9934273  47.3774376  30.3518944  63.7853661
  63.4008636  10.0474329  -0.0275655  62.8022804   9.3267365   0.1687111
  63.9734230  10.0984402   0.7378135  53.0908585  47.4344482  56.6651573
  53.5283051  47.3399544  55.8190231  52.5792313  48.2391319  56.5817337
  82.5374374  61.0609856  47.3141937  82.1479721  61.9313660  47.2305717
  83.4804993  61.2223320  47.3429184  66.3175888  14.8793144  22.0866299
  66.0947189  14.9186764  23.0166912  66.1492462  13.9703569  21.8382587
  76.9348679  45.8566322  63.4241219  76.2444382  46.4162636  63.7795868
  76.7985535  45.0094109  63.8482246  32.9483948  69.0831680  73.8673553
  32.1800613  69.6250381  73.6877136  33.4143639  69.0438843  73.0321579
  53.8649788  61.9901047  85.1833191  53.0506783  61.8055229  84.7152634
  53.5864563  62.2011795  86.0744476  73.8290863  50.4410515  20.3561020
  73.6054001  49.5265770  20.5291157  74.5829391  50.3960838  19.7679577
  39.8086281   5.5513368   3.7456741  39.5421371   6.3653588   3.3183775
  40.2857895   5.0708060   3.0691845  28.1141453  48.0578156  50.1820831
  27.6924324  48.5960236  50.8519516  28.7850285  47.5669174  50.6566048
  77.1493301  12.7860289  46.8276901  76.4716644  13.4120579  46.5725517
  76.7053986  12.1817741  47.4226990  37.0012169  61.7558708   5.2183471
  36.1266975  62.1278839   5.1040869  37.4582062  61.9635506   4.4033241
  51.5805626  59.7253189  52.7099800  52.0386124  60.1973724  52.0145760
  50.8451843  59.3014221  52.2675285  82.0911102  55.6909103  86.1861267
  82.4183197  54.8433266  85.8848572  81.3178329  55.4772835  86.7082748
  85.8389816  28.9368591  18.6630764  86.1647949  28.5584564  19.4797077
  85.0612259  28.4199066  18.4530964  23.1615849  58.3864098  42.3165627
  23.2120857  58.7187881  43.2127800  22.3469448  57.8843842  42.2928391
   4.6779366   9.1928911  71.8033371   5.0437465   9.4530554  70.9579239
   4.5450497   8.2480984  71.7262726  80.7767639  45.1747437   6.9263635
  81.0292358  44.6121483   6.1942596  81.4917145  45.8068924   7.0002899
  51.5941582  69.5987549  30.8339787  52.3477478  70.1137314  30.5456638
  51.0336456  70.2279739  31.2880020  34.0841141  52.7752228  74.8174210
  33.8199425  51.8561172  74.7762909  33.2787056  53.2637558  74.6474686
  44.6756058  57.3631287  74.4595871  44.1919289  56.5818138  74.1915741
  45.0981979  57.1130943  75.2812500   9.5131426   1.9329827  18.2460384
   9.5564032   2.8890176  18.2271309   8.5766563   1.7353115  18.2337055
   1.7073355  17.6217155  54.4206696   1.1486475  17.8543282  53.6790543
   1.1056190  17.5546436  55.1620674  12.1889019  26.7005215  61.6419487
  12.8074427  26.0565548  61.2970657  11.3636856  26.5005589  61.2000618
  79.9919662  24.8354740  18.5606747  79.3238220  25.4757366  18.3159714
  80.6229095  25.3341961  19.0797329  35.2872276  68.6041489  30.5143566
  36.2228622  68.8053589  30.5327682  35.0512657  68.4778748  31.4333820
  75.3136597  55.1382523  18.5709381  75.5412521  54.4614334  19.2083950
  75.1068649  54.6543655  17.7713604  85.7014389  51.8926277   7.9436893
  86.4024506  52.4588776   8.2664461  85.7204819  52.0058289   6.9933977
  43.1675987  63.8704376  48.5060081  43.6313171  64.6815567  48.2979622
  43.0514297  63.4373016  47.6603584   0.1060743  60.4073296  11.4595337
   0.2202372  60.6023140  10.5293827   0.8515613  59.8490639  11.6804810
  80.6668549  52.0579987  46.6157951  80.2769623  52.4715233  45.8455925
  79.9853973  51.4709435  46.9432335   6.4185658  23.3900051  88.4436340
   5.5446496  23.5198193  88.0753250   6.5759706  22.4494495  88.3611145
  75.1446991  29.6016293  34.9377403  75.0093918  29.1111660  35.7485237
  74.5652771  30.3594341  35.0166931   6.5424867  37.8489685  89.0423355
   7.1776052  38.5588455  89.1368332   5.7242608  38.2887993  88.8114929
  54.6485252   3.1304781  62.0060883  54.6699905   4.0866780  61.9679756
  54.1172829   2.9333913  62.7775612  58.5286713  27.9649124  74.0243149
  59.3140564  27.4187279  74.0571976  58.6099854  28.4522324  73.2044754
  71.5150681  67.6669388   1.7666966  72.3533249  68.0376205   1.4907503
  71.7526474  66.9128799   2.3063095  86.0423813  56.8978043  17.9539490
  86.8330078  57.4195137  18.0916595  85.9057770  56.9154167  17.0067101
  31.9377594  69.5093231  38.9537811  32.3995094  69.1025467  39.6869659
  32.4545174  69.2717972  38.1838646  42.7573853  37.9734039  55.8777504
  43.3054962  37.4901390  55.2594795  42.2336082  37.2994690  56.3109932
  67.1185684  13.1778879  82.2381058  66.4242935  13.7919159  81.9989929
  67.1666870  12.5712042  81.4992905   8.3293161  31.6229954  26.5720596
   9.1211758  31.6770325  27.1071033   7.6149006  31.5664940  27.2066078
  66.6587753  14.5803432  58.3186340  66.0302582  14.3879795  59.0144768
  66.1182556  14.7382441  57.5445938   9.8572674  26.3551712  63.8980141
   9.0539541  25.9350357  64.2052689  10.0199165  25.9625988  63.0403061
  40.0171356  67.9980698   0.7050433  40.8447227  68.4784622   0.6815630
  39.3531075  68.6718979   0.8508344  73.0383606  69.0163193  48.7343216
  72.5663300  69.8202820  48.5173988  72.3509979  68.3639221  48.8689995
  69.5750656  45.5498428   3.1439667  70.0081940  45.4419785   2.2972090
  68.9434357  44.8316841   3.1831176  85.6255341  32.9793091  88.7293243
  85.3427429  33.7738380  88.2765732  85.9790878  32.4216881  88.0363007
  75.2812805  43.7270660  20.0440979  74.7881317  43.5625687  19.2403698
  74.6254044  44.0378876  20.6681576  86.5397720  71.3177643  44.0676765
  86.9063873  72.0464935  44.5684509  86.2886200  70.6742096  44.7302399
  35.2798729  39.8358727  12.3868084  36.1940155  39.5520935  12.3799381
  34.7843666  39.0426331  12.5904694  56.8946838  63.4474907  52.1217422
  56.9845657  64.3886566  52.2712555  56.5742989  63.1021271  52.9549942
  75.4696121  70.8159409  13.5408459  75.4503479  71.7687531  13.6303244
  75.5751266  70.4934082  14.4358721   5.8231306  35.0792236  82.3928223
   5.1992917  34.3556290  82.3339310   6.5998616  34.7640228  81.9306870
  70.1322098  14.2212591  70.0800171  70.0493546  13.3555737  69.6800690
  69.2309113  14.5307922  70.1699677  58.2225418   8.7572613  18.3933887
  57.7690544   8.0616503  17.9172535  59.1329613   8.6903992  18.1054630
  28.9451714  64.7000961  50.3763847  28.7635975  64.7106705  49.4366264
  28.6001091  65.5336227  50.6963921  84.6490326  68.9291000  73.7380219
  85.0537872  69.7694321  73.9530716  83.7826309  68.9699860  74.1428680
   7.0412889  40.4935226  27.0654430   6.6910677  40.6447945  26.1875496
   7.8861308  40.0689507  26.9163971  51.5402565  48.1085854  44.8074493
  51.7639351  49.0025902  44.5486832  51.5912094  47.6043549  43.9954224
  61.1766586  62.1586304  19.6116028  60.7350731  61.3149986  19.5140133
  60.7889214  62.7117882  18.9334393   7.8205371  64.4890060  78.0915298
   8.1664124  64.9105072  78.8782578   7.7178526  65.2032471  77.4625931
  70.0849762  48.4689026  71.9250717  69.8931046  47.7451782  72.5214310
  71.0370331  48.5617218  71.9595947  38.7583542  50.9149437  15.7645397
  39.1573257  51.5740166  16.3325844  37.8670692  50.8176994  16.0997772
  14.3143311  54.1235237  29.7506657  14.0795431  54.1567459  28.8233032
  13.5872250  53.6591988  30.1653366   7.2299685   0.3780083   8.1022100
   7.7403088   0.8750912   8.7415018   7.6043687  -0.5025138   8.1293669
   1.5545853  16.7429676   0.4627497   1.3164297  16.5181904   1.3621879
   1.7549766  17.6784115   0.4946915  18.9255905  66.2947540  36.8449364
  18.9647903  66.4668198  35.9041443  19.7692928  66.5989380  37.1794090
  33.3859482  18.4848671   1.4819492  34.0938225  17.9323406   1.1504976
  32.6148834  18.2093430   0.9861895  57.5102386  60.4659653  42.2894974
  58.1164703  59.8950310  42.7614632  57.8776665  60.5288582  41.4078674
  45.8615761  50.0232277  51.6881180  44.9292488  49.9193916  51.4978256
  45.9026184  50.1187820  52.6396523  33.9130630  29.6627254  52.4263496
  34.4931870  29.8082809  53.1736794  33.8971024  28.7119102  52.3171501
   3.7654581  57.3580475  83.0801849   3.8987236  57.0495110  83.9764404
   4.5717912  57.8272972  82.8660278   1.6685140  37.9423447  76.3053360
   0.7852015  38.2028542  76.5663452   2.2256036  38.6673203  76.5886993
  82.7385254  67.2637863  83.9470062  82.9608536  66.4736710  84.4394684
  81.8236771  67.1391525  83.6945190  21.9035664  16.9654503  11.4748545
  22.5402794  16.3946590  11.9050016  21.8476868  16.6303787  10.5799589
  55.1169472  12.2243319  14.3989391  55.8702621  11.7553492  14.0400419
  54.7180901  11.6048689  15.0100117  49.7623482  20.8702602  10.5661039
  50.4068031  21.3715649  11.0657063  49.2152824  21.5343056  10.1465883
  18.7653465  32.0642700  56.3222618  18.1655788  32.6854019  55.9090958
  19.3270016  31.7625809  55.6082878  32.5605545  27.7222996  84.6366730
  31.7124462  27.9922485  84.2844315  33.1328697  27.6720810  83.8710556
  68.0238037  59.9040642  64.4905701  68.2113953  59.3789864  63.7125359
  67.6357574  59.2852974  65.1092682  18.5358181  66.8461304   2.7384536
  18.7420959  67.1624756   1.8589039  19.2574120  67.1623688   3.2820821
  85.4669495   8.7447233  25.8301144  84.6798477   8.4403448  25.3783779
  86.1119995   8.8643360  25.1330986  69.9332275  20.9587173  86.3174057
  70.0166321  20.5101719  85.4759293  69.4938431  21.7826958  86.1070862
  28.6850433  60.1708374  15.1985464  28.8282776  60.0169334  14.2647209
  29.0814056  61.0262909  15.3638630  38.6594429  52.1168137  54.8160210
  38.5963440  51.2059555  54.5286293  38.9914398  52.5868492  54.0511208
  21.3032970  14.7731304  77.1503372  22.2592564  14.7829571  77.1980591
  21.0498390  15.6923466  77.2341919  36.2318192  15.7694778   4.1529593
  36.2269745  16.7010403   4.3729591  35.8344498  15.3421211   4.9117060
   3.0944450  55.3424454  22.3460007   2.4678950  55.0195580  22.9936199
   3.9168234  55.4250526  22.8288059  14.2771635  38.5593758  65.3317566
  13.7948647  37.8476830  64.9109116  14.7487984  38.9852028  64.6158905
  20.0021019   3.8555536   3.6085234  19.5887184   4.0266967   4.4547248
  20.4457569   3.0153127   3.7242651  83.5674210  45.1972466  36.2260742
  83.0372620  45.2952003  35.4351463  83.0499649  44.6241798  36.7918167
  78.7119751  35.4334373  12.6288862  79.3341980  35.9793243  12.1481819
  79.2580185  34.8978653  13.2044172  71.4167023  50.8897552  87.3440094
  71.1490173  50.4997902  86.5118408  70.6873093  50.7114906  87.9376755
  42.3777733  19.7461605  70.1120377  41.5583305  19.3493214  69.8166275
  42.9879646  19.6023369  69.3887024  76.6320496  16.9942722   6.5118895
  76.2566986  16.1959095   6.8833179  77.3335800  16.6849880   5.9387980
   3.4355209  24.4442959   1.4254252   3.5196230  23.5181599   1.6522080
   3.0938027  24.8552570   2.2195103  21.4038372  32.2655144  81.9835052
  22.2230453  32.6113167  82.3378372  20.7285500  32.5942154  82.5769501
  82.1305161  30.7578602  81.7082291  81.8066940  30.2024250  82.4173584
  81.3394394  31.0872974  81.2817307  38.5677872  35.3312340  43.7142181
  39.0602684  35.0096588  44.4693909  37.9245033  35.9341660  44.0868950
  75.1196518  65.2098923  75.6935959  75.8625031  64.6905136  76.0012512
  75.3301163  66.1066055  75.9540482  15.2699623  63.6433868  58.6607208
  15.5125294  64.3544388  58.0675888  15.0060453  64.0845337  59.4681664
  86.2199554  39.9279709  87.1903381  86.4577332  40.5938492  86.5451202
  86.0492249  39.1419067  86.6715088  58.4546776  16.9053688  63.8664207
  58.3181839  16.7909298  62.9259415  59.1619606  16.2973309  64.0815277
  16.0284004  66.7512436  15.1010265  16.7308540  66.2114105  15.4634876
  15.2292519  66.2551193  15.2783747  37.7365341  47.8090134  64.2237015
  37.7307129  48.0861053  63.3074989  37.2254448  46.9997292  64.2324219
  29.7693958  47.5545197  86.8072433  30.2040386  46.7133179  86.9475937
  30.4589252  48.2052765  86.9387665  72.5695801   9.1421623  60.4420509
  71.7638397   9.6577902  60.4757652  72.9191589   9.3011303  59.5652657
  80.9581757  64.4832535  61.7654343  81.4758224  63.7051048  61.5586433
  80.9314423  64.9777756  60.9463120  24.1126003  21.6185169   1.6126601
  25.0004807  21.2917194   1.4673948  23.9800701  22.2672482   0.9214169
  44.3337173  55.1202393  51.4863510  44.9593849  55.4613075  52.1254501
  44.6032257  55.5111008  50.6551933  73.0788193  31.3084602  66.0873184
  72.1462555  31.4127502  65.8983994  73.1042862  30.7668381  66.8761292
  21.1054745   3.7795508  76.6254272  21.6015968   4.5577726  76.8793335
  21.7659168   3.1734293  76.2897720  47.2868004  35.7967567  12.8689604
  47.7675819  35.9882126  12.0637121  47.2134476  36.6426086  13.3109846
  51.7591286  39.3045540  25.4302692  51.3581963  38.9931641  26.2417641
  51.1414299  39.9523888  25.0911617  49.9127808  60.6469002  11.6249905
  49.9983330  60.8066139  10.6850948  50.5949783  60.0049858  11.8219309
   2.1889410  19.1715317  23.5486755   2.7841372  19.2910252  22.8086109
   2.7431195  18.8256645  24.2483139  36.0870247  67.1228561  34.3913422
  36.2656631  67.1160049  35.3316994  36.4252167  66.2843094  34.0771866
  40.3213272  28.2435398  47.7226219  39.8752556  27.9396000  48.5131111
  40.5267982  29.1611786  47.9013748  81.1794052  46.9236488   0.7146639
  81.7190323  46.2138863   1.0628988  80.3224792  46.5231667   0.5679533
  58.7125969  13.6440067  84.2257080  58.0314369  13.8809195  83.5963287
  58.4510918  12.7816019  84.5483627  70.8470001  51.3901978  46.4247665
  71.6643066  50.9896507  46.1284485  70.6979370  51.0160294  47.2931023
  81.6307526  28.2473068  51.4204674  80.9625397  27.6017780  51.6507034
  81.2920761  29.0748692  51.7620392  53.2689514  61.5919800  66.3052292
  52.9059601  61.9723053  65.5053406  52.5487251  61.0822945  66.6763458
  73.3030014  60.2205200  29.7574234  73.7694626  60.6827278  29.0609932
  72.4332352  60.6200256  29.7692032  43.6699333  39.4112396  67.1842804
  43.1808739  38.8800468  67.8126831  44.5589676  39.0576019  67.2124176
  73.1349258  17.7072639  87.0094910  73.2305603  17.0686722  87.7160950
  72.4875641  18.3316879  87.3369827  33.8658066   0.3773189   2.2377343
  34.6762238   0.8375155   2.0193863  33.9194870  -0.4458003   1.7521162
  19.4369507  65.7406693  19.2658195  18.8301182  65.1023636  19.6407166
  20.3014050  65.3465424  19.3824978  79.2367325  40.1428490  23.8487244
  78.8916245  39.9735107  24.7253399  80.0638351  40.5999260  24.0011063
  25.6913414  53.7363853  17.4215908  25.4831066  54.0511513  18.3012466
  25.0689220  53.0255928  17.2679653  50.1530685  13.7051573  66.8589783
  49.3515816  13.2819700  67.1668167  49.9608383  14.6418924  66.9014816
  11.1522446  33.9145470  69.2225952  10.5313778  34.0523529  68.5072174
  10.7006550  34.2458649  69.9988174  10.4202709  68.9269257  43.2114220
  11.0882530  69.3713074  42.6893501  10.7595558  68.9521255  44.1061211
   1.2352880   7.3474851  38.9733315   1.8103074   6.5853400  38.9046364
   0.5526326   7.0778680  39.5877571   1.6974134   7.8262811  44.4953156
   2.3119829   7.9758096  43.7768593   0.8354586   7.8363066  44.0791855
  16.9683475  38.8336716  44.9768105  17.7171822  38.3081512  45.2584229
  17.0726223  38.9102821  44.0283966  78.5831375  36.3030052  37.7174339
  78.5373993  35.7745438  36.9206467  77.6945419  36.6396065  37.8329239
  62.5872650   5.9037623  77.0291367  62.9781151   5.0302687  77.0072479
  61.6434975   5.7439737  77.0275650  50.2336731  17.5564213  84.1585312
  50.6722374  16.7530174  84.4385910  49.7978668  17.8788815  84.9474030
  13.6285686  43.9091072  69.6982422  14.2788315  43.2944908  69.3581924
  13.1070328  43.3911171  70.3113632   5.3509712  17.2172832  61.2435112
   4.6471825  17.2140656  60.5947418   5.7524018  16.3518181  61.1657066
  85.0125046  67.6364288  27.9194489  85.5581360  67.1447830  28.5332966
  84.3964920  66.9895706  27.5754414  48.6056404   7.9428902  60.2740517
  49.5220909   7.7500057  60.0761948  48.1554832   7.1053176  60.1642189
  78.1029968  43.1677094  64.0244446  77.9917374  42.5352898  64.7343063
  78.9654770  43.5527496  64.1796951   7.4283824  61.6505890  65.8593445
   6.8361135  62.0565262  66.4923248   7.7341523  62.3776321  65.3169937
  52.1730995  48.3455887  11.2714043  52.0365181  48.4872284  12.2081633
  52.6824493  47.5365944  11.2232513  71.2491150  28.1037712  84.5243149
  70.7582245  27.4430771  84.0357056  72.1348572  28.0590134  84.1641769
   9.0611324  30.4884014   9.2579861   8.5720596  31.3077602   9.3334284
   9.7722397  30.6890831   8.6494751   4.3435884  32.9099541  57.4970169
   4.5082121  32.1245804  58.0188560   4.3123984  33.6207771  58.1373215
   1.8860133  47.2354126  32.8664970   1.2412667  47.9154778  33.0615501
   1.6750892  46.5246696  33.4719658  36.7814140   8.2167597  13.4295197
  37.3179893   8.1763620  12.6378832  36.9039459   9.1079216  13.7566996
   2.2970169  28.7151089  18.8246727   2.4138026  27.8413754  18.4516010
   1.6624494  28.5912952  19.5305233  47.5713768  21.7913265  14.8376217
  47.7824287  21.7449131  13.9051332  48.3634605  22.1414986  15.2453232
  13.6157246  24.8817482   9.7705393  13.8437786  25.1217136  10.6686707
  14.2607889  24.2170544   9.5290747  57.8401222  46.2158585  67.6164780
  57.2744789  45.6441917  68.1355896  58.6062775  45.6778030  67.4171371
  13.5281000  38.7980080  76.2532883  14.4727888  38.9079590  76.1450882
  13.2633123  38.2563477  75.5098343  47.4655685  54.3717232  23.9733257
  47.4976082  54.3734550  24.9299870  48.1450005  53.7501602  23.7120495
  21.6445122  54.7405777  27.2491455  22.2203426  54.3879280  27.9275913
  22.2262268  54.9189682  26.5102158  58.6064072  40.7064362   4.2298813
  58.5829277  39.8042908   3.9107974  57.7417145  40.8465843   4.6157570
  69.7247391  30.8195972  60.4605598  70.5040054  31.0408936  60.9704704
  70.0673218  30.4237995  59.6591797  76.6244965  13.1947289  77.9006958
  77.3660126  13.7309046  78.1815720  76.6940613  13.1708927  76.9463272
  69.2175827  34.3909416   0.9527893  68.9575500  33.7408752   1.6054972
  68.8694534  34.0539894   0.1272601  42.9986572  39.7012405  79.7206879
  43.9518204  39.6417809  79.7852859  42.8372421  39.9954758  78.8242493
  23.8879299  57.3812637  31.9221401  24.3331890  58.1986656  31.6989040
  24.0412121  57.2736549  32.8608398  82.6067047   8.2890949  66.8082733
  82.4347305   7.3535666  66.9152527  82.4679337   8.6593475  67.6799850
  84.5047379  21.9911823  63.5309868  84.7318192  21.2150803  63.0188026
  84.3000793  22.6587791  62.8762665  21.5522709  46.5327454  56.6451225
  21.8786068  46.1034164  55.8542938  21.9902039  47.3838463  56.6536865
  69.5347748  46.5886574  47.0998344  69.9481735  45.8354950  47.5218315
  68.6817551  46.2635345  46.8119431  17.8501625  34.3586960  78.8548203
  18.3165894  35.1619949  79.0858841  17.1992035  34.6366272  78.2104340
  56.1099625  55.1992416  37.3552170  55.8847351  55.9846230  36.8565369
  55.3786201  54.6008034  37.2027626   5.0809846  14.5796776  46.6809540
   4.4556727  14.9926071  46.0853806   4.9434981  13.6402931  46.5589409
  43.0587921  70.2877808  69.4941559  42.8931541  70.1183090  68.5667496
  42.8780594  71.2214355  69.6030273  34.1732674   2.0906940   6.4781904
  35.1223679   2.0573292   6.3584952  33.9820137   3.0180278   6.6185694
  46.6653061   7.3327007  17.0711823  46.1966820   6.9328084  17.8037891
  47.3666534   6.7134938  16.8688774  18.0885544  42.1730461  11.8747301
  18.2121658  41.3702087  11.3683672  18.9629288  42.3886490  12.1990986
  76.0798492   7.2593861  54.0724678  76.6310425   7.7602258  54.6737823
  75.3179321   7.0114284  54.5961380  34.8938675  21.0047531   6.9503326
  34.1731606  21.0590496   6.3227429  35.5251160  21.6573334   6.6471882
  79.8213043  44.4651794  21.5587044  80.2437439  45.2669525  21.2505932
  80.5192642  43.8101463  21.5552025  24.6697845  66.7326813  13.9744129
  24.9979420  65.8335037  13.9798088  24.6238308  66.9653091  13.0470495
  11.9685831  11.8765802   4.1506910  12.6240673  12.5670376   4.0514889
  12.3014164  11.1523991   3.6205816  11.0011683  56.6495972  36.2839928
  11.0813932  55.8041115  35.8424606  10.3219337  56.5115547  36.9441566
   3.4781854  40.2971687  32.4918098   3.3941393  40.9772568  31.8234921
   3.7180097  39.5096931  32.0033455  74.9322815  15.7495508  69.2421188
  75.7559967  15.9148951  69.7007904  74.8901367  14.7966862  69.1614609
  22.1249886  51.2893181  39.5659752  22.3454361  51.5702782  40.4540634
  21.1823025  51.1255798  39.5936279   7.3538299  62.3840866  57.3578300
   7.8822961  61.7104034  56.9299164   7.2970009  62.1002808  58.2702179
   3.3464780  24.3915329  33.1522293   3.1564746  24.4169903  34.0900383
   3.2930689  23.4639378  32.9221230  84.1001816  45.6103439  29.7518272
  84.5852509  46.3308258  30.1541271  83.1800537  45.8301964  29.8976479
  84.8134689  63.6536255  10.4803152  85.4062729  63.9304886   9.7816257
  84.9938278  62.7201767  10.5915804  43.4172897  30.0997028  79.2977524
  42.9535828  29.9936867  80.1283951  43.6358490  31.0309544  79.2626190
  31.1868706  66.9572830  33.2233391  31.2825012  66.7748184  34.1581039
  30.7118797  67.7875977  33.1887474  60.0599785  40.9016190  87.2278214
  59.8983459  40.3581581  87.9990234  60.9433823  40.6626167  86.9472733
  84.0607224  35.8979149  75.7211075  83.2456207  35.8169556  76.2163620
  84.6082916  36.4747734  76.2536850   9.8704634  38.9304543  76.6797791
   9.4531145  39.7603455  76.9107132  10.7522459  39.1756439  76.3994675
  33.6706734  16.4212685   6.4227953  33.9688873  16.1016769   7.2743597
  32.8500557  16.8763714   6.6117468  72.4940033  67.8441467  86.5153351
  72.2134018  68.7497025  86.6475067  73.4335480  67.8554611  86.6979599
  26.7611465  47.2933159  78.0555191  26.0098133  47.8257332  77.7942581
  26.3892174  46.6137428  78.6177368  20.4117126  48.2705879   9.8758535
  19.8966370  47.4724083   9.7582216  19.9593906  48.9276695   9.3468180
  24.8113251  69.1075745  86.9641266  25.4125175  69.2422943  86.2315674
  23.9399529  69.2013016  86.5792160  41.3042526   0.0766617   6.5993094
  41.1061554   0.7074740   7.2914543  40.8815002   0.4361946   5.8194070
  65.7015228   6.9473810  82.9209366  66.0989456   7.0272813  83.7880554
  66.0681992   6.1388922  82.5629883  82.7535324   8.1440840  75.6328964
  82.8155060   7.8001337  74.7417831  83.4665146   8.7797813  75.6943893
   0.3731741  45.7851830  46.7543297  -0.5207759  46.0579033  46.9609871
   0.7665204  45.5894737  47.6047440  82.5463867  16.2235661  21.4255924
  81.6483307  15.9933805  21.6638088  82.9438553  16.5172062  22.2453632
  47.7659874  57.3484993  51.1697769  47.4325294  58.2426910  51.0958939
  47.4007759  57.0239258  51.9928818  50.4143257  12.2090511  18.4590721
  51.1220398  12.8478088  18.5448608  50.3039551  12.0992670  17.5146160
  77.6909943  39.0621033  53.5786743  76.7795334  39.3481331  53.6391678
  78.0638657  39.2674408  54.4360161  79.0004349   2.5641546  25.1865063
  78.6359482   1.7535352  25.5418625  79.9074097   2.5732520  25.4923706
  20.2591057  47.3292198  38.7874298  20.0498791  46.3959732  38.8262901
  20.0765915  47.5780678  37.8813438  11.4935579  61.9027443  21.4734440
  11.1520882  61.0479813  21.2107449  10.9433632  62.5334892  21.0090313
  61.1351776  35.8728409  75.0669785  60.6799316  36.6099548  74.6599808
  60.8744850  35.9089546  75.9872894  37.1007500   1.3996881  65.8153000
  37.7994156   1.4040645  65.1610184  36.5435028   2.1401286  65.5755997
  83.2526016  32.6031075  80.1112823  84.1285706  32.9063148  79.8725967
  82.8867874  33.3160057  80.6349106  41.8123016  69.4774399  56.1399574
  41.9324188  68.6553268  56.6152725  42.3554878  70.1085968  56.6120033
  82.3061142  60.9534225  29.1953659  82.0026016  61.7574387  28.7738514
  83.0227051  61.2365379  29.7633190  39.2058220  51.5987511  88.6209946
  38.4244461  51.2202682  89.0240326  39.8999901  50.9653625  88.8031540
  85.5092163  43.5675926  64.8205261  86.1476517  43.4658890  65.5264206
  85.8363266  44.3056564  64.3062363  23.1388149  65.4226532  75.5177231
  22.3469982  65.8592606  75.8317795  23.2045403  64.6317825  76.0529251
  32.4582253  56.7301140  20.4975891  33.2494354  56.4571838  20.9620495
  31.8292542  56.9277115  21.1915531   9.0137568   0.7001225  84.2296906
   9.5029020   0.6194069  83.4108810   9.5231018   1.3189900  84.7529526
  11.9373751   7.7539711   1.7246377  11.1425018   8.1538887   1.3718277
  11.6265764   6.9861951   2.2043836  84.2104874  35.8961754  28.2811852
  84.0894394  34.9731865  28.5040550  83.3274155  36.2156029  28.0957603
  85.3063889  53.2302399  18.0989914  85.5209885  52.6941414  17.3355904
  85.6853790  52.7558632  18.8389702  75.3097763   8.8312340  19.4718971
  76.1491013   8.5009041  19.7922859  74.9272919   8.0931644  18.9973545
  53.5644646  50.0232887  46.1287117  52.7777443  50.5661240  46.1799850
  54.2790298  50.6481743  46.0056305  82.4409561  58.5623856  50.6020317
  81.6477432  58.1442833  50.9370537  82.4250946  58.3869247  49.6611862
  59.9179955   5.8950219  76.2399292  59.1361465   5.8037353  75.6953125
  59.5808716   5.9657421  77.1330032  26.5588188  59.5734711  42.6769218
  26.4933128  60.4247971  43.1095695  27.1412907  59.0630951  43.2394829
  30.4051762  60.9100647  56.0537605  30.7732410  61.6563530  56.5268517
  30.0919132  60.3218117  56.7408257  58.6342278  24.0706158  12.0557652
  59.2591743  23.4568539  11.6697969  57.7879791  23.8120079  11.6907759
  44.6473160  35.6200409  77.0114212  44.4349937  34.8402443  76.4985275
  43.9386635  36.2338943  76.8184891   0.9252315  52.9669151  21.7191238
   1.7990010  53.3574982  21.7333984   0.9655380  52.3153610  21.0190639
  72.6201935  17.3677120  69.7658844  72.9301529  18.2362118  69.5092545
  73.2342453  16.7619553  69.3508835  62.5494118  35.6590729  44.4491920
  63.3281059  35.5661697  43.9003448  61.9676056  34.9559593  44.1604614
  26.4848442  65.8448944  29.2594109  27.0524025  65.1165237  29.5115757
  26.8741608  66.1839600  28.4533710  62.9240799  66.5215607   3.3558033
  62.7616615  66.3122635   2.4359932  63.8219299  66.8530045   3.3710954
  42.0852699  13.1777973  84.9239426  41.6464386  12.3461485  84.7449951
  42.1725464  13.2023792  85.8768387  72.2104034  55.7041931   4.2330060
  72.7327423  56.4528198   4.5210161  72.8035507  55.1974831   3.6783381
  56.2429161  27.4518700  24.2169571  55.6689339  27.2075691  24.9429684
  55.7268524  28.0720100  23.7018509  50.6180649   6.3482704  36.0122833
  49.8830147   6.9542665  35.9189835  51.2785568   6.8453965  36.4948235
  21.8180904  50.5964890  34.0493393  21.1536407  51.2773743  33.9438057
  22.1457539  50.7176628  34.9405098  64.1888733  43.9613037  11.4426012
  64.7796249  44.5711555  11.8845606  64.1132584  43.2216949  12.0455065
  64.5465622  25.3723202  64.9105072  65.3721619  25.3587570  64.4263306
  63.8837166  25.1397915  64.2602768   1.0703568  20.5148849  48.8183365
   1.3976523  20.5037899  47.9188995   1.8491054  20.6632519  49.3547783
  38.4997177  45.8136444  24.7743988  39.4528122  45.9003410  24.7923279
  38.3206749  45.3004684  23.9864750  17.5711002   9.2468204  14.5822535
  17.1618805   8.7366982  15.2812157  18.3429909   8.7377853  14.3346615
  73.2783356  20.9725285  47.9856606  73.9963760  20.4437046  48.3335075
  73.6408005  21.3811855  47.1996269  17.5323639  21.0058727  67.1279831
  17.9051876  21.7021122  67.6688004  17.6031094  20.2189617  67.6683502
  72.2706680  30.4713421  42.6577835  72.3681335  31.1223545  41.9628601
  71.6825485  30.8830490  43.2909012  58.2363472  26.9837894  52.0132027
  57.5949669  27.6157532  52.3379860  59.0692940  27.4548855  52.0355568
   4.6033759  12.1014948  46.4803925   5.2272568  11.8740749  45.7909851
   3.9655437  11.3878307  46.4711571  25.6471519  54.5277214  19.9855118
  25.1353493  54.6276016  20.7882042  26.1679726  55.3290596  19.9322662
  34.8004761  49.6897049  68.2182693  35.2482452  50.4334145  68.6215515
  35.5071564  49.1092033  67.9356766  52.5215111   7.3355446  37.5678482
  53.1318970   7.4257231  38.2996483  52.7498703   8.0521669  36.9757881
  48.2005882  36.4095726  37.1772575  48.0360870  37.2351952  37.6327934
  48.3296585  36.6620369  36.2630157  41.2177811  60.7207260  53.3189774
  41.8207893  60.6653023  52.5776634  40.4062347  61.0613060  52.9426422
  11.5769930  71.4712448  70.1157227  12.0690870  71.0627060  69.4035645
  11.0591078  70.7579956  70.4889526  18.8598099  25.3760757  88.7556229
  18.1074028  25.6453838  89.2824860  19.1792564  26.1878796  88.3617172
  14.8349171  57.7112389  45.0991936  14.8144064  56.8039780  45.4036407
  14.3329754  58.1953163  45.7549019  73.9674225  23.8972645  31.7166443
  73.5395203  24.7308121  31.9124203  73.8053284  23.3573189  32.4902153
  35.5838394  59.1033173   5.5734801  35.2115097  58.4141655   5.0233245
  36.0920792  59.6440506   4.9688873  54.1801910  24.4798927   0.8172320
  54.4288101  23.8137379   1.4580566  53.2231064  24.4810085   0.8319499
  15.7153826  28.6167908  54.7762413  15.2356396  28.2103062  55.4979401
  15.5976048  29.5572548  54.9099770  20.1868687  10.2795925   3.5168736
  19.6662502  10.1181831   4.3037257  19.5641041  10.6448183   2.8883791
  70.0546799  63.5723381   9.2486534  70.2796478  64.2149658   8.5758629
  70.7395325  63.6686630   9.9104195  25.8569908  63.4904404  77.5007401
  26.3181877  64.3012924  77.7153473  26.2092056  62.8451271  78.1137161
  15.9486027  39.7409782  63.4288635  16.3707275  39.7610245  62.5700035
  16.6638660  39.5772057  64.0435257  62.5034027  17.2188320  83.5757065
  61.7867432  17.5841732  83.0569077  62.3628540  16.2724934  83.5453491
  48.2248688   1.8747443  22.6848221  47.6509132   2.3481081  23.2870941
  48.4835243   1.0897465  23.1676350  18.5696583  10.3426552   8.2211933
  18.2604046  11.2466669   8.1632633  19.5221176  10.4106131   8.1546049
  20.2387428   1.3470254  56.9398689  19.3714619   1.6854089  56.7172661
  20.1719017   1.1060003  57.8638115  81.0468063  23.8110809  25.3672714
  81.4761353  24.2057877  26.1262951  81.4053192  22.9246387  25.3234100
  60.8315163  25.5208511   5.5315523  60.6241035  25.3417988   4.6144085
  60.9002571  24.6555157   5.9349165  79.6611786  41.4994545  78.0339508
  79.5488129  40.7246666  77.4832153  80.1628647  42.1080856  77.4916382
  70.4711380   8.5968904  15.0719414  71.1151886   7.8946099  15.1626749
  70.9936447   9.3803949  14.9006538  18.5345116  63.4790878  83.5419693
  17.9541607  64.2391281  83.4999695  17.9784565  62.7707863  83.8665314
  77.6111603  18.9504204  62.0880814  77.1195526  19.7465000  62.2901077
  77.3060989  18.3107605  62.7315140  85.2404785   4.5188627  53.9563980
  84.6052780   5.0868220  54.3924828  84.7267838   4.0401950  53.3058434
  27.0209255  53.6784286   3.0195148  27.7946358  54.2398949   2.9709551
  26.3185711  54.2049484   2.6377981  78.1316147   9.1779671  67.3455276
  78.9245834   9.6957111  67.4847183  77.4188919   9.7505007  67.6291809
  39.1396408  70.4496765  69.7943954  39.3657303  70.7341080  68.9088440
  39.7867432  69.7755814  70.0019836  82.9903030  27.3565578  32.2848740
  83.3822937  26.6113758  32.7401466  82.2223663  27.5812397  32.8102570
  58.1399078  66.0458221  38.2742691  58.3469009  66.8470154  38.7553825
  57.2032051  65.9138260  38.4205589  73.1320114  50.7499809  45.1493530
  73.3782501  49.9722099  44.6486855  73.3528137  51.4838409  44.5758247
  69.8451004   3.0221457  42.7744713  70.1438217   3.7435553  43.3281517
  69.8787842   2.2534227  43.3438225  15.9698086  63.1853943  12.8624229
  16.8067493  63.4851418  13.2172680  16.0309505  63.3613167  11.9235172
  40.4307213  26.5731277  10.8883905  39.8685379  26.2414017  10.1882896
  41.1086884  25.9048119  10.9881163  74.0816803  18.7975044  10.4002113
  74.7542038  18.2908401  10.8554440  74.5439453  19.2059746   9.6683016
   3.1796231  67.5777206  40.3750114   2.5992560  68.1464233  39.8690643
   2.6127689  67.1885529  41.0409393  62.3019524  45.6951942  74.7266541
  61.9490280  45.0724640  75.3621674  61.5759468  45.8611069  74.1253052
  65.6594086  54.4149971   4.9682112  66.2777710  54.2723122   5.6848011
  64.9474564  54.9185562   5.3629050  65.3933258  33.7456512  18.9467392
  65.9161987  32.9442825  18.9213200  64.8291779  33.6393471  19.7126808
  86.5958481  41.2056999  44.7887802  86.1576843  41.3635406  43.9525185
  86.1271439  41.7596130  45.4130592  10.4032669   2.0716012  11.6063700
   9.6397934   2.1426706  12.1793346  11.0696878   1.6473619  12.1468658
  62.8141823  58.8907890  58.7869377  63.2650604  58.5574379  59.5627060
  61.9773903  59.2170448  59.1179466  53.7135658   6.3790493  59.2230301
  53.2423363   6.4315467  60.0545464  54.6381149   6.3866525  59.4707870
  45.7017975  27.4246311  70.9518127  45.2233238  28.1393242  71.3719406
  46.6182976  27.6989937  70.9831772  26.2887344   2.0614386  84.9609833
  27.1524448   2.2307262  84.5847168  25.8150272   2.8862972  84.8540192
  74.9713898  39.0777512  15.4702549  75.8372116  38.7383728  15.2435007
  75.0482712  40.0251083  15.3569708  73.4641113  48.6341400  43.4055939
  72.9161148  47.9576187  43.8034019  72.9780197  48.9097862  42.6284447
  34.2744789  44.2228737  36.1696167  33.7839546  44.2157936  35.3476868
  35.0166702  44.8032341  36.0006065  65.6697311  59.3044739  50.8474884
  65.4779968  58.7092934  51.5722160  65.3204727  60.1489525  51.1322784
  28.0496902  62.8626556  66.0375214  27.3780212  62.8364868  65.3560486
  28.5667038  62.0698357  65.8948059  77.4622192  62.6455574   0.5581499
  77.6027756  63.5780182   0.3938468  78.2276154  62.2168503   0.1752504
   7.9079599  18.7862263  64.5574799   8.4055643  18.5654774  63.7701454
   8.5747404  18.9994431  65.2102966  69.1687088  54.7221375  14.7609663
  69.8557053  55.2740593  15.1346655  68.5288086  54.6257019  15.4662733
   0.3299124  54.3346596  29.4324799   0.6905489  53.5619469  28.9976368
  -0.5433527  54.4367561  29.0540409  19.2658062  41.6847420  37.1846695
  19.3540783  41.6086197  38.1347466  18.5936489  41.0433197  36.9544220
  39.6754341  46.4836235   1.3821352  39.7110252  47.0499725   2.1529880
  38.7752151  46.1587410   1.3649834  67.9455795  11.4566784  64.4064178
  68.3364639  11.1572409  63.5855789  68.6123734  12.0213604  64.7972565
  48.7908211   9.2530336  78.6313400  48.3466339   9.7401752  77.9373474
  49.7202568   9.4381466  78.4967422  48.7507248  43.0500984  19.7886295
  49.2925110  43.6073532  20.3473492  49.3788071  42.5201836  19.2977791
  17.5125313  46.3127785  87.0014801  17.7830696  46.8101463  86.2296906
  16.6462879  46.6580734  87.2174072  73.8749924  35.3365288  84.7481918
  73.6978455  34.6388397  85.3791275  74.6364212  35.0277519  84.2571564
  60.3246193  35.7321243   5.8916240  60.6683464  35.0896378   5.2709064
  59.9888268  36.4402580   5.3420548  58.2382355  65.7824554  49.7917366
  58.5191231  64.8678513  49.7628860  57.8540459  65.8876801  50.6621170
  67.7062759  67.5713196   7.6323543  67.5777435  66.7851486   7.1016436
  66.8280640  67.9385147   7.7330832  29.3630066   8.1728115  71.2564087
  30.2715034   8.3166218  70.9914856  29.4241714   7.5987864  72.0199432
  74.0240326  52.8332558  37.3105240  73.2071991  53.1700592  37.6787300
  74.1210022  51.9635925  37.6984863  22.4397449  62.6997681  63.0403099
  22.0583286  61.9477997  63.4934044  22.8312492  63.2260971  63.7374001
  13.8933916  31.6373577  58.9783859  14.6704845  31.0827465  59.0474243
  13.3544130  31.2124825  58.3111420  62.1715927  53.6914558  41.6427193
  62.5039253  54.4162674  41.1131592  62.7848969  53.6289330  42.3749619
  41.0468102  11.9702835   2.2982838  40.2619095  11.7938194   1.7796115
  41.0517540  12.9210033   2.4093657  58.9015694  12.8665972   1.0356748
  58.4187126  12.4032764   0.3512652  59.6942863  12.3456783   1.1640272
   3.5303171  47.5170708  25.4686661   4.2409616  48.1182518  25.6918201
   2.8774710  48.0678253  25.0365829  64.1278839  63.6399841  23.5239048
  63.7146339  63.9790382  22.7298641  63.4486313  63.1086197  23.9392452
  29.4084682  31.3811798  84.0330124  30.2060719  31.9101353  84.0167007
  28.7004566  32.0182877  84.1280975  16.0278111  65.2692337  86.4360886
  15.6301050  66.1389008  86.4778595  16.5903740  65.3000488  85.6622696
  72.2679214  16.9991589  28.6108093  72.5912628  17.8477783  28.3082695
  72.3540649  16.4248962  27.8498669  14.0670080  33.5482254  17.8660011
  14.0998592  33.2238274  18.7659550  14.9716253  33.7876091  17.6645184
  29.6193027  53.5456963  45.8125763  29.6786919  53.6578865  44.8638306
  28.6829605  53.6041489  46.0025215  67.0774002  29.1156216  27.9520016
  67.9954453  29.3461361  27.8095551  66.6004486  29.9334812  27.8110962
  19.6757126   9.3381166  53.4573936  20.0263882  10.2136908  53.2942085
  18.7330799   9.4276791  53.3171997  66.3444824  64.2808533  44.0817909
  66.0772400  63.4024849  44.3525124  65.5476837  64.8063965  44.1535301
  72.6081238  70.0145798  81.1822052  72.4523849  70.1308670  82.1194687
  71.9446487  69.3824234  80.9057846  77.6425018  35.0702133  51.6521301
  78.2294159  34.6755524  51.0071449  78.1752090  35.7383194  52.0835152
  84.0985794  57.8550949  65.5149307  84.1144638  57.4824371  66.3964691
  83.5863037  58.6587715  65.6038361  11.5593834  15.6133127  20.1461620
  10.7319880  15.9983673  20.4349213  12.2316141  16.1891251  20.5105495
  54.0158119  35.0944023  39.9361610  54.0273476  34.4984818  40.6851463
  54.3158913  34.5604286  39.2005959  13.8829327  18.2029972  16.8144550
  13.2817125  18.1796017  17.5589123  14.5403385  17.5372429  17.0164928
   3.9689014  35.0650940  45.6063080   3.1057837  34.6668167  45.7187042
   4.4753470  34.7550621  46.3570557  56.3817139   7.3872457  41.3796959
  56.6816063   6.6515741  41.9136276  56.9432259   8.1171932  41.6406784
  51.0911140  33.5294418  27.9300098  50.3164291  33.0446167  27.6453400
  51.0677834  34.3390846  27.4199448   2.6441445  24.3938160  68.4567261
   2.6949232  23.4790630  68.7340012   1.7061825  24.5811005  68.4195328
  38.2331734  38.7422943  12.5788202  37.9950256  38.0252228  13.1664677
  39.1313133  38.9646759  12.8240232  80.9439926  24.1566124  73.4003220
  81.8178711  24.5184746  73.5473785  80.3965912  24.5749378  74.0648422
  41.5620766  70.0062790  36.2789536  41.1373329  69.1555939  36.3891983
  41.3153801  70.2846603  35.3969803  17.6183300  62.7933197  77.5802307
  16.6895123  62.5998573  77.4533463  17.9935188  62.7540512  76.7005005
   7.4967690   6.8977156  71.1386414   7.4376307   7.8085747  70.8504257
   6.6103988   6.5535855  71.0283966  79.0719833  28.3960800  46.7022820
  78.1237640  28.3273315  46.5910110  79.2718658  29.3090076  46.4952965
  71.0225830  32.8614197  57.2563858  71.6196671  33.5561790  57.5339241
  71.1823807  32.7693138  56.3171234  30.3086510  46.7419777   5.8029571
  29.6881790  46.0659256   5.5305605  30.0169239  47.5320930   5.3481507
   1.5956992  40.6997757  52.0582008   1.0138592  40.8534813  52.8025589
   1.4129367  39.7982407  51.7935066  35.5776405   1.1975156  27.5581875
  36.0697556   0.9079812  28.3264503  34.7118683   1.4222223  27.8990345
  82.4630508  43.1014099  10.2256794  83.1937408  43.1421547   9.6087055
  81.7158432  42.8267365   9.6941996  72.2737122  36.9171181   9.6941214
  72.1121750  37.3119698  10.5509939  72.6016769  36.0400238   9.8925629
  20.3997536  48.1574326   5.9032774  20.3913937  48.8212852   5.2137413
  19.8774223  47.4377022   5.5491719  43.2086258  45.8996124  69.9003754
  43.1256027  46.0264053  68.9552460  42.4112511  46.2840500  70.2645645
   8.0463047   7.1045709  15.6703005   7.8842950   7.2106519  16.6077080
   7.6725521   7.8907228  15.2721729   6.7714219  17.4348202  14.2948780
   6.2171025  16.6602840  14.3900347   6.7241130  17.6502419  13.3634348
  53.9082298  35.5225296  54.4686661  53.3250885  35.4817657  55.2266312
  54.4212189  34.7158737  54.5174789   2.8746963  15.6148643  45.3158646
   2.3348255  14.8538742  45.1021690   2.2600985  16.2479324  45.6869774
  36.3563118  23.1459198  79.8654633  35.8094597  23.0409012  80.6440201
  37.0183640  22.4590054  79.9433594  22.4317780  11.3274088   5.0909619
  21.6248322  11.0347881   4.6673560  23.0158138  11.5498638   4.3659468
   6.5095072  39.2386246  44.9843483   7.2830081  38.8443108  44.5813026
   6.3273177  38.6858826  45.7442894  43.7083244   8.9969463  73.0941086
  42.7803955   9.0789289  72.8739777  44.0528183   8.3760729  72.4521790
  16.9134579   2.5660689  47.1535072  17.1753941   1.6454163  47.1579742
  16.3519440   2.6590650  47.9231110  38.0299988  32.6985054  87.2666016
  37.1622543  32.6036224  86.8738556  37.9578819  33.4746323  87.8221664
  57.2221947  39.3387451  60.0554733  56.8171425  39.7909431  60.7955284
  57.9860802  38.9010887  60.4311981  70.0213013  68.1523743  30.6269894
  69.5036469  68.8289337  31.0634823  69.5088501  67.3512573  30.7357349
  52.8776970  23.4869442   6.0061269  52.2063980  24.0651531   5.6438265
  53.6830254  24.0030899   5.9704814  43.1178093  65.3612823  15.1699743
  43.5432320  64.9241638  14.4322891  42.4458199  64.7439423  15.4590263
  56.9102745  13.3118315  74.2224426  57.2912445  13.5925255  73.3903961
  57.4397583  12.5594301  74.4865875  38.6217575   6.8534112  73.2914505
  37.6766014   6.7997508  73.4329987  38.7296753   6.7355366  72.3476868
  66.2806854  29.9200153   6.8605824  67.1466446  29.6930809   6.5216894
  66.3094788  30.8699722   6.9745336  36.3586731  46.7731247  83.0852280
  37.1054039  46.3841553  82.6298981  36.2599907  47.6383095  82.6877975
  75.5822906  48.5247002  67.1266785  76.2481079  49.1660271  66.8784409
  75.2237778  48.2171745  66.2941360  11.5324097  69.0146561  22.0914593
  11.9454317  68.3321533  21.5624695  12.1911602  69.7069778  22.1459503
  22.3829441  42.7616806  65.1774216  23.1180439  42.7566833  64.5643692
  21.7728310  43.4038162  64.8145828  54.6291084  21.7954388  61.7580338
  55.0379639  21.6006069  60.9147606  54.2770920  20.9556961  62.0532455
  46.3649483  52.2545395  34.6420517  46.1095352  51.3495064  34.8206978
  46.3060608  52.3365860  33.6901932  31.4909134  61.3506927  41.6028938
  31.7319393  61.1227417  42.5007668  30.7714214  60.7564163  41.3898201
  21.6587620  43.0850754  55.2257309  21.6079330  42.5771904  56.0354843
  20.7695885  43.0616531  54.8721008  50.9164505  65.4881363  34.4176102
  51.7773972  65.8383408  34.1887932  51.0275040  64.5380249  34.3832779
  18.7756424  43.0187912  79.8525848  19.6673832  43.3526344  79.9504547
  18.8500042  42.0812378  80.0306168  29.7706814  10.9607105   8.3397198
  30.5498390  11.4334641   8.6323776  29.5983315  11.3028450   7.4625244
  12.6455116  44.3910370   9.6023006  12.6570091  45.2210274  10.0789690
  12.3547039  44.6250458   8.7208805  76.3719025  55.7787094   1.6913563
  76.8159714  54.9466858   1.5277414  75.8671875  55.6277237   2.4905422
  54.9418640  50.6919289  18.9358330  55.1541710  50.1779861  19.7149467
  53.9850845  50.7038155  18.9101372  61.6008530  45.0459328  45.7357788
  61.0567093  45.8331413  45.7146225  61.0922394  44.4168816  46.2474823
  20.7922192  19.2144127  84.6500092  20.9210262  18.6170025  83.9132996
  21.6069946  19.7144680  84.6981583   4.1312561  48.2446175  35.6426620
   3.3921816  48.7788086  35.9335938   4.5865111  48.7931976  35.0038872
   0.9156340  50.9998665  71.5806656   0.7595236  50.1475830  71.9874420
   1.1430283  51.5756607  72.3107224  19.5890617  54.4705315  16.0716801
  19.0556374  55.1217918  15.6161051  19.9935837  53.9594650  15.3706770
  67.3387222  31.6308689  54.4975739  66.5597229  31.0768242  54.4482880
  67.8628006  31.2453308  55.1996651  24.0923576  33.6390419  18.7307739
  24.1206017  34.2850304  19.4365578  25.0108547  33.4308472  18.5597401
  65.1958237  42.1239204  38.3343544  64.9399033  42.0312271  37.4166718
  65.5903778  42.9944801  38.3862152  44.2968597  16.7554417  74.3749771
  44.3728867  16.4491882  75.2786636  44.3824196  17.7068233  74.4364929
  55.2830925   0.6768445  65.0660019  55.8830223  -0.0666131  65.0061035
  55.5776825   1.1607684  65.8375397  16.5753860  40.6375694  14.2404995
  16.6918335  39.7726555  13.8473110  16.5196686  41.2343941  13.4942226
  58.6012230  10.2646675  45.1670876  59.2585373  10.9128094  45.4202309
  58.8852615   9.4562559  45.5937309  20.8388996  18.0237026  88.6253891
  21.6054325  17.4774666  88.7994232  21.1205616  18.6167374  87.9288177
  40.2143669  18.6999645   5.5239744  39.5153008  18.7583408   6.1752276
  39.8453293  19.1056309   4.7394505   9.4324856   5.0118308  18.6434269
   9.9059238   5.5788245  19.2522011   9.7123556   5.3048892  17.7762356
  16.4277897  18.1222649  76.0436325  16.3641376  18.7820301  75.3530579
  16.0302467  18.5375099  76.8089828  17.4313316  26.0303707  62.9916153
  16.7508507  26.2279377  62.3480759  17.1493568  26.4847336  63.7855148
  48.6191177  33.6101723  67.4130554  48.8262100  32.8090134  67.8941879
  49.2013779  34.2714653  67.7870865  51.9747543  41.2473526  79.2104111
  51.5322685  40.4009895  79.1462860  51.2689133  41.8914795  79.1546021
   6.9017200  62.9474182  76.0857925   7.3126717  63.3233986  76.8642502
   5.9625397  63.0589256  76.2332306  39.1865196  49.0036964  23.3803329
  39.5639458  49.8517227  23.6140575  39.7195015  48.3654594  23.8544846
   3.3069682  59.2970390  31.8449230   3.7910588  58.4715996  31.8217010
   2.7675643  59.2362595  32.6333275  50.5866852  49.3952293  47.5195770
  50.8502846  48.6689377  46.9545593  51.0198250  50.1611824  47.1428299
   0.5027174  54.7194023  62.7644386   1.2590939  55.3010864  62.8404121
  -0.2529429  55.3069000  62.7718849  18.1056252   4.8041844  15.1028690
  18.6485405   4.7654676  15.8902550  18.7252693   4.9711246  14.3926563
  40.9104996  28.2415962   4.1913867  41.5135002  27.5784340   3.8554716
  40.5588226  28.6643810   3.4079275  80.5320892  47.8599281  62.6014633
  80.0199280  47.6679573  61.8159256  80.6635361  47.0072212  63.0159988
  78.3602142  60.9564972  39.6468010  78.8371201  60.3390694  40.2014008
  77.8326187  60.4030571  39.0709724  20.8513985  37.9451752  64.8021774
  20.5196838  37.1452255  65.2099457  21.7294922  37.7134666  64.4996948
  42.3352509  24.9821644  17.8306637  42.9832993  24.3290291  18.0946350
  42.1833191  24.8070850  16.9019585  65.5417709   5.6513386  30.9903240
  66.0772552   6.2339835  30.4517937  64.6399384   5.9041958  30.7928772
  62.4503059  38.8282509  18.0303955  62.7759361  39.6296501  17.6205692
  63.2316246  38.2904243  18.1589069  73.9489517  23.9813538  79.7243195
  73.6556625  24.4678211  80.4947510  73.7395782  24.5533066  78.9859009
  14.4643221  59.6216736  54.0391006  15.2576351  59.1648369  53.7594795
  14.7835846  60.4171333  54.4651871  22.1353912   6.3001847  79.1341248
  22.9166546   6.1296797  78.6080170  21.7712708   5.4326601  79.3103333
  85.7625885  17.6550999  55.4535751  86.0799255  18.5555229  55.5226250
  84.8794022  17.6835270  55.8215599  43.9224091  39.1898041  64.1696548
  43.4535179  39.3188477  64.9941101  44.5985527  38.5447960  64.3770828
  83.3168030  54.2411842  33.8262405  83.8159409  54.8725243  33.3080635
  82.4310760  54.2823563  33.4656563   1.7096466  49.9993935  15.9481745
   1.1222605  49.3596878  16.3506527   1.2848834  50.8435707  16.1003914
  28.7269993  44.6281738  16.9016418  29.2155647  44.6127968  17.7246227
  28.3428364  43.7539978  16.8347950  80.6747818  65.0952530  64.6367569
  80.8400803  64.7240372  63.7700920  80.2080917  64.4050217  65.1079254
  63.2500076  68.4443359   5.8760672  63.5442772  67.5344925   5.8333840
  64.0507507  68.9485321   6.0203681  45.5470772  29.1069622  35.8742905
  44.9234238  28.8796539  36.5639420  45.1841774  28.7095623  35.0827065
  49.0794754   5.0401797  80.4650955  49.9066124   4.7008781  80.8070755
  48.4090958   4.4900832  80.8703384  33.4625397  12.2625628  75.9884491
  34.2457809  11.8597078  75.6136551  33.7615318  13.1126404  76.3112564
  20.2221680  52.4873199  64.8138962  19.8154030  52.6402435  63.9610291
  20.4019814  53.3637657  65.1540985  79.5845490  60.0051003  51.6692696
  80.1532974  59.6197433  51.0027428  78.7308807  59.5987549  51.5197258
  64.5179062  63.4186058  60.2701378  64.4401398  64.3071671  60.6174774
  63.7114525  63.2846451  59.7722282   2.3459537  47.2036247  52.6438484
   2.3001285  47.5007973  51.7351036   3.2819059  47.1879120  52.8437958
  78.1753998  28.3181744  52.7327194  77.9485474  28.9726295  52.0720711
  78.7973175  28.7639694  53.3078003  79.7646027   7.1392660   5.8036332
  79.7711487   7.6531291   6.6111808  78.8595963   7.1884370   5.4957824
  39.2585640  70.1178055  13.9245234  38.9504852  70.8408661  14.4708834
  39.7662697  70.5404739  13.2318316  39.4508705   2.0458126  36.3337631
  38.6619415   2.5559757  36.1505814  39.3962021   1.2981675  35.7385559
  64.2221375  11.4006481  35.4134712  64.6229782  11.9874945  34.7722473
  63.3004723  11.3606033  35.1581993  41.3403015  64.2077637  42.8769951
  41.7341270  64.8384171  42.2741623  41.9878769  63.5063095  42.9465256
  74.4854355  14.9520702  17.9485760  74.9428024  14.6475916  18.7323704
  73.8193665  15.5549355  18.2789421  28.9807777  31.8936100  61.2935104
  28.2875309  31.5208340  60.7488289  29.1851807  31.2046432  61.9257889
  41.6109695  22.3822136  58.0233192  42.1896591  23.0921516  57.7452202
  40.9356384  22.8145332  58.5460625  68.2911148   7.0684814  61.3076973
  68.8874664   7.2922149  62.0222206  68.2856140   6.1114411  61.2911034
  51.9345894  64.1655121  60.5475578  52.4734192  63.3866653  60.6864700
  51.1622963  63.8427544  60.0832100   9.0737762  13.2113447  88.9631653
   9.5441809  13.6411772  88.2488861   9.7271090  12.6446991  89.3734055
  72.3630524  63.3811684  60.8839607  71.4770660  63.7003555  61.0553513
  72.2780762  62.8534164  60.0899277   0.5794592   1.7586292  46.1931648
   0.8952149   2.5153894  46.6869698   0.8127789   1.0047978  46.7349510
  56.1148109   3.8487587  28.5797081  56.7583656   3.1581068  28.4213810
  55.3082771   3.5202405  28.1824493  78.1193085  66.3188858  16.5990047
  78.9506912  65.8927994  16.8075428  78.2042236  66.5728531  15.6800251
  68.7097397  34.9635010  36.0008812  67.7543030  34.9765663  36.0575409
  68.9492950  35.8650551  35.7862892  40.2427711  65.6963501   3.7519886
  39.3981514  65.7024536   3.3016438  40.0319595  65.9162445   4.6594224
  55.4497108  57.8183746  58.7173653  54.9092522  57.5979309  57.9587250
  54.9025116  58.4057350  59.2387238  62.2687263   4.4675546  63.6494942
  62.2809029   3.7419984  64.2737122  62.6424828   5.2049279  64.1320038
  17.0118828  55.4021873  29.7085686  16.6660557  56.1048431  30.2589436
  16.3126774  54.7488365  29.6867981   4.6525636  31.7267437  53.1032982
   5.0787950  32.0482292  52.3088150   4.1013956  32.4546432  53.3907127
   4.9646621  37.4996147   6.4300179   5.5334821  38.2363129   6.6535101
   4.8154807  37.5891457   5.4887633  41.5069656  65.7896652  53.6999397
  42.2391281  65.3190308  54.0982666  41.0897102  65.1445160  53.1290588
  68.0140305  12.1705551  36.1822891  67.3271561  11.8213463  35.6144028
  68.5456619  12.7192078  35.6055908  30.1163902  43.6811714  24.1537590
  29.6177578  43.6920471  23.3367634  29.5882931  44.1964455  24.7635441
  50.9985237  32.0690575  42.4997711  50.5646172  31.6480751  41.7576599
  50.2869530  32.2838402  43.1029053  49.2136536  24.0859470  20.3925285
  48.7609520  23.2444611  20.3360214  49.6371231  24.0729370  21.2508621
  44.2821388  60.9225273  22.8543091  45.0974121  61.3331108  22.5662422
  44.5082130  60.4946823  23.6801853  14.4720154  47.9055595  82.1827774
  15.1313391  48.1844788  82.8181686  13.6581182  47.8638153  82.6848297
  12.2815819  36.8204308  59.2173309  13.1459150  36.4219055  59.3190041
  12.3566475  37.3572311  58.4283829  75.1335907  51.2287331  75.5052795
  74.4595337  51.8430099  75.7960434  75.7453613  51.7653694  75.0013046
  76.2053452   1.4218420  69.6460876  75.7126236   2.0829346  70.1323013
  75.6085892   0.6760260  69.5838776  18.1264629   4.2629023   1.5831538
  18.7376938   4.1096659   2.3036726  18.6844521   4.4961753   0.8412220
  17.8362465  60.2039108  20.6232147  17.1070385  60.8017693  20.4587440
  18.2972336  60.1523666  19.7859192  32.8272209  40.8418121  52.6455765
  32.5462456  40.1258965  53.2154465  33.2694588  41.4554329  53.2322044
  41.8942642  16.2892475  76.2382889  41.8390999  15.3721867  75.9696121
  41.9271469  16.2571507  77.1943893  15.2256823  52.2623482  14.2461815
  14.6612692  51.8890572  14.9231777  14.6203299  52.6769867  13.6314831
  18.5823860  51.7343941  45.5233536  18.8585720  52.4845505  44.9968376
  19.4005833  51.3234596  45.8024864  47.9650650   7.9750652  39.2670174
  47.2928658   8.4096441  38.7421150  47.5774231   7.9012561  40.1390953
  80.2793198  67.7527008  10.6168423  79.7016220  68.0119934  11.3346624
  79.6893387  67.5939331   9.8799953  56.6699791  32.4777870  28.8868618
  56.3288002  33.3671150  28.9813194  57.5687637  32.5973892  28.5800743
  40.2960243  54.4377327   1.6160254  39.7942581  53.6513824   1.8307693
  39.6390800  55.0673561   1.3189830  73.9224777  49.4910278  23.3383865
  73.3912277  48.8305969  22.8936024  73.2851410  50.1037827  23.7052231
  15.4003296   0.3431800  19.9585228  16.3125343   0.4357649  19.6836720
  14.9102583   0.2654706  19.1399727   5.9337850  37.2442894  58.4191780
   5.1884503  36.7240753  58.7193222   6.6888247  36.6661453  58.5282555
  85.0520782  29.7859383  64.5117722  84.2752304  29.9391937  63.9739532
  84.9419937  28.8946781  64.8430939  53.5837975  32.9285736  17.0961475
  53.8358574  33.7938538  16.7736702  53.1260910  33.1034088  17.9184418
  37.8031998  70.3735809  65.2711945  37.8053703  69.7345963  65.9838791
  37.7835579  71.2233124  65.7114258  19.0954590  11.3423119  81.0996552
  19.1123905  10.4044237  81.2902069  19.4429264  11.4123735  80.2105026
  59.9784737  13.8170443  43.1003990  60.6870689  13.3102264  42.7038422
  60.0500412  14.6832371  42.6993752  84.3418579  12.6555853  14.7369156
  83.4585037  12.3337383  14.9167252  84.5737762  13.1651449  15.5133142
  73.3485107  29.5717793  50.8057251  73.2556381  29.3728924  51.7374153
  74.0735931  29.0191803  50.5139694  86.2097092   0.1887356  73.8138657
  85.5675430   0.0386053  74.5076370  85.7052002   0.5812032  73.1013565
  57.6783676  15.5639706  66.8748474  56.8648872  16.0125351  66.6440506
  58.3113022  15.8653517  66.2230835  59.3109322  51.3015404  69.2885818
  59.6229744  52.2055511  69.2482834  59.2965012  51.0122528  68.3762589
  27.8142529  54.5627594  66.8759842  27.8731594  53.6605873  67.1903839
  27.2244625  54.9939003  67.4944458  29.0457554  47.4365349   1.5081444
  28.2657185  46.9037514   1.6627852  29.7371197  46.8009224   1.3230979
  45.2506447  63.1382523  81.5145874  45.6639366  62.3400040  81.8435516
  44.3467522  62.8819962  81.3314438  66.6479874  45.6260376  62.0779114
  66.5491333  45.7551346  61.1346207  66.2110825  44.7924881  62.2526627
  82.8838654  12.2639685  85.0051804  82.3318634  13.0388918  84.9002151
  82.2672958  11.5321999  85.0294266  73.7249298  52.5844421  65.6758423
  73.7520370  51.9779396  64.9358139  73.7659760  52.0212402  66.4487305
  10.5800962  29.0466232   1.4943751   9.6696234  28.8640118   1.2621604
  10.5493698  29.2733517   2.4238279  80.1931839  37.3586769  81.5355530
  79.5621185  37.9982834  81.8655319  79.9923019  37.2832985  80.6027145
  55.6436310  54.6266861  24.9752827  55.0988884  55.1228218  24.3642654
  55.1819916  54.6876793  25.8115845  62.2000237  61.8043976  33.6889992
  61.9934273  62.4844666  34.3301315  61.3569908  61.3952332  33.4937706
  70.8160858  35.1883202   5.2988129  69.9843903  35.6215782   5.4906583
  71.4588547  35.8975296   5.2886834  35.3926277  16.8274593  78.8152313
  35.8804131  16.0169697  78.6689453  35.9422302  17.5104618  78.4309540
  34.3663902  42.7857399  54.3276253  34.5012474  43.7272758  54.4351196
  35.1593170  42.3876610  54.6868362  43.5429115  64.3889389  78.6084518
  43.7759514  64.1343765  77.7156296  43.2088394  63.5853996  79.0071411
  46.0447540  63.8926163  18.3341541  46.8736534  64.3701630  18.3008938
  46.2732124  63.0421104  18.7092190  77.8855667  62.0149841  35.1788673
  78.5397949  62.3441391  35.7952042  77.0853043  61.9366684  35.6981773
   8.4250937  18.6309624  75.4860840   8.6473951  17.7773685  75.1143417
   9.2703466  19.0290394  75.6941986  43.1282425  57.6734161  70.6450806
  43.3991547  58.5868416  70.7372284  43.4175072  57.4252090  69.7670364
  18.1508198  22.6856022  12.9032488  17.2254486  22.8816547  12.7566795
  18.5181065  22.5926533  12.0242186  67.5536346  31.0215702  76.4135056
  66.8751297  30.9062710  75.7482529  67.8903198  31.9046459  76.2616806
  54.5000458  39.5522079  47.4060936  53.6909256  40.0567856  47.3226585
  55.1865501  40.1496429  47.1094246  14.9934502  22.6886082   9.1325274
  15.1895237  23.0360832   8.2624426  14.9412394  21.7412567   9.0059223
  71.9500656  31.2888069   7.6882219  72.1786880  31.0297241   6.7955632
  71.9062576  32.2444763   7.6564612  72.2573090  19.0237923  26.3504276
  71.7260971  18.7244339  25.6125717  73.0961761  18.5765228  26.2386761
  73.4872055  54.4364281  88.0011215  74.0158691  53.9847412  88.6589432
  73.5880585  55.3652534  88.2093201  10.0903339  21.6112289  61.8053741
  10.2078762  22.1657658  62.5766754  10.8339167  21.8243847  61.2415657
   5.5090809  28.4505844  30.7868748   5.8550854  27.7761879  30.2023220
   5.6345844  28.0930290  31.6658707   7.9677157   1.6689391  77.2738037
   7.5438638   1.1191337  76.6147919   8.1384945   2.4954886  76.8222733
  41.6211929  62.7658615  25.2690887  41.9506340  63.0680885  24.4227066
  40.9985085  62.0726662  25.0500641  59.3043060  24.5181332  22.8796577
  58.6029053  24.1145363  23.3909073  59.2371178  25.4524384  23.0766106
  34.2197151  19.1712132   4.1572480  34.0354652  18.9556789   3.2430112
  33.8675537  20.0539951   4.2708678   7.0783715  48.6876183  45.7596169
   7.3655581  48.2349548  46.5526161   7.1111026  48.0179939  45.0764198
  78.0580750  51.4189568  48.4272614  77.5088348  52.1437187  48.1284523
  77.8701401  50.7077179  47.8148460  13.8764496  55.0807495  87.4180145
  13.7959414  55.4306030  88.3053436  14.3748693  54.2704964  87.5243301
  77.4739304  42.8481140  46.2090569  77.4606247  43.3920631  46.9965706
  76.5867996  42.4939270  46.1475868   9.1828928  69.6152267  52.4531784
   8.4109898  69.0494156  52.4370308   8.8833094  70.4168930  52.8819160
  69.1618347  37.3061142  29.5849075  68.4854355  37.2576141  30.2604523
  68.9413910  38.0895500  29.0810585  81.0427170  67.7310715  42.1549034
  81.5359955  66.9109116  42.1708717  80.8109360  67.8890228  43.0700836
   2.2265134  71.1999741  42.2416916   1.4855870  71.1491699  41.6378059
   2.5139585  72.1116409  42.1919594  79.9018478  39.4353485   2.2375937
  80.2075806  39.7125626   3.1012561  80.0658264  38.4925308   2.2167103
  61.2481613  66.6115417   7.8498607  60.3137856  66.4069290   7.8860297
  61.4886932  66.4717102   6.9339871  57.6551819  46.4701920  55.6367340
  57.6064453  45.9801407  56.4575310  57.6873360  45.7967606  54.9572601
  86.7242203  70.0643768  39.8342705  85.8626862  70.4377747  40.0202026
  87.0991440  70.6451340  39.1721611  72.2864075  26.9837341  44.8270111
  72.2534485  27.3370667  45.7159996  72.9399719  27.5213127  44.3796883
  54.4784088  70.7649460  55.7587852  54.1580849  69.8903275  55.9793968
  54.1296082  71.3289337  56.4490700  67.0187988  49.5605354  40.7721786
  67.7793884  49.7691803  41.3145866  67.0427551  48.6078568  40.6823807
  72.1537323  44.7193489  16.5254631  71.8215332  45.1367874  17.3202133
  71.3717270  44.3871460  16.0846176  67.5292206  16.1827908  53.7370682
  67.2993546  15.4582052  53.1553726  66.8600159  16.1623001  54.4211578
   7.6004653  71.3706284  61.7750092   7.5499358  72.2849960  62.0535851
   7.5767860  70.8701096  62.5905800  15.1471844  48.2284927  16.0049763
  15.3573532  47.2969933  15.9388733  15.6680107  48.5395813  16.7453785
   9.3843594  35.9538574  33.5305252   9.1674852  36.4634628  34.3112297
  10.3005123  36.1665115  33.3525543  45.4381752  19.5715675  50.8806381
  45.5706520  18.9106541  51.5602531  44.6075439  19.9881363  51.1103172
  29.2561035  65.1730957  31.6651649  29.7768135  65.9106827  31.9830608
  28.4057789  65.2786865  32.0918159   8.7973051  44.3518066  23.2095013
   8.2893562  44.2378426  22.4062366   8.8172636  43.4807587  23.6058712
  84.8749924   2.9397597  21.4470253  85.5057144   2.4319484  21.9574661
  84.0232620   2.5752394  21.6876736  40.7153244  52.9663010  72.5195465
  40.0927429  53.4436226  73.0679855  40.5772362  52.0464249  72.7453613
  50.9441566  34.8662796  67.9776077  51.1405525  35.7639999  67.7097397
  51.3530884  34.3209190  67.3056107  47.1975098  69.6056595  48.8095932
  46.5071220  70.0819702  48.3483734  47.8799706  70.2596512  48.9605026
  32.0812149  21.2396774  13.0793123  32.5628090  20.6884766  12.4624844
  31.3899307  20.6714115  13.4190683  45.5795746  51.1438599  12.2965269
  44.7988091  50.9719276  11.7701473  46.2664223  50.6197586  11.8844690
  55.3591003  27.6237621  68.8725891  56.0452042  27.3927479  68.2463913
  55.7874718  27.5723267  69.7270355  84.0173492  17.1416206  30.5088768
  84.1040344  18.0527077  30.2284508  83.8660049  16.6549931  29.6986160
  62.3820648  16.3442688  61.6435356  63.0741234  15.8810272  62.1154404
  61.5745506  16.0846329  62.0870857  51.2906342  66.9069061  24.2841778
  50.4890823  66.6849899  23.8103657  51.2718048  66.3485413  25.0614204
  52.3711433  62.6691475  71.9297867  51.8113899  63.4179268  71.7242661
  52.4947815  62.7156067  72.8778305  41.1505814  59.4482536  41.3122978
  40.8751602  58.9682732  40.5312767  41.4183769  58.7675819  41.9297142
   0.9240664   3.3434181  85.4928665   1.3591299   3.0737486  84.6840286
   0.4669981   2.5575666  85.7924652  53.4710999  61.0682793  20.9847298
  54.1468697  61.3968430  21.5777016  53.9138870  60.3971405  20.4653625
  15.1315641  55.3124504  21.0958366  15.4236717  54.9267197  20.2699337
  15.4457264  56.2160149  21.0625343  55.6312141  52.7068520  74.0923462
  55.8221436  53.5338516  74.5348969  56.0581512  52.7874794  73.2394409
  31.2796440   8.2534151  69.0355759  30.6927147   7.5023475  69.1230087
  31.5782833   8.2194958  68.1267853  11.9247046  61.2784538  15.7035389
  11.4048214  62.0404510  15.9591103  12.1235962  61.4235268  14.7785378
  72.7990417   1.1520697  81.7992859  72.4057388   1.6455271  81.0795288
  72.4746323   0.2590774  81.6828537  83.5045013  39.6652679  68.2153397
  82.7406464  40.1106262  67.8487167  83.2023087  39.3256111  69.0576859
   2.7525036  69.3416061  38.0907936   2.2751293  70.1439056  37.8794518
   3.6689715  69.6137161  38.1384735  25.2047939  32.9505882  55.4745674
  24.9288101  32.0560341  55.6741676  26.1375999  32.9668579  55.6886635
  58.7742462   8.8452291   1.6049929  58.5078163   8.2059393   2.2657156
  59.5546074   9.2593946   1.9734149  79.8278580  16.5362930  35.0912285
  80.5270996  15.8913422  34.9847374  80.2755356  17.3818665  35.0624619
  -0.0519869  58.2099648  71.0498886   0.7759827  57.7582436  70.8866501
  -0.5179976  58.1650314  70.2149963   2.0624475  15.1919127  61.5596581
   1.1293039  15.1440945  61.3518410   2.3503661  16.0216789  61.1791039
  73.2141724  61.1662025  44.1333008  72.5614777  61.7768631  44.4758072
  73.8744202  61.7257881  43.7244377  20.1078224  52.5698051  33.4885674
  19.7634296  52.7609940  32.6161690  20.7787781  53.2370911  33.6327248
  37.3193359  36.1137886  25.4944286  37.4808617  35.1709290  25.5284557
  36.8269272  36.2433319  24.6838818  34.9824066  21.8813229  74.3103867
  35.5685806  21.3021336  73.8233795  34.3240166  22.1496983  73.6695023
  53.5082207  26.9988194  25.4452114  54.0306625  26.6920834  26.1862926
  52.8449173  27.5660763  25.8382492  20.5114384  63.1688423  68.8539963
  19.8625336  63.3229408  69.5405884  20.6138115  62.2174263  68.8303757
  78.9367599  46.1947670  76.1553879  79.7558823  46.6892891  76.1285629
  78.8572540  45.9122810  77.0664902  21.4969330  62.6734962  11.3162251
  22.3754864  62.4558258  11.6276674  20.9115829  62.3297920  11.9911041
  84.3263474   1.2266134   8.3479986  85.0746155   1.8167697   8.4376612
  84.6621780   0.3715032   8.6167707   5.3679795  69.3411789  68.8675232
   6.1561012  69.8328094  68.6364441   4.7095017  69.6344223  68.2377167
  76.1077118  70.4765854  45.8414917  76.5985413  71.1538773  45.3760986
  75.5722885  70.9589767  46.4714508  69.1659622   9.8965521  20.0241222
  68.2305298  10.0708628  19.9200878  69.3490067   9.1923914  19.4021206
  80.1070633  30.5845757  65.3497696  80.5396194  29.8331928  65.7554092
  79.1726532  30.4203491  65.4768066  46.5259323  12.9096498  59.8074226
  45.5999565  13.1514368  59.7889977  46.5589104  12.1299801  60.3617325
  54.7466583  17.4330368  72.1779022  54.1831322  16.7120838  71.8970184
  54.4742622  18.1745472  71.6373520  80.4967346   4.9543567  82.3445892
  80.9821320   5.4360251  81.6748047  79.7379227   4.5992684  81.8815994
  84.1663666  64.7019730  85.5745773  83.5103149  64.0068741  85.5228729
  84.9819107  64.2465134  85.7835617   6.1395555  50.8842735  31.5844955
   5.2697062  50.6077766  31.2961521   6.5217204  51.3109283  30.8175869
  67.3873291   5.6418290  13.2402782  66.9212265   6.4354649  13.5031948
  68.2915497   5.9273276  13.1094942  41.6795464  37.6922684  47.3941803
  41.0689163  37.9394112  46.6997147  41.7990608  36.7490273  47.2835426
  73.9250107  19.4419670  67.9861832  74.5774765  20.0523376  67.6427155
  73.4296646  19.1626072  67.2162323   5.1897931  47.3345146  53.0570145
   5.2592955  46.4554291  53.4293213   5.8938417  47.8287773  53.4768410
  39.1170845  43.2997971  87.9074860  39.2810860  44.2323570  88.0477448
  38.9995346  42.9422646  88.7875900  65.8766251  25.0107250  86.7824097
  66.1146317  24.7706089  87.6779099  64.9503250  24.7803383  86.7108078
  43.6650543   6.5502663  60.3148689  43.5183678   6.3590999  59.3884926
  42.8908310   7.0452704  60.5827942   3.5678389   6.2266946  29.3053036
   3.7617612   5.4411807  29.8167667   4.3366013   6.3451047  28.7474384
  73.8434067  26.0094624  86.3227310  74.6741638  26.1736889  85.8765182
  73.9364395  26.4449902  87.1700134  40.7208786  51.6031570  34.7435188
  40.2128868  52.2971077  35.1637650  40.0655556  51.0526619  34.3148651
  57.9397125  11.2653275  87.9440536  57.0418358  11.4663286  87.6801376
  57.9133911  10.3433962  88.2001419  70.3192749  10.8331175  87.6919632
  71.0882797  11.0273247  88.2278137  70.5926895  10.1032791  87.1362534
  63.0578995  70.8898087  12.4329844  63.7789574  70.5917130  12.9874620
  62.9046021  71.7945709  12.7052755   3.4801207  58.8927841  18.0195656
   4.2456965  59.0165367  17.4584866   3.8433852  58.6370735  18.8674355
  70.1633224  12.0611620  68.3787994  70.6169205  11.2185316  68.4001617
  70.7122879  12.6146765  67.8233795  30.4888401  51.1729240  84.4880295
  31.3002453  51.6604424  84.3459702  30.4882488  50.5041084  83.8032608
  44.3393440  59.7788925  79.0801239  44.0100632  59.7004929  78.1847687
  45.0707588  60.3927460  79.0134430  48.2823792  38.8139267   2.2901392
  48.3399353  37.8973808   2.5600762  48.2665024  39.3050041   3.1116154
  72.6453323  58.0341759   2.0238380  71.8408890  57.8830872   2.5201025
  73.1672974  58.6094856   2.5831239  50.3120346   5.8460937  86.6200867
  49.3798103   5.8993616  86.8306808  50.4448967   6.5165606  85.9499741
  84.3246231  12.7619314  45.1735916  83.6818924  12.3646021  44.5860062
  83.8686981  13.5120726  45.5552330  61.9020004  68.2410583  46.1564636
  61.6936836  69.1533813  45.9552155  61.0502815  67.8081512  46.2147522
  11.1129332  51.4596825   5.8123474  10.6692781  51.6906204   6.6284790
  11.0429993  52.2459488   5.2709332  63.7944908  25.1192169  46.2637329
  63.6092606  24.9573898  47.1887932  63.9934006  26.0544682  46.2193375
  74.0172424  64.3457870  43.1421471  74.5197296  64.9864731  42.6388931
  73.2286530  64.1966782  42.6204872  54.4409714  52.8072701  56.2199211
  54.5338058  53.6853828  56.5894318  53.8576584  52.9234467  55.4699364
  60.7992249  12.9435539   7.1900821  60.5334663  12.5132904   8.0027790
  60.0565453  12.8190260   6.5991912  76.0460510  50.7719460  18.4903297
  76.6385880  51.4972992  18.2928505  75.5416641  50.6489716  17.6861515
   2.4404638  40.8792419  83.9958801   1.6443952  40.9733391  84.5189972
   2.5797164  39.9338989  83.9395828  52.1472702  59.9961929   6.6099129
  51.5390167  59.8674316   5.8821216  52.9275017  59.5009727   6.3604546
  66.7924881  21.3530579  62.8799438  66.3925171  22.1215229  63.2870216
  66.1939545  20.6346989  63.0847626  83.8142242  68.0167542  40.6667442
  83.0339813  67.8245544  41.1868515  84.2039566  67.1597366  40.4939156
  50.7709198  68.9904404  48.7316208  50.7310066  68.3107224  49.4043884
  50.4826775  68.5521774  47.9309502  49.8931999  27.7917500  29.9486847
  49.9577103  27.8758411  30.8999996  49.3359451  27.0253620  29.8132248
  83.0228958  56.4973946   4.5231080  83.1852188  56.7296486   3.6088099
  83.6124878  55.7624588   4.6918492  79.1810150  32.5345535  57.5780907
  78.4065094  32.0395279  57.8451462  79.8602448  31.8707085  57.4589806
  52.7768860  58.8884583  72.4745407  53.6238747  59.3058243  72.3175583
  52.5864830  59.0716057  73.3945618  29.2903767  63.1742935  43.8367043
  29.9761524  62.5201988  43.9712524  28.7032413  63.0630341  44.5844498
  53.0497093  56.4052353  20.1451588  52.1194801  56.5233612  20.3374043
  53.1650581  55.4564018  20.0937805  57.1738625  67.0105362   5.0936708
  56.4103127  67.5513458   4.8918161  57.3898773  67.2298889   6.0000114
  62.3178101  37.3196716  68.0190430  62.0319214  36.8891373  67.2133484
  63.2737122  37.2858505  67.9824753  69.5695419  51.7873878  39.6228752
  68.9338760  51.0718155  39.6339989  69.2778244  52.3777122  40.3176041
  57.8405075  55.5726128  23.1314259  58.5603676  55.8121490  23.7150841
  57.1347580  55.3036270  23.7194672  16.1525974   7.7351160  61.1514015
  15.4465504   7.8101630  60.5094528  16.1648636   8.5836315  61.5942383
  61.6211815   1.1689073  43.9341927  62.0441360   0.5149727  43.3776741
  62.3182526   1.7895346  44.1466560  68.4609299  50.2967491  36.5711975
  68.7284698  50.4529877  35.6655235  67.7350311  49.6765556  36.5029144
  46.6613770  54.9758568   4.4090743  46.9251328  54.0921555   4.6654682
  45.7857895  54.8663368   4.0381513  35.8303452  44.5222473  74.4585419
  35.4818916  43.8134346  74.9992828  35.1823997  45.2226334  74.5351105
  52.2145386  19.5211792  61.7287178  52.2270012  20.1248817  62.4714279
  51.5343437  19.8666744  61.1506195  29.7612133  61.2658882  29.4161377
  30.1649399  62.1311493  29.3486233  30.3841972  60.6770172  28.9902802
  83.8267441  24.2518978  72.6760635  83.7584915  24.9771519  72.0551147
  84.0014648  23.4850826  72.1304474  25.6975384  44.5201988  24.8263550
  25.7188206  43.7933731  25.4488525  24.9684944  45.0662498  25.1205559
  11.6090412  29.3979359  62.2783699  12.0218954  28.5426884  62.1586304
  11.8336248  29.6489716  63.1743431  80.2878418  45.9877586  52.9835091
  79.3950806  46.3250504  52.9097290  80.8447723  46.7590370  52.8777466
  46.7084732  31.1621323  84.1019363  46.8123817  30.6151600  83.3233185
  47.5544395  31.5984974  84.2027359  84.3266983  66.4869232  74.8608780
  84.5768356  67.3360672  74.4967041  85.0762177  65.9192200  74.6815186
  70.5063477  52.6117401  78.2982712  70.7874069  52.6013374  77.3833237
  69.8166046  51.9496536  78.3444977  82.5777969  46.6668358  71.1093063
  82.6347809  46.6833267  72.0646667  82.9549637  45.8227234  70.8614044
  69.2832413  67.4503403  74.9092789  69.8550415  67.0473099  74.2559509
  69.1276627  68.3349380  74.5783386  46.3219261  35.2336731  61.2130318
  47.0622711  34.8386383  61.6735458  46.5652275  36.1540833  61.1135941
  62.0643234  19.6064034  44.9989243  61.3197365  20.2076206  44.9800110
  61.8061752  18.9248867  45.6195068  58.1793594  64.3436737  42.8530769
  59.0888786  64.1682053  43.0943718  58.0214996  63.7852058  42.0918732
  75.4656143  62.6441383  55.8972626  75.6072540  61.8605957  56.4285126
  75.6092758  62.3523293  54.9970169  70.3987579  26.2598763  56.4482727
  70.4104691  27.2161732  56.4084244  70.6203384  25.9804096  55.5599937
  70.7471619   4.0680704  59.3865204  71.3498383   3.3940620  59.0723114
  70.1380310   3.5980773  59.9559937  78.7853470  23.8430595  87.4673843
  78.7554016  23.7270737  88.4170609  78.5370636  22.9889030  87.1138229
   7.5847936  22.2434921   3.0899365   6.6448755  22.4209194   3.1260800
   7.7718573  22.1322002   2.1578135  37.5095558  15.5051785  85.3464279
  36.7525444  16.0901108  85.3783188  38.2582588  16.0721016  85.5315628
   9.5764751  63.8643990   4.8326626   9.3909321  64.7771530   4.6120057
  10.4488745  63.8856506   5.2259812  16.3052387   7.8070211  70.0293732
  16.6188908   8.4551878  69.3987122  16.9946499   7.1434312  70.0537567
  21.8853111  56.8740425  12.8816910  21.4857864  57.5588036  13.4180784
  21.1468277  56.4531059  12.4415941  42.0481300  16.4716282  88.8863525
  42.0863800  16.6356068  87.9440765  42.4721375  17.2343845  89.2796097
  24.9142399  52.8271599  87.4367981  24.8241005  51.9097176  87.1790924
  24.2744980  53.2915192  86.8970413  70.9777527  60.5057678  24.4413528
  71.7173080  60.0014420  24.7803993  71.3686218  61.1078529  23.8081532
  74.1402435   7.0498543  73.9268646  73.3616638   7.5612550  74.1471405
  73.8526611   6.4660826  73.2249146   0.5360183  60.9461632   6.0725384
   0.8334242  61.6210861   5.4624062  -0.0165698  60.3712883   5.5430150
  34.0006142  57.8363495  85.0683136  33.1905289  57.9199066  85.5713120
  34.3029785  58.7367859  84.9499054   7.0444431  67.0123901  14.9168119
   6.1035037  67.0293198  15.0916786   7.4492912  67.1785965  15.7681084
  73.1120529  70.2168732  44.3542786  74.0560532  70.2605972  44.5065269
  72.7744217  69.7046585  45.0890388  79.4120331   4.2069736  45.4039536
  79.0657654   3.3510478  45.6563835  78.8066406   4.5217586  44.7326546
  29.4832935  30.2033138  11.2020035  30.2233810  29.6813087  11.5118608
  28.8363781  30.1425476  11.9048834  13.0909414  40.0755882  34.1686668
  13.3170271  39.1703529  34.3823586  12.1579819  40.1437378  34.3715820
   0.3102706  14.0064268  51.2744904  -0.0730357  14.4168510  52.0496445
   0.8298950  14.7001705  50.8683586  59.0785866   4.1105223  48.4264908
  59.5980988   4.7721496  48.8832054  58.3055038   3.9903574  48.9779778
   3.0183706  37.8187790   1.6487975   3.2818992  38.4001541   0.9355055
   2.0928872  38.0178375   1.7905306  77.9922562  30.5425282  60.9850159
  78.1633682  29.6705685  61.3408813  78.3331223  30.5075817  60.0912476
  73.4076996  57.8052368  71.8115845  73.5461807  57.4575768  72.6926041
  73.3912048  57.0313148  71.2485504  39.7198257  38.0306091  45.7289772
  38.9023743  38.3378754  45.3370705  39.5694580  37.1006126  45.8984680
  75.2982864  19.3277836  26.7248383  75.3524246  18.4094868  26.4602013
  75.5401459  19.3248062  27.6509743  32.1150017  60.3689194   4.8371959
  31.1612015  60.3154411   4.8975143  32.3554611  59.6748924   4.2234068
  63.2885399  37.8753319  34.2434998  62.4975586  38.2049789  34.6700134
  63.0413666  37.7763672  33.3240776   9.5471487  47.8571091  35.1443634
   9.0053053  48.2258606  35.8419724   8.9399204  47.7179794  34.4176254
   3.0659463  43.4343262   5.8714137   3.3761411  43.6050339   4.9821043
   3.7222660  43.8420792   6.4364052  59.1468735  21.2521572  41.2385483
  59.0239334  21.2470417  42.1878090  58.3601799  20.8304272  40.8928757
  51.2717018  48.7601166  19.0967922  51.5568237  47.9301453  19.4790020
  50.8862076  48.5163689  18.2552395   7.6604958  32.7664223  60.2403145
   7.4363294  31.9292259  59.8340111   8.5982103  32.7014275  60.4211426
  10.3751793  64.8556824  29.6202259  10.4935694  64.1765823  28.9561157
  10.5524149  64.4126816  30.4500294  53.6750793  66.0065079  71.3774719
  53.6670189  65.8527374  72.3222046  53.0200500  66.6909332  71.2406158
   0.5674149  53.6730843  40.1133461   1.2598624  53.9413109  39.5093575
   0.2432811  54.4932289  40.4855423  86.5831909  65.0273590  63.2563248
  86.2583847  65.8605042  62.9148560  86.6846008  64.4742432  62.4817200
  36.5857201  53.4609299  41.0723457  36.1413803  53.1822548  40.2716370
  36.1734924  54.2950630  41.2971230  61.6387978  24.3932476  69.2534180
  61.9286232  25.3054428  69.2419891  62.0150757  24.0124283  68.4599304
  55.7452354  57.9072418  36.5581703  55.1583748  58.5523529  36.9527092
  56.3364296  58.4242973  36.0110207   2.0691390  56.8796577  70.2499466
   1.6274725  56.0563622  70.0417480   2.7983947  56.9233093  69.6314697
  70.5271225   8.9483147  65.4808197  70.8162460   8.0962944  65.1541672
  69.5960617   8.8294888  65.6685257  71.9131470  70.4285507  62.6797752
  72.0683823  71.2532196  63.1402626  72.7526398  69.9703827  62.7194214
  24.7625713  48.1859665   5.3135123  24.7709007  47.2717896   5.5971375
  25.2639866  48.1883507   4.4981542   3.3206313  11.2058067   9.8349180
   3.2302833  10.8039579  10.6989708   3.7100317  10.5206385   9.2916479
  69.9626083   0.6404185  44.4677277  69.3066635   0.1209960  44.9326668
  70.8014755   0.3122903  44.7915459  14.6000853  40.0553436  24.7840443
  14.6902227  39.4014664  25.4772606  14.3854704  40.8658867  25.2457771
  65.1730270  17.1712170  34.9588547  64.7112274  16.7391701  35.6774025
  64.9198685  16.6763897  34.1795654  84.2668839  47.4195518  81.1189957
  84.2044220  47.9587135  80.3305588  83.5122910  47.6796036  81.6473846
   0.7517661  58.1164322  48.5739365   1.4786309  58.5579033  49.0132561
  -0.0026046  58.2742615  49.1416016  53.3037262  44.0131340  48.8201828
  52.4719658  43.5546761  48.7009239  53.5119553  44.3609810  47.9530754
  28.4157238  63.1292114  16.4765415  28.9509182  63.1840591  17.2682438
  29.0314484  63.2833443  15.7600517  52.3061943  22.7128239  44.4011536
  52.6627617  23.4908161  44.8298950  51.3718719  22.7322178  44.6082726
  61.9171944  42.1187134   1.3920747  61.3306923  42.5381279   0.7625184
  62.6944275  41.8922997   0.8813177  67.7702789  47.1597176  52.1986923
  67.2616882  46.5526886  52.7363548  68.6018295  47.2524834  52.6636124
  28.8072262  27.7760258  17.4290962  28.4598179  28.6654358  17.4960976
  29.7227707  27.8949165  17.1763592  53.4559021  26.6554661  13.0545092
  53.9560776  27.3264885  12.5899811  53.1686478  27.0855217  13.8599710
  69.7985077  12.8837471  59.2698479  70.5451813  13.2242975  58.7771721
  69.0694351  13.4530621  59.0237541  85.0417023  19.3368206  65.9645081
  85.0104752  18.7698498  66.7350922  85.9542236  19.6212788  65.9132690
  53.5853729  13.8876762  36.8416748  54.1987572  13.2698965  36.4437599
  52.7970047  13.3702412  37.0059013  76.8071442  51.7930069  26.6977253
  76.1304626  52.4291534  26.4660892  76.3523788  51.1446228  27.2353230
  72.9072876  67.3580856  27.0436172  72.4714279  67.1686325  27.8745022
  72.7637482  68.2943878  26.9058838  49.8244858  53.1558380  26.9648457
  50.2487259  53.5193367  26.1875954  49.7056694  53.9069138  27.5462189
  82.2576370  65.3980560  22.6383114  83.0708313  65.5499954  22.1567860
  82.0274277  66.2554703  22.9961929  84.5674133  49.3135719   8.5831070
  85.2241287  49.9747810   8.8016472  83.9927597  49.7462959   7.9516349
  74.1626053  68.8138733  62.2952309  74.3240967  68.3638000  61.4660225
  74.4675064  68.2006149  62.9639511  54.7303543  15.3888407  44.5566025
  54.1966171  15.4742899  45.3465729  55.0552635  14.4888649  44.5832596
   9.1996708  50.2701187  65.9830551   8.9003735  49.3612366  66.0072861
   8.5770340  50.7120056  65.4057388  75.0351257  60.3465805   5.3052402
  75.4510117  61.0949173   4.8771486  74.7376480  59.7926674   4.5834956
  44.1156998  32.7913628  26.1115456  43.3547707  32.3663635  25.7158241
  43.9010963  33.7241440  26.1017570  38.7350006  42.3114014   1.3574615
  38.7224388  41.3551178   1.3174825  39.4123535  42.5152855   2.0023291
  18.4933777  32.4622574  21.4464188  18.7541656  32.2681503  22.3467216
  18.6029930  33.4096031  21.3642712  27.7009125  39.5964241  42.1303673
  27.9996510  40.1904640  41.4418144  28.2638454  38.8271065  42.0438461
  76.2758713  57.6587830  70.2657318  75.5064774  57.5510330  70.8248901
  76.5030899  58.5850754  70.3468628  74.2397232  46.4937172  40.7455368
  74.6496048  47.3583908  40.7693138  74.5296707  46.1139336  39.9161263
  58.4172058  11.4301033  41.0099564  57.9517517  12.1707802  41.3985214
  59.2404060  11.3828478  41.4961052  24.3431492  61.9779510  61.1639824
  24.0187721  61.1104393  60.9222488  24.0105495  62.1196175  62.0502892
   9.1166258  45.4552956   7.3085370   8.4974194  45.8933258   6.7246327
   8.6135988  45.2813301   8.1041069  74.5003738  42.6755028  35.6874161
  75.2194748  43.0745010  36.1772423  74.2793274  43.3221321  35.0171585
  12.9371929   6.0346999  57.2879105  13.8019409   6.1061053  56.8837509
  12.3849573   5.6522269  56.6060143  48.2332687   5.3993454   4.4242897
  47.6348648   6.0786719   4.1133833  48.1435623   5.4189038   5.3770761
  75.4992676   2.5463288  61.1481781  76.0422745   3.2774272  60.8534393
  75.9254837   2.2386756  61.9481277  19.6124611  62.6613007  79.4226074
  19.4122829  63.4033241  79.9931946  18.8568001  62.5976067  78.8385315
  19.9193707  57.0716858  57.6346626  20.6557999  56.8166885  58.1904335
  19.6990585  56.2766304  57.1492958  78.2083130   5.5921249   1.4442481
  78.2184601   5.4781642   0.4939104  78.4104919   4.7234755   1.7918141
  28.5893230  16.5141430  79.9625168  28.5936661  17.4678516  79.8809280
  28.2719460  16.3511810  80.8507385  72.2395401  65.6670685  20.4269638
  72.0701599  65.2418594  21.2676430  73.1234741  65.3862228  20.1903000
  68.6075516  19.6343899  57.9936371  69.4299469  19.1924648  57.7824364
  68.2807693  19.9480343  57.1503868  74.1953735  71.0646057  11.3543367
  74.7813568  70.8790894  12.0881195  74.6266022  71.7732010  10.8766680
  70.4673920  61.1422958  12.1817560  71.3154221  60.8128433  11.8841972
  70.2841644  61.8855553  11.6071062   6.9483967  19.2478294  56.7366180
   7.0606475  20.1977329  56.7003441   6.0745759  19.0959892  56.3766022
  27.8087730  44.8797150  33.8814735  26.8781319  44.7218208  33.7227097
  28.2580032  44.2439041  33.3245468  21.1003933  64.5594177  40.3839035
  21.7292862  65.2211838  40.6716423  21.1440926  63.8792343  41.0559692
  11.6793299  52.4550095  74.6027832  10.7569256  52.3294411  74.3799896
  11.7695007  52.0709991  75.4749298  68.5508347   6.5402384   5.4374175
  69.2748337   6.6314607   4.8179588  67.7985992   6.9212651   4.9844370
  66.3700333  60.3009949  67.6378708  65.9296188  60.8994484  67.0344467
  67.2373047  60.6852798  67.7659302  81.0148315  42.8735695  35.0144157
  81.9346848  42.6365395  34.8964195  80.7496414  42.4148102  35.8115616
   6.8851810  67.3345108   8.7332182   7.3649864  66.5302277   8.9310770
   5.9636345  67.0921097   8.8239250  56.8331642  44.6007042  25.3324547
  56.2389946  44.6385651  26.0819607  57.4620285  43.9157829  25.5597038
  46.9406662  32.1651001  21.8852539  46.7136154  31.2361431  21.8438129
  46.2789688  32.5976944  21.3455772  17.2113838  38.1298180   5.0686421
  16.4328938  37.9526596   5.5966563  17.2333393  37.4187393   4.4282393
  71.5475235  47.8423843   3.0994105  71.8362427  47.3505440   3.8681562
  70.6535873  47.5383186   2.9423771  38.4460793   5.4388041  67.8139801
  39.0924301   4.8469110  67.4291153  38.7600784   5.5892620  68.7056122
   4.5231671  33.0908775  32.9429436   4.9984007  32.4004135  32.4807243
   3.6044259  32.8282394  32.8866653   6.9661446  38.4570808  56.1054802
   6.8618827  38.1523285  57.0068626   7.6237311  37.8719673  55.7293777
  47.2115211  68.1832428  62.7124100  47.3136444  69.1129761  62.5089417
  46.8951912  68.1690826  63.6157188  23.7289486  67.4915314   7.0281062
  24.5296745  67.9229050   7.3264036  23.3426857  68.1075363   6.4055586
   9.6275225  43.5651436  66.9442749   9.7547607  44.4554520  67.2719803
  10.5020905  43.1764526  66.9610977  85.4496307  17.7000885  67.9673920
  84.7138138  17.1049652  68.1110611  86.2234039  17.1379395  68.0060043
  53.5547295  62.9136658  53.2737350  53.6488190  62.0920067  52.7918053
  53.4559364  62.6455421  54.1872902   1.4588445  70.2776794  71.2594833
   1.1842699  71.1940308  71.2256622   1.7405949  70.1453171  72.1646500
  86.0459595  65.3034363  67.4734039  85.7424927  65.8565750  68.1932449
  85.8137283  65.7904739  66.6827698  57.5597382   8.9742680  64.4526672
  56.8406029   9.1418514  63.8435783  57.1319847   8.8499746  65.2999039
   5.1049004   0.6563547  28.1915150   4.2629209   0.2933702  28.4663696
   5.0132298   1.6000569  28.3228722  82.5469284   0.1651735  18.5342999
  81.9437943   0.2525952  19.2724209  83.4161606   0.1561568  18.9350319
  26.5473499   2.8379362  88.0950928  26.1582432   1.9671234  88.1757889
  25.8955364   3.3478894  87.6141357  25.6876678  12.9590797  14.1748085
  25.5609035  12.2430639  14.7972908  24.8178349  13.1125889  13.8059492
  56.6991310  46.8164368  23.8552742  56.7008896  46.0010567  24.3566589
  57.3357582  46.6689034  23.1558647   0.8267100   2.0194180  21.4319954
   1.4074497   2.7781930  21.4888630   1.2806251   1.4137799  20.8459969
  17.6072578  10.0161686  10.6975374  16.9292774   9.3444891  10.6239090
  17.7725105  10.2895994   9.7952299   3.4367342  46.6649208  62.2545090
   3.2635429  46.2787056  63.1130371   4.3226848  47.0201797  62.3260078
  75.7372665   8.4225197  76.1158142  75.1039658   8.1760969  75.4416885
  75.6681137   9.3755350  76.1724930  43.2319450  54.9070892  74.0975342
  42.4113274  55.0409622  74.5717697  43.8187447  54.5105286  74.7414627
  17.1977253  39.9661179  36.3432846  16.7940464  39.1041527  36.4447289
  16.8976784  40.2718697  35.4872932  68.7423248  60.0610237  77.2770004
  67.9165726  60.3771477  77.6436615  69.0597076  60.7873077  76.7403336
  37.7643242  17.1656017  16.9141006  37.4126472  17.0539474  17.7973270
  37.2511635  17.8822212  16.5407963   2.8643088   2.3972290  42.1426773
   2.3261478   2.8906279  41.5236702   3.3298380   3.0676646  42.6427078
  37.2220993   6.0542479  15.1516743  37.7823219   5.4768481  14.6330309
  36.8884010   6.6932135  14.5219116  11.2080488   8.0651598  17.9883537
  11.1471844   9.0179129  18.0575562  11.0675097   7.7506852  18.8814316
  71.8380432  66.7461929  51.9019852  72.6406860  66.7419357  52.4235001
  71.6003799  65.8225403  51.8206329  70.4592972  15.8491459  88.9414062
  69.6056290  15.8850288  88.5099030  70.7253799  14.9324417  88.8700790
   1.2168012   8.0402231  19.2850323   1.5066755   8.7368565  19.8740196
   0.2633861   8.0360365  19.3699684  33.2741966  39.0541344  69.0299530
  32.6617928  39.7480431  69.2742615  32.8970985  38.2586365  69.4057312
  21.1643505   5.2412152  72.0038757  21.0048904   4.3657908  71.6511230
  20.8694305   5.8350191  71.3134766  50.3358383  10.9920826  34.7855797
  50.3566208  11.6118469  34.0564079  50.6199875  11.5037603  35.5429955
  72.6839752  32.9979668  75.2356415  72.5160904  33.9395370  75.1969910
  73.5729904  32.9272690  75.5833206  49.1963310  33.7020569  86.6647644
  48.3952866  34.2224846  86.7257385  49.8809891  34.3392296  86.4610748
  20.6054707  16.4794121  69.7496643  19.8758659  16.5836754  69.1388931
  21.3872280  16.5279789  69.1994553  43.8370361  52.2646179  64.7866821
  44.3334656  52.9398308  64.3242111  43.0357399  52.1624756  64.2731476
  79.0127029  13.3155146  62.7680283  79.0300369  12.7273664  63.5230217
  78.1517792  13.1743526  62.3741684  84.2509613  33.3165016  29.3187084
  85.0167465  33.2399635  29.8878746  83.9552307  32.4149170  29.1925583
   3.4266262   3.9247031  72.1834717   3.4878993   3.2016075  72.8076630
   2.7812772   4.5183787  72.5672760  85.2378922  64.8979874  71.1746826
  86.0107574  64.6863632  70.6511154  85.1899796  64.1972961  71.8250504
  60.3710480  42.8892212  42.5176506  60.0985222  42.5310059  41.6728783
  61.0776329  42.3114815  42.8060760  79.5017548  37.2619209  11.0353527
  79.9140091  37.9271278  10.4841919  78.5865707  37.2522087  10.7550554
  15.8898277  35.7617683  14.9217424  14.9648371  35.7331657  14.6771898
  16.0685959  36.6896324  15.0745192  56.5256271  27.5037994  34.9041405
  57.1831245  28.1766968  34.7276726  56.0709610  27.8128490  35.6877213
  60.2971840  37.7146454  52.5818062  60.4581375  36.8134079  52.3023415
  59.3999138  37.8956070  52.3018303  83.3046722  30.4086437  34.5509605
  82.4885406  30.1852684  34.9984665  83.9353256  29.7608929  34.8654823
  38.7280197  64.9252548  87.6185913  39.4284019  64.9916916  88.2676544
  39.1737404  64.6715775  86.8103714  59.5290146  17.4412289  84.5039520
  60.0972557  16.6847687  84.6492157  58.6630096  17.1482258  84.7875290
   1.5477196  53.1943359  80.0103378   0.9189609  52.4753418  79.9475708
   1.0406556  53.9758263  79.7903595  65.1445694  13.4945412  19.0225849
  65.8037643  14.0982513  18.6802025  64.8228378  13.0284481  18.2509117
  86.0053329  22.2185345  31.9559860  85.7071915  22.1202621  31.0517254
  85.7211990  23.0972462  32.2077065  16.2149639  22.4221783  79.0932312
  16.2541790  23.3695831  78.9624100  17.0438347  22.2047825  79.5197830
  38.3491135  28.0874062  62.3400345  39.2252007  27.9471321  62.6992340
  37.7611237  27.9525585  63.0832138  33.7691803  55.0840187  10.8565731
  34.3040886  55.5966492  11.4626360  34.1557655  55.2499199   9.9967699
  72.4973679  29.5014305  86.9788132  72.5914536  30.2679977  86.4133453
  72.1586609  28.8176460  86.4009323  56.3950310  36.3368187  71.3008423
  56.9031792  36.5269012  70.5122375  56.1461563  35.4170647  71.2094955
  45.2536392  37.4139824  84.2790070  44.7654915  36.7233124  84.7272491
  46.1322670  37.0514526  84.1657867  11.2148418   4.8897243  11.9309530
  11.7069626   5.3881049  12.5833845  10.8338032   4.1622362  12.4226866
  13.2608948  63.2507286  81.3567352  12.8862391  62.3818283  81.5012207
  13.9731989  63.3132629  81.9930878  56.9685020  14.6522665  48.5046196
  56.7954292  15.5641546  48.7385826  56.8505898  14.6220694  47.5551910
  12.9966774  19.2650261   3.8072591  12.5594559  19.3752193   2.9629095
  12.5688095  18.5047398   4.2011194  51.3962898  53.8164558  22.1033821
  52.1756287  53.4349747  21.6992359  51.0337067  54.3910217  21.4291134
  49.4156342  19.8141766  32.1473465  50.2342796  20.2227592  32.4286156
  49.1031914  20.3703499  31.4337063  37.1724281  69.1110077   1.8140033
  36.7226143  69.0957413   0.9692168  36.5017853  68.8547974   2.4471087
  14.8889704   4.5567331  63.9180984  15.6214533   4.8204846  63.3611984
  14.1187534   4.6392450  63.3557892   3.1657498  13.1637411  53.6164742
   2.4555216  13.2918205  54.2452850   3.3350260  14.0378494  53.2650299
   6.2582941  27.3559971  73.8464508   6.6016784  26.5208111  74.1639175
   5.5794773  27.5917664  74.4787903  18.4630089  42.0728645  15.3289719
  17.8428459  41.3651772  15.1534443  17.9822044  42.6781387  15.8935099
  60.4205399   7.6620994   9.0035515  59.6047211   7.1721654   8.9004335
  60.8734856   7.5517693   8.1675491  40.8734932  15.6376038  84.4389038
  41.0180588  14.7730436  84.8234406  40.0546646  15.5489264  83.9511642
  34.5559998  42.2309837  27.8782177  34.2139091  43.0344315  27.4862022
  34.1573982  42.2002678  28.7479343  77.3562164  37.9674797  75.4847412
  76.5370026  38.3148689  75.8375168  77.5573273  38.5363693  74.7416763
  80.1373215  25.3432102   6.1597404  80.6040649  24.7059364   5.6191239
  79.2153168  25.2184734   5.9348359   7.1820707  20.6923923  88.4591293
   6.9085708  20.4986286  87.5625305   7.5142283  19.8592854  88.7935486
  24.0047436  52.5028992  75.1124954  24.7907066  52.6862144  74.5978241
  24.2776585  52.6322746  76.0207977  43.3748932  29.6750374  59.1761665
  42.9556465  30.5032101  58.9425201  44.2742081  29.7644978  58.8607864
   2.8350728  44.2908363  51.0945091   3.1747468  44.0012093  51.9412498
   3.5087838  44.8799706  50.7550011  11.7742367  42.2908516  53.5448837
  10.8228550  42.3675575  53.4726295  11.9843388  42.6990929  54.3847809
  69.3913193  23.7099438   0.7238503  69.2905197  24.2203732  -0.0795999
  70.3380432  23.6461143   0.8498713  18.5496044  49.7409744  42.9394989
  18.9451141  49.2545967  42.2161446  19.2832794  50.1989136  43.3496780
  50.5910454  12.8796806  32.9148064  50.3007278  12.4487886  32.1108894
  50.1164131  13.7108459  32.9258881  15.9668102   9.2672482   2.6415598
  16.9220772   9.2457647   2.6984358  15.6740131   9.3269339   3.5509219
  26.6312332  57.7994957  51.9881897  26.2759514  57.0501709  52.4662247
  26.2394753  57.7355347  51.1171761  78.5030975  29.2098789  72.3395081
  79.2937775  29.4345551  72.8299942  78.5204468  28.2545834  72.2817154
  75.1698227  44.9544868  11.7305870  75.8361435  45.1872482  12.3771763
  75.3218307  45.5569839  11.0024891  60.1319504  49.9328499  42.8461800
  59.7896614  49.5101967  43.6338577  60.7232857  50.6097717  43.1753120
  22.2033482  59.4798088  73.7490692  21.8281040  58.7908173  74.2974472
  22.9719810  59.7800217  74.2341537  64.2336731  42.9834862  24.1229134
  65.0306702  43.4021645  24.4480820  63.5287056  43.5771980  24.3812943
  48.4541779  63.1932335  66.4312363  47.6317406  63.0114250  65.9765091
  49.0329094  63.5375977  65.7509995   2.6650176  21.6538258   1.9789732
   2.7375584  20.9280777   1.3590871   3.2586508  21.4196777   2.6924200
  73.6335220  70.0699463   8.9419937  73.5430984  70.9454269   8.5656948
  73.3962250  70.1793747   9.8628368  69.8495255  51.0012932  81.5629883
  70.1367493  50.6597176  82.4097824  70.5758133  51.5502090  81.2673111
  15.9097757  62.6836739  74.3629837  16.8162632  62.9461021  74.5231171
  15.6479454  63.1855049  73.5910721  54.9712906   9.4723263  44.1069908
  54.5596733  10.1222363  43.5374107  55.7315178   9.1671314  43.6118660
  65.3407440  43.6333504   1.5963315  64.8936996  43.7224426   2.4380240
  65.2138367  42.7161674   1.3536305   6.8149486  11.2259703  72.6817017
   6.8206205  11.7106457  71.8563004   6.1054745  10.5912189  72.5818558
  66.8013000   6.9567699  77.6544418  67.1217957   6.2545748  78.2205124
  66.2469101   6.5128818  77.0126877  81.9189301  31.7424068  32.3161049
  82.4787521  31.5800076  33.0753555  81.0387344  31.8300571  32.6818962
  59.0885086  65.0863037  70.0042953  58.7476997  64.2231522  69.7696762
  59.8481712  64.9018250  70.5566635   6.9392929  34.7305183  45.0603867
   6.1475458  35.0683899  44.6418037   6.6652017  34.5136642  45.9514961
  69.7067871  39.1977272  58.2869492  70.2429886  39.9075356  57.9335594
  70.2361374  38.4106979  58.1580849   3.8249979  47.2535744  84.7929077
   2.9901581  46.7853088  84.7908554   3.6016138  48.1426392  84.5174103
  24.0317764  66.4937363   0.9026669  23.7882061  66.1236038   0.0541935
  23.2080631  66.5432892   1.3877163  20.3124752  42.4086838  47.6849899
  20.7817421  42.9743729  47.0717888  19.8743210  43.0146294  48.2825546
  54.3355026  41.8043518  29.2313213  54.5917778  42.2009430  30.0639477
  54.9107170  42.2127953  28.5843792  48.0831413  54.4057884  63.0439873
  48.1782532  54.9727135  62.2786255  48.9783440  54.2709503  63.3548965
  71.6635818  40.6161308  82.3186111  72.2786102  40.8892479  82.9993286
  71.0365677  40.0541077  82.7738266  13.6839848  36.1350670  63.7467384
  14.2253733  35.9489441  62.9796104  13.0454512  35.4222870  63.7678986
  24.7477818  60.4962959  31.9814434  25.4352646  61.0288124  32.3814774
  23.9714336  60.6675911  32.5145226  10.9896936  67.1823273  51.6790619
  10.4886036  67.9277649  51.3482132  10.4810791  66.8638611  52.4247971
  26.4115143  50.8182449   9.4285440  25.5661774  51.1112213   9.7688408
  26.8835316  51.6271858   9.2309303  63.8110428  48.1037903  61.6963158
  64.2577820  47.8936653  62.5163803  63.5141869  47.2575607  61.3616409
  25.1947861   2.2496150  81.7999802  25.7887859   1.5153108  81.9555206
  25.4291954   2.5667017  80.9277725  37.7293015  19.5286922  70.1885681
  37.6488609  20.4762802  70.2973709  36.8356361  19.2302837  70.0196228
  29.7172832  59.4875755  51.4997978  29.5585518  60.2429962  52.0658150
  29.6212387  58.7307434  52.0779114   2.6134062  23.0075054  58.6827698
   2.0095153  22.3554745  58.3272362   3.0904248  22.5425148  59.3701324
  43.1925812  39.1990471  17.2093658  43.7056007  38.4068451  17.3689270
  42.2877502  38.8915405  17.1550274  82.7798691  18.8665791   2.5104957
  82.4686584  19.5475426   1.9141178  82.1250000  18.8416367   3.2081742
  77.5819016  32.1677055  86.2072144  78.2968369  31.6676388  86.6009598
  77.5251617  31.8386936  85.3101273  75.4323120   4.6097898  79.4065933
  75.6055374   5.4075947  78.9068604  74.6355133   4.2508287  79.0160904
  44.6893845  28.3860683  15.3954363  44.8482857  29.2700768  15.0645084
  45.3937416  28.2361813  16.0260296  34.8859596  49.8890839  24.1630745
  35.6222725  49.6609917  23.5955791  34.1497612  50.0097961  23.5633450
  47.2618523  48.7156982  11.6374884  48.0644875  48.5226021  11.1530113
  46.9811707  47.8684616  11.9833746  53.5709991  66.2968903  68.6420364
  53.3159752  66.1609726  69.5545731  54.5238914  66.2062149  68.6436005
  32.2875099  52.1256599  42.1210175  31.6589146  52.7046547  42.5521355
  32.0783844  51.2535515  42.4555664  20.7409039   3.7264411  81.0339584
  20.6951466   3.7968457  80.0804443  19.9080544   3.3268914  81.2848587
  71.7588654  50.0343170  16.1763153  71.6002350  49.1012421  16.3192940
  71.2268143  50.2532463  15.4113169  81.5853577  43.5083237  56.7924461
  80.6709824  43.3834877  56.5383530  81.8650436  42.6497574  57.1100502
  55.6277199  17.4512024  37.2030373  56.1996994  18.1799488  36.9622116
  56.0853996  16.6725979  36.8859673  71.0448914  20.6934338  55.5541039
  70.7668228  20.7208099  54.6385918  71.1849136  19.7638149  55.7341957
  33.9992905  26.4216480  63.3145180  34.1604309  26.2340527  62.3898163
  33.0938377  26.7308998  63.3419189  66.1272125   6.0560994  52.3103218
  65.7313766   5.1919646  52.4235382  65.3900986   6.6327181  52.1093025
  49.5318298  47.9410400  25.2279663  48.7300529  47.8267212  25.7381763
  49.7436180  47.0617943  24.9144325   9.2701616  40.6101151  46.2132301
   8.9743404  40.2396011  45.3817024   9.6606617  39.8709068  46.6793976
  74.2810669  11.7830496  58.3819885  74.1214981  12.6655550  58.0473938
  74.7898331  11.3543358  57.6938057  80.7503433   8.8442488   2.6853783
  80.8148651   7.8933587   2.7741308  80.8813553   9.1771088   3.5732250
  44.3275604  26.1166096  11.6139107  43.6091003  26.0444508  12.2422752
  44.9343910  26.7391853  12.0143909  54.7834892  14.5341787  31.9836712
  55.7167168  14.6909304  31.8396130  54.5906219  14.9785652  32.8092346
  75.2618790  32.0357437  29.5483799  75.5134277  32.7117004  28.9190598
  74.6541519  32.4759636  30.1426067   3.2931306  56.3035164  34.7887192
   3.6717839  56.0141716  33.9585800   2.6516883  55.6276817  35.0078697
  53.8830338  63.3859711  58.1964684  54.7348366  63.0423279  58.4658585
  53.9165268  64.3149796  58.4246063  22.3604355  20.5684261   8.6151810
  23.2400951  20.2978401   8.3520937  22.3351727  20.4152241   9.5597038
   1.3923110  66.7497406  64.8139496   2.3433449  66.7737579  64.7081680
   1.1120510  65.9985886  64.2910156  66.1137314  50.0692101  30.5402107
  67.0637436  50.1859856  30.5318108  65.7938538  50.7508240  31.1312370
  46.7740936  44.6638641  83.9882050  45.9093971  44.3858376  84.2902603
  47.3458481  44.5318336  84.7444458  16.4723015   0.6834719   8.1706324
  17.1551266   0.5506615   8.8281612  15.6561260   0.4841288   8.6292715
  70.4174423   3.6644197  35.3413010  70.1887131   4.0377874  36.1924820
  69.6303177   3.1939852  35.0667915   9.2551212   8.2520018   5.5506482
   9.9551468   8.8961344   5.6569042   8.5531397   8.5648499   6.1212454
  76.0596313  14.2443008  20.2681465  75.9622574  13.7714615  21.0946884
  77.0044861  14.2707291  20.1172104  68.5061798  10.1787615  54.6061363
  68.3265686   9.6354084  55.3734322  69.0427322  10.8969822  54.9415474
  30.5470085  39.8823051   2.8663068  31.1263371  39.5131149   3.5328715
  30.6949768  39.3385315   2.0925820  60.8403511  36.1579285  80.4984436
  60.5082054  37.0459175  80.3665771  61.1290398  35.8787003  79.6295776
  75.5756378  27.7683468  57.2682762  76.3196945  28.2646866  56.9273033
  75.0364532  27.5860310  56.4986839  41.6931648  56.0423393  45.8310432
  42.4655495  55.6041908  45.4737129  41.1390762  55.3295135  46.1489983
  18.6881409   2.3013387  83.0742340  18.3428974   1.8460041  82.3063049
  18.1073647   3.0536926  83.1877823  20.1815872  29.3290977  28.5526352
  19.3607845  28.8445530  28.6405544  20.2667809  29.8075619  29.3772831
  20.9988804  14.6631231   4.2575326  20.2264462  14.1152525   4.3968649
  20.6973724  15.5530806   4.4400134  22.2846355  53.0843849   3.4636660
  22.6774769  52.2163963   3.3714490  21.7845211  53.0356140   4.2783680
  65.7313156  70.4252319  88.3262024  65.4947281  71.2902679  87.9915771
  65.0843582  70.2473297  89.0088654  21.5035801  35.8616753  81.1088562
  21.7428932  36.4755707  80.4145279  20.5471001  35.8336258  81.0845795
  82.3828888  44.2652130  87.1867599  82.5541840  45.2032089  87.1027985
  82.9784317  43.8558502  86.5590820  25.2328148  23.6178398  60.9713135
  25.6160965  23.8254738  60.1191330  25.5908737  22.7579689  61.1918755
  53.9277306  53.9191475  16.2395477  53.1292496  54.0449562  16.7522240
  53.9990845  52.9702034  16.1363697  43.3496513  63.9017944  83.7479019
  44.0714760  63.7270508  83.1440277  43.6826973  63.6319046  84.6037445
  66.6071854   4.8939686  58.7310219  66.4331665   4.5806313  59.6185875
  65.9401398   5.5632486  58.5782204  86.4824448  56.9823761  46.2280731
  86.4360733  56.0295753  46.3071289  86.4518738  57.2993774  47.1307411
  40.8482933   4.7733669  15.3846855  40.4103699   5.5444579  15.7450647
  41.2436333   4.3455796  16.1442490  35.0609741  61.8947906  25.6595230
  34.1746407  62.1491852  25.4027596  35.4177742  62.6715355  26.0903244
  20.4769363  60.9764519  83.7663422  21.3168678  61.3960228  83.5800476
  19.8641491  61.3854179  83.1552124  58.4493599  21.2431145  46.1527672
  58.8747940  21.5551872  46.9514236  57.9541664  21.9979362  45.8345490
  83.8091278  35.0247307  63.3660965  83.1721878  35.0993958  62.6554871
  84.2561951  35.8710442  63.3769264  83.9968109  28.2854214   6.9929004
  83.8054962  28.4513550   7.9159904  83.1409225  28.2998295   6.5645595
   3.0458045  61.2853470   9.7097559   3.1213312  60.3752403   9.4229889
   3.2853649  61.2651939  10.6362743   3.1018422  11.7451534  51.4076996
   3.0660615  12.2258930  52.2346458   3.2052393  12.4236622  50.7404900
  79.9352875  54.6235809   4.0582824  80.4869308  53.9673653   4.4840856
  79.9554443  55.3746872   4.6512938  14.8335381  47.7404022  60.7279968
  15.3984642  47.5540771  61.4779129  15.1557465  48.5746880  60.3868484
  70.8150482  70.7968521  35.1946526  71.3116150  70.2864685  35.8343163
  71.4821243  71.1882935  34.6307259  81.4079666  13.5590792  49.5975723
  81.0313721  13.0029917  48.9155350  81.6993103  12.9461393  50.2725945
  76.6045227  48.5688820   2.3351476  76.9701843  48.9721527   1.5478129
  77.3181915  48.5974197   2.9723990  34.1804237  42.2245026  85.7359924
  34.5903549  42.3228645  86.5953598  34.8918114  42.3726158  85.1129150
  42.0572395  45.0035019  35.1046677  41.6313400  45.8605118  35.1240234
  41.3350868  44.3785744  35.0399208  23.7394161  12.8172474  23.0141048
  24.5208282  12.5460501  23.4958477  23.1066494  13.0477324  23.6943359
  30.3837490  67.1497498  83.2981491  29.9272881  67.3762054  84.1084595
  31.3114605  67.1656342  83.5333786   4.2800384  39.9927979  50.6813774
   4.2634649  40.4618187  49.8471260   3.6117601  40.4255486  51.2127571
  30.4343948  53.1760941  51.3402138  30.0566254  53.7327232  52.0211601
  31.3799686  53.2442017  51.4724388  70.3721085   7.4300628  29.8903427
  69.7884598   7.4367256  30.6489868  70.5165710   6.5016723  29.7074394
  82.8307877  69.1919479  28.9945107  82.7978973  68.7650604  29.8506165
  83.5788956  68.7885132  28.5542870  28.0635128  71.1100616  59.1076126
  27.3422184  70.7068329  59.5907021  28.7867756  71.1354141  59.7340965
  64.9000320  66.6013107  59.5879555  65.1898041  66.9670944  60.4236984
  64.0751724  67.0503845  59.4030838  64.3843994  51.2717171  41.0811157
  64.0894928  50.8977585  41.9114265  65.2962494  50.9913559  41.0026054
  30.3291454  33.3063011  63.7967224  30.7703934  33.2160378  62.9521027
  30.3140602  34.2494392  63.9594917  54.8653297  31.0300083  30.3386822
  54.3256226  31.7344704  30.6974010  55.5779457  31.4810581  29.8859501
  32.8387833  50.5499496   9.7574244  32.5779610  51.2395897  10.3678350
  32.4884720  50.8327103   8.9126978  39.9204483  13.2714043  73.0561905
  40.8685379  13.3902884  73.1129456  39.7977982  12.6728106  72.3193970
  81.2132339  55.6291389  41.4120522  81.6833954  56.4576263  41.3183517
  81.5846481  55.0649338  40.7338524  69.9534073   6.3698044  12.8631735
  70.8008347   6.0301905  12.5754976  70.0915070   7.3126369  12.9538765
   8.3645420  19.8709221   3.9089301   8.8505316  19.6083374   3.1272042
   7.9371548  20.6907749   3.6611121  73.8533173  56.8700829   7.5931697
  74.5465164  57.1187210   6.9817033  74.2289352  56.1513634   8.1016827
  79.3333359   4.2599440  22.7152634  80.2641602   4.0584269  22.8111076
  78.9001312   3.7051215  23.3639069  65.6956558  48.1878052  18.0389442
  64.7541962  48.3021736  18.1685925  65.7713699  47.3772545  17.5354519
  24.4794922   4.0423512  86.6883926  23.6992245   3.6608467  87.0907211
  24.3126106   3.9920356  85.7472000  61.1957703  54.1930199  72.6580048
  60.9190826  54.2863388  73.5695801  61.6600189  55.0073204  72.4640579
  44.6937485  55.1507225  29.0607967  44.2466698  55.1177559  28.2150612
  43.9897461  55.0892563  29.7064228  72.6914749  37.4604378  77.4769897
  72.3838043  37.4502983  78.3833389  72.0788422  36.8924751  77.0097275
  78.4353333  29.8294830  69.6603851  78.6220703  30.6394196  69.1856537
  78.8854370  29.9339905  70.4986649  68.6912460  36.9876022   6.0276456
  69.2474289  37.2683067   6.7543449  67.8685760  37.4587440   6.1598115
  70.1251678  50.5565796  59.1958694  69.7558746  51.0996208  59.8922653
  70.1587601  51.1346664  58.4336891  35.7689896  43.7979851  15.3289366
  35.5171127  43.3528061  14.5198584  36.5650902  44.2778244  15.1004410
  33.1713333  65.2568665  56.1557579  32.3794823  65.5587311  55.7106934
  33.7220497  64.9083710  55.4546928  72.6305466  52.2612457  59.3829308
  72.4012527  51.6246948  60.0600281  73.4099731  51.8956184  58.9645500
   2.8991001  33.1096230  80.6010971   3.7245800  32.8361244  81.0011139
   2.2234025  32.7334557  81.1651535  47.9650154  35.3247299  83.7380676
  47.9574699  36.2588043  83.5290833  48.6605759  34.9621620  83.1894531
  12.5650702   1.4328985   4.5487485  12.6020117   0.9246730   5.3590407
  11.7222214   1.8849132   4.5877481  24.2089577  59.9856529  81.3590469
  24.2995987  59.5004692  82.1791763  23.2885895  59.8795242  81.1184387
  73.1069641  49.4972725  78.8917999  72.9416733  50.2424049  79.4694519
  74.0606537  49.4559402  78.8211136  84.6619720  49.4019852  72.8117218
  84.6524811  49.1083946  71.9007111  83.9102859  48.9650078  73.2120361
  42.9440613  42.9285011  20.4414501  42.8092384  42.3455849  19.6942787
  42.4032745  43.6943398  20.2483921  59.9562569  56.6714783  18.6907883
  60.2052422  55.8602295  19.1336327  59.2939034  56.4031715  18.0539722
  76.4710464  56.6138611  80.0980530  75.5443573  56.4984360  80.3082047
  76.4744720  57.2119598  79.3507309  45.6964035  -0.0536725  47.6249237
  45.9357262   0.1636696  46.7239685  46.1529160   0.5974463  48.1577263
  28.8362083  45.6758690  40.6981392  28.9016113  46.2506981  39.9355583
  29.1781025  44.8350296  40.3942757  52.6047478  58.6399498  23.4035988
  51.6916122  58.5878868  23.1212883  53.0934601  58.8230362  22.6011791
  52.2871132   1.6511174  11.0473146  52.5326118   2.4107912  11.5753860
  53.0191536   1.0426884  11.1481237  66.4334869  11.5544729  84.3372803
  65.9956970  10.9366789  83.7517014  66.9142075  12.1397305  83.7519455
  63.9069405  69.0254440   1.3390415  63.4983253  68.2903214   0.8820372
  63.2954559  69.2390747   2.0437970  17.1513500  40.5374603  81.5664444
  17.0493164  40.7777786  82.4873505  17.8482189  39.8812561  81.5659485
  58.7802811  43.4156418  31.1978645  58.8554077  44.2452583  31.6693821
  57.9228897  43.4576378  30.7743664  46.3149109  71.6687393  33.9730110
  46.5357361  70.7755508  34.2369919  45.5523605  71.5684814  33.4031906
  62.0290413  33.5010948  27.4405594  62.5060234  34.3309822  27.4429245
  62.0571365  33.2112923  26.5287170  62.6955414  19.9152832  62.9960213
  61.9633636  20.3075256  62.5203171  63.1841164  19.4334431  62.3286705
  84.9653702  29.8937035  22.4688244  85.5503845  29.1361065  22.4748363
  85.5274048  30.6321812  22.7033501  49.9044228   8.3528910  18.1129704
  49.3630829   8.8923006  18.6893559  50.7956390   8.6729326  18.2527332
  55.0547981  18.5742607  44.4532089  54.8099365  19.4176559  44.0724754
  55.5208435  18.1206741  43.7508583  47.9301262  45.3423309  34.8504753
  47.9481850  44.8821030  35.6895790  48.7054825  45.0257874  34.3869476
  82.2110748  61.6758842  74.0035858  81.4935989  61.9493904  73.4320450
  82.9914474  61.7325058  73.4521713  20.5705681  21.3556690   5.7821145
  20.1201591  21.3126507   6.6256266  20.2538509  20.5904350   5.3021784
  55.3308754  23.9464245  57.2917480  55.5503159  23.1530704  56.8032150
  56.0951118  24.5127316  57.1846619  59.3219070  21.2930031  13.4139509
  59.9064407  21.5999756  14.1070042  59.8927307  20.8119946  12.8147650
  76.4388199  70.3924561  88.5333328  76.4084702  70.8227463  89.3878326
  75.8524780  70.9114838  87.9828415  15.1571074  15.7984076  16.5398693
  15.6124401  15.1024084  17.0136738  14.5857134  15.3364000  15.9264450
  37.6367340  60.4167595   7.5388613  37.4605255  60.7385368   6.6547556
  37.1863785  61.0359764   8.1133013  83.2154770  27.3426418  84.0892029
  82.6028137  26.6079197  84.0566864  83.8624954  27.1451225  83.4120178
  64.2715607  59.4512253  62.5298271  64.5135803  59.1541023  63.4069672
  63.5242767  58.9036179  62.2891464   4.5338607   4.4519277  50.0825005
   4.9248099   3.7092469  49.6222649   4.5141582   4.1813946  51.0004616
  80.1370316  19.3861732  10.1718836  80.4723892  19.6804905  11.0187273
  79.6766739  18.5699730  10.3671331  58.0421829  42.3021545  26.0637093
  57.5832939  42.0549774  25.2608662  57.9851379  41.5259094  26.6208649
  85.8534088   6.8870554   6.2118793  86.2881470   6.9562492   5.3619094
  86.3171005   7.5116701   6.7696218  28.1109180  29.9065800   8.5367956
  29.0378685  30.0805035   8.3732471  27.7837105  29.5540829   7.7092018
  84.2512817  49.3507347   4.9813290  85.0440598  49.8859024   4.9448457
  83.9799194  49.2620468   4.0676942  78.3060303  33.1495476  27.8428097
  77.8973465  34.0142174  27.8032837  79.2199478  33.3265495  28.0656586
  58.3946037   8.4709749  87.9097443  58.6258049   8.5543995  88.8348465
  58.4119415   7.5286460  87.7425690  56.8234825  58.0076332  83.3309174
  56.6402779  58.2488441  82.4229050  57.2563553  57.1560898  83.2698517
  81.1086121  46.4995270  17.9424324  80.7607498  47.2014503  17.3924046
  82.0511093  46.6638641  17.9728889  27.9326344  44.7244797  43.0305405
  27.9251747  43.7728310  42.9278831  28.2439880  45.0538940  42.1874619
  60.7973328  42.5710831  39.5125046  61.1510735  43.4158859  39.2342834
  60.1862335  42.3266945  38.8174782  27.5343075  36.0052338  83.3461685
  26.9531727  36.6027184  82.8754959  27.9019756  35.4423904  82.6648026
  41.3795586  63.0488815  55.0937386  41.3358154  62.1626968  54.7345810
  41.9330254  62.9655609  55.8702469  39.1949387  34.1905289  41.1895638
  38.6110458  33.4639664  40.9718323  38.7713432  34.6245651  41.9301147
  22.3410511  64.6313400  14.3833351  21.8832893  63.9386749  13.9069948
  22.8921852  65.0519562  13.7233601  47.3641815  67.1198730  47.3916893
  48.2766685  67.0472870  47.1118202  47.3707581  67.8120956  48.0527611
  32.6191597  67.7870331  87.8209076  31.6817074  67.8740921  87.6481705
  32.6684532  67.4820251  88.7268753  50.6035194  38.4364738  81.2472992
  50.8277969  38.3245506  80.3234940  51.4482689  38.5031929  81.6924667
  37.6946678  54.5597382  43.4610825  37.4928703  54.5056114  44.3952026
  37.4273033  53.7108688  43.1087036  82.2691727  17.3045769  47.6933365
  82.7818451  16.9569492  46.9635735  81.7140503  17.9764137  47.2974777
  86.4867020  49.1610680  38.8927307  86.0022964  49.8392029  39.3635979
  85.8113556  48.5635757  38.5715714  56.5962181  21.9435978  13.2021503
  56.2653275  22.2623768  12.3624344  57.5375862  21.8384418  13.0643072
  80.3824692  55.4930992  72.8993607  81.0800781  55.5012894  72.2439957
  80.7507706  55.9636841  73.6471100   9.9481277  71.2124863  10.2536201
  10.3422928  71.8885422  10.8048105  10.4783716  70.4321976  10.4155550
  11.0747862  34.8145752  12.7578678  11.6134291  35.5997810  12.8555813
  10.2568941  35.0277596  13.2071314  26.8043842  29.3878822   2.8906941
  26.4508743  28.5664291   2.5494044  27.3225384  29.1275768   3.6522636
  31.4575386  47.0379944  75.6581345  30.6183434  47.0345917  76.1185379
  32.1081886  46.8930817  76.3450699   6.0478554  28.0797539  68.2396164
   5.1795568  27.7044563  68.0931931   6.2635031  27.8400650  69.1408844
   5.4854150  56.3351135  39.0586586   4.7967906  56.9307137  38.7632103
   5.6200614  55.7400131  38.3211250  49.6736298  29.0612297  68.7894058
  50.4197235  28.4819908  68.6343155  49.3730431  29.3043079  67.9137344
  33.7849464  66.5055618  16.1330681  33.3307800  67.3290253  15.9545536
  34.1467934  66.6172943  17.0121670  75.4249802  21.2117805  13.0338955
  75.0866089  21.5801373  13.8500137  76.0675964  21.8528519  12.7300644
  74.9990387  48.7865486  31.3025761  75.5374527  49.4424591  30.8597202
  74.1599426  49.2237206  31.4476032  60.8111763  13.9343348  35.6904831
  59.9940643  13.7764988  36.1634026  60.8987694  13.1815329  35.1058044
  81.0050964  51.4650688  27.8773632  81.9216537  51.5539932  27.6161175
  81.0333405  51.4002380  28.8319473   4.6179590  38.6939354  77.4365540
   4.9391761  39.5932121  77.3705978   4.9569182  38.2604752  76.6533203
  43.7812729   2.8075414  44.6538925  43.8742828   3.0621972  43.7358856
  43.6895638   1.8550415  44.6301117  85.3626175  42.2398605  11.4761143
  85.0533524  42.7161026  10.7055426  85.7383194  41.4329033  11.1241188
  22.1104126   2.2120461  42.3248787  22.7627831   2.9112258  42.2825356
  21.2784748   2.6680818  42.4519348  32.8625031  13.5716190   6.6138778
  33.1600761  14.4797382   6.6686716  33.5165329  13.1379204   6.0658078
  67.1187363  62.8857040  59.4575233  67.6442108  63.6837959  59.4013557
  66.2356186  63.1941795  59.6604500  56.5537338   6.2251029  37.1732941
  57.2557373   5.5774665  37.2364540  56.5255737   6.6329808  38.0387840
  13.9695425  48.0769997  87.3873596  13.9886303  47.3943024  88.0580292
  13.8376083  48.8893318  87.8761826  12.8543463  34.2323608  81.4900360
  13.3064499  33.7513313  80.7968979  12.4506788  34.9755402  81.0417404
  62.8175964   9.9148636  50.4694748  62.9777565  10.5659447  49.7863388
  61.9815445  10.1745281  50.8565407  29.9323101  49.2074013   7.9095216
  30.5698147  49.0764008   7.2076249  29.1679745  49.5823212   7.4719625
   7.8529034  59.5446777  26.1755791   7.2970562  60.3211708  26.2413464
   7.6758509  59.1967049  25.3016243  17.2878761  57.1019440  17.5140514
  17.8971558  56.8390961  18.2039204  16.8007164  56.3041611  17.3080158
  71.1237259  58.6348801  68.5533295  70.6285095  58.8263359  69.3497849
  70.8733521  57.7396622  68.3250046   6.8366299   0.8936899  70.8499374
   7.4131265   1.0879328  71.5889587   7.1854391   0.0822949  70.4808807
  58.2600365  67.2334824  10.8657570  59.0239983  66.9090118  11.3425303
  58.6068459  67.9208298  10.2969770  30.1087151  53.7036705  58.5629730
  31.0635204  53.7370186  58.5040970  29.8551006  54.5833969  58.8422508
  73.9298325   9.2770281  29.9822216  73.6663589   9.6640701  30.8170948
  74.6919403   9.7887087  29.7109146  54.4188232  16.9206123  85.2585526
  54.1215477  17.6068039  85.8560486  53.9131699  17.0640297  84.4585648
  35.7293205  10.9415741   5.0970087  36.5092163  11.1047583   4.5665717
  36.0261841  11.0534353   6.0001092  67.9258652  20.9117317  32.0303535
  67.7860413  20.5200272  31.1682358  67.7107773  20.2132683  32.6485138
   5.9059339  14.6966181  14.2485142   6.6557517  14.1462135  14.4744787
   5.6543570  14.4099903  13.3705702  60.0743294  34.0969925  64.1049652
  60.2397079  33.7136841  64.9663315  59.1248817  34.2143784  64.0733337
  80.2598648  70.5521469  42.0951157  80.4885559  69.6230850  42.0674438
  80.0029297  70.7624130  41.1973381  82.0705948  34.8393402  53.4280510
  82.8112030  35.3805084  53.1544495  81.6885986  35.3122749  54.1674042
  79.4131851  55.6369324  87.7671585  79.4169922  54.7804413  88.1945190
  78.7786255  55.5470314  87.0561829  80.1869888   6.4709992  25.3871784
  80.0615921   6.5148420  26.3351173  81.1176682   6.6550221  25.2599277
  19.9826546  42.9135437  76.8144836  19.7760544  43.2991257  75.9630890
  20.7455215  43.4039307  77.1207275  14.9051456  40.8889732  45.2348709
  15.1096945  41.2425575  44.3692093  15.5288572  40.1728096  45.3545685
  23.7170506  20.5146065  79.5610962  23.7008228  21.4035568  79.2065048
  24.2098770  20.0081596  78.9154434  32.6979828  65.2709198   2.4847333
  31.9674377  64.6533661   2.4506898  33.4723206  64.7357254   2.3109579
  83.4344482  32.0432014  16.2367344  83.3393402  32.9328728  15.8966217
  84.0396805  32.1316833  16.9730110  64.1229935  29.2580986  49.0572243
  63.9999771  28.4719143  48.5252342  64.1698685  28.9337978  49.9565926
  79.0502777  49.0760345   4.1194215  79.0718002  48.5423279   4.9137297
  79.6394577  49.8069878   4.3059692  19.2239342  60.5862427  18.3628578
  18.8393230  61.3215370  17.8857269  20.1580925  60.7906380  18.4053249
  11.9046440  56.6515999  80.6293030  11.2456083  57.2850952  80.3454285
  11.3983641  55.9314919  81.0052795  36.0177422   6.3526478  86.3535690
  35.7702942   5.4331675  86.4513321  36.6276550   6.3594141  85.6158752
  73.3085709  10.8747530  38.1639977  72.5754242  11.2378674  37.6671257
  73.6313400  10.1543303  37.6226616  10.7413969   3.6363108  70.9046097
  10.0019836   3.9143114  70.3640366  11.2319069   4.4411225  71.0716705
  34.0676384  53.4811401  64.6419754  34.0419655  53.8431931  63.7562599
  33.9090500  52.5447426  64.5226440  52.2294312  70.7548065  74.4117355
  51.7925797  71.5162506  74.7933121  51.5398102  70.3007355  73.9274979
  22.9388428  71.2626801  49.9265137  23.0237923  71.1360016  50.8714828
  23.7051125  70.8245087  49.5562820  57.6905746  12.8189573  66.0960388
  57.6538429  13.7437124  66.3404007  58.1259613  12.8135843  65.2436066
  13.0735292  43.8270073  38.5091324  13.0446787  44.7754173  38.6352959
  13.7846022  43.5312843  39.0775986  14.0698824  46.6765060  65.1927948
  13.2779913  47.2046967  65.2935638  13.9072599  46.1476593  64.4117050
  79.9415665  55.0657425  26.6467857  80.1352158  54.6525421  25.8053589
  80.4325562  55.8872299  26.6288414  20.8090687   8.3500013  44.8200302
  21.3935280   7.7693520  45.3073540  20.6028423   7.8660846  44.0203247
  17.1064396  52.4659767  36.0762787  18.0626793  52.4984283  36.1043282
  16.8624077  53.1402473  35.4422112  49.2461166  66.2560806  58.1161423
  48.7543678  66.4794159  58.9064178  49.1196938  67.0063553  57.5353394
  76.0624619  53.4727287  47.2223206  76.4540405  54.2627563  46.8498192
  75.2087708  53.4041138  46.7948418  34.2854118  14.0011730   1.6338091
  34.2712784  13.0547447   1.7763121  33.9291496  14.3704014   2.4418800
  50.4217072   3.3164420  60.3551254  49.7373352   3.3377600  61.0240135
  50.8367538   2.4608428  60.4642982  69.2962723  61.2783203  26.8332958
  69.6096268  61.3200645  25.9298058  69.9665451  60.7757301  27.2962971
  54.7080879  50.8983994  52.9740906  55.1362762  50.1208000  52.6160088
  53.7721138  50.7135620  52.8964996   4.7156525  36.2677879  21.4397678
   5.1891651  35.4566193  21.2553158   5.3659034  36.9587440  21.3133373
  28.8811684  68.4381485  73.3969879  28.6397953  68.6011734  74.3087921
  29.4771709  69.1536255  73.1753998  45.1606674  10.8148537  87.5268784
  45.2194748   9.8601665  87.5635605  45.9223976  11.0821543  87.0125351
  48.0911942  10.3580389  71.7686768  49.0426331  10.3172865  71.6720581
  47.9325027  10.1158276  72.6810226  58.2902985  32.6955338   0.5940949
  59.2416763  32.7774315   0.6604549  58.1450806  32.2662659  -0.2490377
  47.4419403  58.7428246  23.3340778  46.9593201  58.0479774  22.8863068
  46.8454170  59.0460358  24.0185108  30.0431423   6.2448344  23.8080177
  29.2533607   6.5005231  23.3314686  30.7518806   6.7110491  23.3646603
  50.5675888  67.5043411  86.2599258  51.3885803  67.3733826  86.7343292
  49.8944702  67.5003738  86.9404602  65.5587616  70.8164902  75.7331848
  65.7321930  70.3634796  74.9079971  64.6490555  70.6006470  75.9383163
  84.0046844  48.5700874  76.0076370  84.5425797  49.2684174  76.3807831
  83.9824295  47.8959999  76.6868591  76.9162369  66.1971893  57.5843239
  76.3216400  66.8135147  57.1567421  76.5526810  65.3348770  57.3831139
  64.6078949  65.0381927   7.0944052  65.0842285  64.4472580   7.6776161
  63.7447472  65.1288452   7.4981318  13.8219004  32.9932137  83.6272278
  13.5214453  32.0967407  83.7765427  13.4745588  33.2217598  82.7650452
  35.6500015   4.7843738  69.0702972  36.1777306   5.4946222  68.7052231
  36.2863274   4.1078954  69.3020325   3.6319430  67.3533401  56.7108955
   2.8671744  66.8036652  56.5399551   3.3007247  68.2494888  56.6522560
  59.7759972  54.5596886  34.2487679  59.2830772  54.7328377  33.4467201
  59.4220543  55.1800232  34.8860588  55.2444153  25.0301285  38.2451210
  55.1843147  24.3947754  38.9585266  54.4087677  25.4963627  38.2685852
  84.6733780  29.2658825  12.4213781  85.1131363  28.5139904  12.0245161
  84.7342758  29.1090527  13.3636770  27.2154026  22.0343475  68.5327988
  26.4335480  22.3805771  68.1026154  27.7871132  21.7684116  67.8126144
  11.2244644  22.0795345   3.6446085  11.4090519  22.3494549   4.5442204
  10.9339285  22.8808041   3.2089634  76.9032898   0.3178000  25.8953304
  76.2927017   0.9994973  25.6147919  76.8920364  -0.3216689  25.1831608
  63.9851379   0.3426199  41.6074905  64.8200912   0.5066611  41.1691170
  63.4112244   1.0442218  41.2999039   4.7548184  44.3048096  85.3924179
   5.0817294  43.6940918  84.7318268   3.9244459  44.6208954  85.0363235
  12.4637604  32.2099609  29.7667885  13.1493187  32.5999603  29.2244377
  12.9381704  31.6876621  30.4136028  44.0507584  71.6894760  79.4504318
  44.1471481  70.8806152  78.9477463  43.2683411  71.5483856  79.9834900
  79.8213120  18.7194805  38.3056335  79.7650375  17.7708435  38.4203262
  79.2720490  18.9015465  37.5431366  54.3684044  10.7760468  17.2844906
  54.2596855  11.7238359  17.2063332  55.1901016  10.6679039  17.7633972
  31.2199516  62.3862419  11.5717487  31.0321255  61.5186882  11.2135544
  31.8810425  62.7504349  10.9830580  84.0245895  19.0654144  84.3874741
  83.3804855  18.3995266  84.1467361  83.5003662  19.8249435  84.6415100
  48.8940010  60.6306686  86.6842194  49.0011330  59.8058319  87.1579285
  49.5908356  61.1932030  87.0221634  15.5150585  33.5037498  86.6540985
  15.2144661  32.5950127  86.6623764  14.8169975  33.9828720  86.2075729
  66.6139832  30.4456482  60.7739525  66.1881790  30.5345078  59.9212914
  66.6623611  29.5009270  60.9202156  33.9571762  50.8866653   2.6790173
  33.8689461  51.5353127   3.3773746  33.6016006  50.0810013   3.0541253
  75.2832947  56.9932251  85.1899567  75.3561249  57.7192230  85.8095169
  74.3602066  56.9860992  84.9367828   8.9161158  41.5331154  86.2781754
   9.0551805  40.9740524  87.0425949   8.7756367  40.9207878  85.5559921
  37.2450066  56.5051880   3.1588166  37.1432533  57.3383636   3.6189172
  37.6005669  56.7458725   2.3033180  70.2175980  39.7509384  48.7877541
  71.0262985  39.5933723  48.3005104  69.7897186  38.8954926  48.8247375
  20.1270447  35.3871307  85.0255508  19.8782711  34.6028976  84.5363541
  19.3602123  35.9573250  84.9700775  74.6371841  61.3359070  47.1420898
  73.7553253  61.0523834  46.9009171  74.7924652  62.1153412  46.6086082
  20.8276253  66.9179993  86.7482224  20.4883614  67.0280609  85.8599548
  21.5805874  67.5073929  86.7917633  44.5471764  52.9863319  41.4587975
  44.7604523  53.7234306  42.0310135  44.4589729  53.3760605  40.5889931
  34.5119781  48.9741859  87.6981277  35.1923027  48.7531853  87.0620880
  34.0084076  48.1666222  87.8005447  69.4890289  45.8944397  62.7927246
  69.0598526  46.2531548  63.5694923  68.7955322  45.8512421  62.1343651
  37.3073044   2.7465956  40.2011604  37.5266876   1.8395762  39.9880447
  36.9172516   2.6999207  41.0740356  31.1546726  49.2312851   1.3393334
  30.4345551  48.7182007   1.7059488  31.9223003  48.9606857   1.8430763
  22.1343784  11.1027584  82.2387314  21.7169533  10.3632736  81.7969742
  21.4624920  11.4371262  82.8328629  51.2227592  39.7763138  15.9486694
  51.9831810  40.3531151  16.0213757  51.3747711  39.0957832  16.6044140
  78.4779510   1.0890360   1.3478547  78.8251266   0.2156553   1.5292528
  78.7663956   1.2808646   0.4555372  25.8197098  21.1440620  61.2898712
  26.6785355  20.7232742  61.3297043  25.3113861  20.7166691  61.9792023
  77.7648392  21.9457874  51.1736870  77.0539169  21.3193245  51.3092079
  78.3337326  21.5264969  50.5280952  80.4823761   8.5375013  17.8906784
  80.0004120   8.8452463  17.1230602  80.8125687   9.3361521  18.3022099
  27.0620098  38.1770630  16.7315826  27.9976540  37.9758263  16.7141132
  26.9564781  38.8811989  16.0918274   1.4525182  17.4285583  35.7284622
   1.2666111  17.8668900  34.8980789   1.1566275  18.0464478  36.3969612
   7.3234081   3.9744368  82.8330460   7.5418892   3.7126887  81.9386292
   8.1081247   3.7689223  83.3412018   8.7176399  23.9306564  65.7041626
   9.0740137  23.2849922  66.3143616   9.2965803  23.8861065  64.9431915
  12.5036678  65.4414902   3.9841785  11.7362738  66.0081940   3.9055521
  12.7168074  65.2004852   3.0826697  23.2900581  25.9272614   6.7866912
  22.7189560  25.8348312   6.0241089  23.9125252  25.2042828   6.7087903
  84.2737350  46.5005417  26.9992752  83.7779236  46.5740929  27.8147449
  85.1136093  46.1244354  27.2627048  32.6068077  53.0256882  27.0387630
  32.1535645  52.8857002  26.2073746  33.4234924  52.5340118  26.9520779
  74.7884598   3.7465920  37.9229851  74.8042297   3.0763640  37.2397766
  75.1606903   4.5232368  37.5052567  53.2662544   4.9451194  42.6464119
  53.1470032   5.6986890  43.2244606  52.3940849   4.7762771  42.2899818
  29.7952957  51.4910011   9.3437643  28.8467522  51.4915924   9.4722071
  29.9471645  50.8148346   8.6834888   6.9878097  37.7040634  37.4642487
   6.2699232  37.2736664  36.9998894   6.5605850  38.1834793  38.1740875
  34.8256454  66.8131256  86.1219788  35.6961823  67.0762329  86.4205933
  34.2308769  67.1481094  86.7929993  10.7226820  23.9484062  21.3470497
  11.0522108  24.8462276  21.3865185  11.3745546  23.4765816  20.8287125
   2.0154707  31.8174725  32.6904869   1.8357481  31.7961769  31.7505512
   1.4022499  31.1856441  33.0659637  76.6624222  21.2234535  72.6580124
  76.9884109  20.7366428  73.4149628  76.2213135  20.5648003  72.1215134
  51.9710388  63.0588226  34.8952904  52.2199898  62.8891106  33.9867439
  52.6686974  63.6198769  35.2339897  55.3408775  59.7762299  27.5851803
  55.1788673  59.8821602  26.6477566  55.9636154  60.4705124  27.8005772
  85.4563370  21.5253391  71.0476074  85.5736771  20.5899143  71.2132721
  84.5080109  21.6543465  71.0638504  50.1529617  51.1563644  28.8051910
  49.2197495  51.3116264  28.9509315  50.4147453  51.8361244  28.1842003
  45.0590172  66.3340988   7.6955056  45.9500351  66.0465698   7.8946319
  44.5400429  65.5298615   7.7051158  10.2332439   6.8327007  68.8463135
  10.6733570   6.7944217  67.9971619   9.6666059   6.0613184  68.8573914
  84.8203888  55.8266487  32.0451927  85.7672272  55.6873665  32.0632477
  84.6854248  56.6219673  32.5604439  37.5740051  13.9529562  74.7918015
  37.2827454  13.9542542  73.8799973  38.5143280  13.7808819  74.7426224
  22.8254147  26.0883179   1.3185056  23.5230751  25.8102303   1.9119444
  23.2640667  26.2193203   0.4778783  74.6335983  27.6066895  33.0367050
  74.8590164  28.3038731  32.4207878  74.9083481  27.9427013  33.8898392
   7.9519291  39.8544769  22.0878906   7.7360525  39.5532875  22.9704514
   8.9082451  39.8936653  22.0754147  47.3448677  35.6158981  40.3480186
  47.9550476  35.2220116  39.7245102  47.1661530  36.4859352  39.9911957
   4.3070264  54.6122856  42.6425209   4.1765089  54.4553223  41.7073402
   3.6450152  55.2649651  42.8705177  18.2742043  59.4351730  27.4409275
  17.4600792  59.3596992  27.9386559  18.6514626  58.5557556  27.4640369
  31.4163609  57.1718063  35.8992691  30.6734104  56.8809891  36.4281197
  31.3411579  58.1259384  35.8848000   3.5024064  22.0101681  55.0123138
   3.2887330  21.5066605  54.2267838   3.2101974  21.4580288  55.7375641
  19.1605225  37.9724960  78.1279297  18.6815739  37.7960205  77.3181763
  19.1565456  38.9265404  78.2054825  65.5706558  40.9970016   5.0841928
  64.8931351  41.6628036   4.9662833  66.3469086  41.4897308   5.3504372
   3.0080523  15.7887993  52.9285889   2.5874176  16.4445839  53.4846878
   3.9014080  15.7256985  53.2664719  75.2227783  37.9465218  73.3893814
  75.5575333  38.8405418  73.3193893  74.2760544  38.0360184  73.2801361
  67.3174667  22.7435188  82.4937286  66.7999496  22.0175438  82.1453629
  68.0954514  22.3268642  82.8643723  21.0717525  70.1957855  58.4623260
  21.5583496  70.9092255  58.8751907  21.2808838  70.2706146  57.5312538
  46.2406998  19.2158813  10.0438223  45.3984833  19.5979271   9.7969522
  46.8200874  19.4184208   9.3093023  38.7061577  70.2032776  20.3930454
  38.3518715  70.7144852  21.1206284  39.4453659  69.7276993  20.7720375
  44.0664749  65.9093704  41.9525757  43.2414017  66.3835297  41.8493156
  43.8932343  65.0437927  41.5824509  69.6933517  33.1311951  17.1307755
  69.4927673  32.2735939  16.7559242  68.8412247  33.5571632  17.2238083
  32.3993111  69.2165680  16.1931438  32.8167267  69.7487488  16.8704796
  31.4685726  69.2320023  16.4161224  71.1799545  42.5883789   5.3907733
  71.0723953  43.5147820   5.1752701  70.5640335  42.1354179   4.8148375
   4.3831120  37.3746910  81.8932495   5.0429544  38.0559578  82.0225220
   4.8348203  36.5593491  82.1109924  21.0318050  69.0835571  39.1904793
  21.0455475  69.9842377  39.5142250  21.9522247  68.8700409  39.0372772
  10.0555935  48.2802658  28.0974216  10.2281933  48.7866211  27.3036671
   9.1448736  48.4789810  28.3149834  31.1034489   1.3892368  84.5086365
  31.6247654   1.5970761  85.2840500  31.1020069   0.4328059  84.4702988
  69.2828445  39.5012054  39.3319855  70.0558319  39.1514091  38.8888474
  69.2419815  40.4166718  39.0554390  51.5853043   9.4918613  11.4080858
  51.3807259   9.0520239  10.5829058  52.1667557   8.8844814  11.8655090
  63.4660149   6.8764739  33.2438316  64.4085236   6.7938719  33.3890305
  63.1306686   5.9845099  33.3342438  14.9058266  30.7760983  49.6851845
  13.9953289  30.5854588  49.9107552  14.8688984  31.0832672  48.7793617
  41.9150581  19.8927078  84.6030502  42.3678703  20.7030354  84.8366394
  41.1270218  20.1826096  84.1435013  56.3957100  30.0669422  56.2894440
  55.6199799  29.5948486  56.5921021  56.1174927  30.9817810  56.2458649
  70.4052429   1.3989931  24.8815765  69.7938995   1.7346599  24.2259655
  71.0945129   2.0615668  24.9277744  47.1700249  62.4697723  48.7336082
  46.6505051  62.7423897  47.9772949  47.5117340  63.2869186  49.0965614
  43.9313660  65.6884689  64.0304108  43.3364830  66.4318771  63.9319992
  44.3072777  65.7965317  64.9040451  55.4208984   5.8857207  62.3745956
  55.5585251   6.7651620  62.0226364  56.2994347   5.5098085  62.4302216
  62.0087166  44.4322548  70.4740601  62.0472183  44.9518814  71.2770157
  61.2149048  44.7331810  70.0318604  50.4334793  24.9007359  37.4243546
  49.5216179  25.0440693  37.1709938  50.7744293  24.2996140  36.7620544
  12.0532742  70.1083832  67.7203979  12.9784193  70.2062454  67.4950943
  11.5880690  70.5919571  67.0377808  83.7827988  66.4591904  33.7784729
  83.6687088  67.1192322  34.4622612  83.0141144  65.8946304  33.8598900
  51.6595116  48.4883423  76.6795807  52.2290840  48.5471268  77.4466324
  52.2199860  48.1285286  75.9920959  73.1163712  14.9826345  63.3837395
  73.3591537  14.1392145  63.7657471  73.0261841  14.8044901  62.4475937
  61.6316986   8.4270697  85.2159576  62.3015747   7.8695397  85.6117554
  61.5452156   8.0989637  84.3209152  54.7511444  48.8451996  48.5234032
  54.0138512  48.8817482  49.1327400  54.3709526  49.0682945  47.6737480
  85.2099991  61.6224403  47.8997688  86.1238937  61.9070358  47.8932495
  84.8802261  61.8954582  48.7558899  47.1239433  17.4958134  72.2445526
  46.4080353  18.1238251  72.1480789  46.7258949  16.6471920  72.0505753
   2.6214955   5.8554940   4.3182478   2.5538659   6.2774606   5.1747537
   2.1752634   6.4548831   3.7200487  51.1548347  55.6124077  83.2617188
  52.1006279  55.5147362  83.3720322  50.9849663  56.5341606  83.4560013
  48.1798706   5.7603011   7.0681763  48.8177032   6.4608178   6.9315124
  47.6232109   6.0785270   7.7788768  53.8874321  57.8651352  42.0299492
  54.2935066  58.0310287  42.8807220  54.5633812  57.4116783  41.5262642
  84.3835678  53.5996323  79.7331467  83.7140274  53.7973785  79.0782776
  85.0049210  54.3247261  79.6669159  24.3416958  15.4428225  11.8275423
  24.9020443  15.5916214  12.5891867  24.0502281  14.5355978  11.9182100
   9.3138399  44.6604233  41.6807213   9.6766300  43.8039818  41.9068260
   8.7680216  44.8950424  42.4312363  73.4507599   0.9827756  60.4867630
  72.9985046   0.6415631  61.2583008  74.0754547   1.6180037  60.8367195
  72.8619614  43.4083481  12.0581799  72.3399353  43.8750801  11.4055786
  73.7118530  43.8484879  12.0444231  54.3025322  66.1521683  13.0845661
  53.5788040  65.5600891  13.2892389  53.9299011  66.7813492  12.4669046
  10.2173805  51.1269913  26.1023598  10.2022867  50.2216034  25.7920856
  11.1459045  51.3205833  26.2311897  10.1993933  55.5055923  45.0339699
   9.8599586  56.3403282  45.3568306  10.8965120  55.7498741  44.4252129
  55.4963989  42.1293373  74.3202133  56.0994453  41.4186287  74.1023712
  55.8735657  42.5322227  75.1023026  52.0219231  53.3851280  46.5669212
  52.8061790  53.8325920  46.2491913  51.9464417  52.6099548  46.0104637
  68.5973663  61.2028542  19.0779343  69.3852005  61.3373680  19.6046753
  68.4155045  60.2661667  19.1539021  60.3624077   3.6247888  13.5008669
  60.0364990   4.4585552  13.1619730  59.5742912   3.1462848  13.7580376
  68.0225677  48.0124969   8.5826988  68.3836136  47.1904488   8.2508650
  68.7777557  48.5971222   8.6469908  20.4615574  39.1368828  13.2717047
  19.5221310  39.0278549  13.4194279  20.8600559  38.3742981  13.6911058
  32.5591469  55.3610458  65.9347534  32.8440933  54.5153160  65.5886612
  31.7975922  55.1538963  66.4763794  14.7904539  40.4997635  11.6485777
  14.1338911  40.3730507  10.9636679  15.5661449  40.0421181  11.3243895
  86.7998276  30.4789257   8.3272238  86.4037170  30.6537476   9.1809025
  86.1886139  30.8602810   7.6969681  52.5390892  25.6576710  70.3858566
  53.0245132  25.9277439  71.1653748  52.8237801  24.7578354  70.2262268
  38.8170395  54.7849083  25.3409710  39.2547684  54.9758530  24.5114117
  38.2677841  54.0240021  25.1523743  66.1847153  55.7101555  62.2571106
  65.7793961  55.1303101  62.9018784  66.9838791  55.2539253  61.9936256
  74.1006088  52.8431282  26.6641922  73.7318497  52.1901932  27.2591133
  73.5080109  53.5916672  26.7330456  82.8587799  57.0785522  10.0342150
  82.9830933  57.0744209  10.9832983  83.4038849  57.8018150   9.7244024
  43.6926079  63.6753960  40.4411201  44.1250687  63.6919403  39.5873451
  44.0568619  62.9062424  40.8792458  20.2656364  17.2281284  76.9375458
  19.5342236  17.2352638  77.5549698  20.2825756  18.1142845  76.5760574
  38.6247787  45.2129250  55.2358246  39.5581932  45.0034561  55.2027435
  38.5208092  45.7166252  56.0431099  60.4766426  40.0197258  23.7848320
  61.3860397  39.9550323  23.4932060  60.5370216  40.3108864  24.6946735
  83.1328659  24.2849026  30.3967705  83.8732529  24.1223488  29.8122826
  83.5005951  24.2054443  31.2769356  14.8678675  42.5005417  37.0545731
  14.1996069  42.9688683  37.5549011  15.6964188  42.7692795  37.4514542
  60.7411995  40.1495094  73.2661591  60.2910614  39.5607376  73.8719254
  61.0732536  39.5751381  72.5761795  17.9427738  39.3189545  10.7361422
  18.8689156  39.0965538  10.6411161  17.5162220  38.4865685  10.9396572
  62.8472214  66.7026978  73.3628998  62.5491867  66.4806671  72.4807968
  62.8897133  67.6589432  73.3677444   8.4593639  45.6210823  79.6670914
   7.6707182  46.1490173  79.7918091   9.0894976  45.9806328  80.2915039
  65.4216843  20.4509907  27.5819397  65.7697067  20.0775299  26.7722244
  65.6755142  21.3733273  27.5487709  48.3803253  39.5708580  29.5278816
  48.9352875  40.3471107  29.6032352  47.5084381  39.9172783  29.3380356
  75.5097122   0.7785394  82.0884323  74.6275635   1.1330538  81.9772263
  75.4021072   0.0593258  82.7108383  14.1506729  41.0158691  66.9435272
  13.8424368  40.3200531  66.3629532  15.0953379  41.0521088  66.7934418
  70.5546188  37.1504478  70.7793732  71.0903549  37.8285255  70.3677521
  71.0450974  36.3403320  70.6401749  13.8362198  68.2931290  17.9867649
  14.3907204  69.0678406  18.0793705  13.4268236  68.3929596  17.1273117
  51.4478264  31.9368038  60.5756378  51.5891495  31.0333633  60.8585777
  51.4032059  31.8845863  59.6209068   7.0616908  13.1432705  17.7280025
   7.2463474  12.3266068  18.1918926   7.9083991  13.4136467  17.3727360
  79.2530746  66.7703781   8.2773647  78.4058151  66.4686661   7.9497318
  79.8852386  66.1509705   7.9127603  50.8513336  38.4377441   8.5026436
  49.9906845  38.0189476   8.5137367  51.3940239  37.8848076   9.0647650
  65.8557205  28.8807869  82.0112762  66.5352707  29.1380787  82.6343765
  66.2279587  29.0844994  81.1532669  80.1092834   6.3142753  75.1456833
  79.4584122   5.7025771  75.4898148  79.7132187   6.6606431  74.3460617
  29.1624584   5.8273287  15.1075115  28.7274895   5.2064495  14.5230951
  28.7222366   6.6609783  14.9417868  16.2749138  34.3301811  59.0012016
  15.9600210  34.8660278  58.2732315  16.4333649  33.4692917  58.6139069
  62.3216286  62.4757271  65.9295273  61.4750099  62.7715759  66.2640991
  62.2560844  62.5859413  64.9809570  54.2698174  46.6700325  51.9637566
  55.0949249  46.3501816  51.5988922  53.5938568  46.1998405  51.4756699
   5.7821679  64.9878235  86.5471268   5.3560009  64.6467209  85.7608337
   6.1692653  65.8178482  86.2688217  47.7066116  27.7672005  64.7221375
  47.2273064  27.0306282  64.3427124  48.4472847  27.3634624  65.1744995
  61.0194397  25.3358936  14.3420820  60.7302933  25.3581200  13.4298706
  61.4947548  24.5089550  14.4225931  58.7531700  69.8949966  50.5364647
  58.1044159  70.1506042  49.8807068  59.4169769  69.4142914  50.0419846
  86.7039772  71.5393996  89.0624713  90.0000000  90.0000000  90.0000000
